Title
82341
    1SAPS     N    1   0.176   0.799  67.675 -0.4295 -0.1715  0.8621
    1SAPS   HN1    2   0.212   0.702  67.688 -2.7728 -1.0130  1.5730
    1SAPS   HN2    3   0.122   0.779  67.589 -0.3587  1.1841  0.4875
    1SAPS   HN3    4   0.248   0.871  67.656  0.4831 -1.6976 -1.9931
    1SAPS   C12    5   0.097   0.860  67.784  0.6043 -0.1833  0.3885
    1SAPS  H12A    6   0.032   0.780  67.815 -2.3548  2.1259  0.5380
    1SAPS   C13    7   0.176   0.903  67.910  0.2245 -0.1853  0.9184
    1SAPS  O13A    8   0.294   0.873  67.916  0.1323  0.4882 -0.4906
    1SAPS  O13B    9   0.128   0.981  67.993 -0.1683  0.3560 -0.3875
    1SAPS   C11   10   0.012   0.994  67.735  0.3045  0.0159 -0.0011
    1SAPS  H11A   11  -0.064   1.023  67.811 -0.3759  0.9759 -1.0322
    1SAPS  H11B   12  -0.053   0.969  67.648  2.2534  1.5416 -1.9953
    1SAPS     P   13   0.056   1.237  67.673  0.1702  0.2808 -0.2351
    1SAPS   O13   14   0.066   1.319  67.794 -1.1581 -0.3326 -0.3067
    1SAPS   O14   15   0.128   1.287  67.552  0.3056  0.5776 -0.0160
    1SAPS   O12   16   0.110   1.097  67.700 -0.3727  0.0876  0.0705
    1SAPS   O11   17  -0.099   1.213  67.653  0.4355 -0.1985  0.0632
    1SAPS    C1   18  -0.182   1.232  67.531 -0.1702 -0.1343 -0.1665
    1SAPS    HA   19  -0.133   1.287  67.448 -1.5039  1.4419  0.0569
    1SAPS    HB   20  -0.221   1.133  67.500  0.5638 -0.8117  0.9672
    1SAPS    C2   21  -0.306   1.322  67.550  0.0772  1.3608 -1.2730
    1SAPS    HS   22  -0.280   1.427  67.522 -0.6807  1.5204 -1.4018
    1SAPS   O21   23  -0.371   1.297  67.679 -0.5760  0.3114  0.2460
    1SAPS   C21   24  -0.312   1.362  67.776 -0.1151 -0.2266  0.6347
    1SAPS   O22   25  -0.233   1.452  67.757  0.2987 -0.1068 -0.3598
    1SAPS   C22   26  -0.373   1.323  67.910  0.1286 -0.0754 -0.7333
    1SAPS   H2R   27  -0.300   1.267  67.972  0.3410  2.1965  1.2102
    1SAPS   H2S   28  -0.391   1.411  67.976  0.3939 -1.4192  1.2160
    1SAPS    C3   29  -0.412   1.280  67.446  0.3033 -0.1734 -0.4936
    1SAPS    HX   30  -0.509   1.331  67.465  0.3594  1.0504 -3.1339
    1SAPS    HY   31  -0.426   1.170  67.458 -2.2926  0.3716  3.1388
    1SAPS   O31   32  -0.359   1.307  67.319  0.1519 -0.2365 -0.1635
    1SAPS   C31   33  -0.441   1.296  67.207 -0.4239 -0.1029 -0.7229
    1SAPS   O32   34  -0.558   1.286  67.214 -0.3836  0.4548  0.7406
    1SAPS   C32   35  -0.354   1.297  67.087 -0.8382  0.3611  0.7335
    1SAPS   H2X   36  -0.296   1.202  67.075 -1.7435 -0.4829  2.6072
    1SAPS   H2Y   37  -0.281   1.379  67.096 -0.4742 -0.0270  1.3807
    1SAPS   C23   38  -0.483   1.216  67.895  0.4240 -0.0584  0.0442
    1SAPS   H3R   39  -0.477   1.119  67.841 -1.3062  0.1843 -0.6520
    1SAPS   H3S   40  -0.550   1.276  67.830  4.8431  1.6948 -3.4781
    1SAPS   C24   41  -0.535   1.189  68.033 -0.6184 -0.0769  1.7696
    1SAPS   H4R   42  -0.529   1.280  68.097 -0.1371  0.2389  1.2843
    1SAPS   H4S   43  -0.461   1.113  68.066  0.8746  0.0949 -0.9493
    1SAPS   C25   44  -0.683   1.147  68.041  0.1135 -0.8318  0.2875
    1SAPS   H5R   45  -0.750   1.219  67.990  0.8545 -0.5969 -0.3716
    1SAPS   C26   46  -0.734   1.044  68.100  0.0070 -0.2058  0.5800
    1SAPS   H6R   47  -0.842   1.029  68.090 -0.0795 -0.6523  1.8755
    1SAPS   C27   48  -0.656   0.933  68.180  0.1790  0.2726  0.5685
    1SAPS   H7R   49  -0.601   0.975  68.267  0.3961  0.6340  0.2597
    1SAPS   H7S   50  -0.572   0.886  68.125 -1.9195 -0.9212 -1.8136
    1SAPS   C28   51  -0.756   0.829  68.229 -0.2566  0.1285  0.0300
    1SAPS   H8R   52  -0.746   0.814  68.337 -0.4561 -0.5517 -0.0444
    1SAPS   C29   53  -0.847   0.753  68.157 -0.0699 -1.1733 -0.1236
    1SAPS   H9R   54  -0.900   0.677  68.216 -0.3124  0.3234  1.6715
    1SAPS  C210   55  -0.866   0.762  68.010  0.3015  0.0539  0.1253
    1SAPS  H10R   56  -0.788   0.704  67.955 -0.4990  2.5343 -4.0387
    1SAPS  H10S   57  -0.866   0.860  67.958 -1.1093 -0.3416 -0.6897
    1SAPS  C211   58  -0.995   0.694  67.983  0.2486 -1.8698  0.3578
    1SAPS  H11R   59  -1.083   0.759  67.986  1.5700  0.2465 -2.6707
    1SAPS  C212   60  -1.012   0.570  67.928 -0.9591 -0.7358  0.2893
    1SAPS  H12R   61  -1.116   0.537  67.944 -0.4362 -1.1555  3.6053
    1SAPS  C213   62  -0.903   0.470  67.895  0.5458 -0.5079  0.1413
    1SAPS  H13R   63  -0.807   0.516  67.864 -0.4087  0.4378 -1.5694
    1SAPS  H13S   64  -0.934   0.429  67.796 -0.2125 -1.6182  0.8207
    1SAPS  C214   65  -0.889   0.363  67.999  0.9082 -0.2800  0.5674
    1SAPS  H14R   66  -0.789   0.368  68.044  1.2572 -1.1743 -0.0764
    1SAPS  C215   67  -0.969   0.263  68.023  0.8144 -0.8176 -0.7753
    1SAPS  H15R   68  -0.944   0.208  68.114 -0.6260  0.4225  0.4207
    1SAPS  C216   69  -1.101   0.231  67.952  0.3302  0.4189  0.1125
    1SAPS  H16R   70  -1.159   0.322  67.924  0.2243  1.0177  2.0790
    1SAPS  H16S   71  -1.172   0.181  68.021  0.3366 -2.1792 -1.6490
    1SAPS  C217   72  -1.077   0.153  67.823 -0.5970  0.3134  0.4646
    1SAPS  H17R   73  -1.044   0.219  67.741 -3.0066  1.5166  0.3571
    1SAPS  H17S   74  -1.180   0.122  67.795 -1.2817 -0.1402  3.1861
    1SAPS  C218   75  -0.970   0.042  67.832  0.3363  0.2381  0.4985
    1SAPS  H18R   76  -0.992  -0.038  67.905  0.4613 -1.7631 -1.5543
    1SAPS  H18S   77  -0.875   0.080  67.875  1.5147 -0.7708 -1.1156
    1SAPS  C219   78  -0.943  -0.025  67.697  0.1896 -0.6272  0.0851
    1SAPS  H19R   79  -0.888   0.042  67.628  0.2675  0.5870  1.2888
    1SAPS  H19S   80  -1.038  -0.053  67.645  0.5383 -0.7196 -0.4984
    1SAPS  C220   81  -0.849  -0.146  67.710  0.0356 -0.5817 -0.8342
    1SAPS  H20R   82  -0.842  -0.202  67.614 -2.7039 -0.6989 -1.0224
    1SAPS  H20S   83  -0.880  -0.222  67.785  1.3854  1.1066  1.5651
    1SAPS  H20T   84  -0.754  -0.110  67.755 -0.4691 -0.8281  0.4712
    1SAPS   C33   85  -0.427   1.326  66.953  0.4332  0.8401  0.0516
    1SAPS   H3X   86  -0.478   1.424  66.942  0.6749  1.0522  0.7982
    1SAPS   H3Y   87  -0.511   1.255  66.937  0.7427  0.6231 -0.6915
    1SAPS   C34   88  -0.332   1.322  66.836 -0.5168 -0.5261  0.1040
    1SAPS   H4X   89  -0.298   1.216  66.831 -0.5892 -0.6284  1.5524
    1SAPS   H4Y   90  -0.269   1.407  66.868 -1.8645  0.4743  0.1832
    1SAPS   C35   91  -0.402   1.341  66.700  0.7723 -0.8948 -0.2205
    1SAPS   H5X   92  -0.483   1.415  66.718 -1.0357 -2.5363 -1.1796
    1SAPS   H5Y   93  -0.460   1.250  66.671 -3.1238 -0.2552  4.3051
    1SAPS   C36   94  -0.320   1.381  66.576  0.4578 -0.2663  0.6792
    1SAPS   H6X   95  -0.287   1.280  66.542 -3.0886 -1.6171  0.8362
    1SAPS   H6Y   96  -0.237   1.446  66.612 -0.4441  3.2881 -2.9544
    1SAPS   C37   97  -0.390   1.452  66.460  0.0433  0.9216 -0.6643
    1SAPS   H7X   98  -0.396   1.561  66.481 -0.3871  0.4395  2.1722
    1SAPS   H7Y   99  -0.488   1.403  66.442  1.6349 -2.6021 -0.5917
    1SAPS   C38  100  -0.316   1.450  66.332  0.0723  0.6980  0.6117
    1SAPS   H8X  101  -0.261   1.355  66.318 -1.7173  0.1393 -4.4199
    1SAPS   H8Y  102  -0.249   1.536  66.310 -0.9388  1.4068  0.2293
    1SAPS   C39  103  -0.414   1.453  66.202  0.5180  0.1681  0.0849
    1SAPS   H9X  104  -0.439   1.560  66.185 -0.2956 -0.0959 -0.4595
    1SAPS   H9Y  105  -0.516   1.416  66.223 -0.0238  1.8463  0.5122
    1SAPS  C310  106  -0.355   1.390  66.078  0.2407 -0.0610  0.1297
    1SAPS  H10X  107  -0.331   1.283  66.094 -0.3494 -0.5707 -2.0438
    1SAPS  H10Y  108  -0.262   1.444  66.049 -0.2893  0.3082 -0.9302
    1SAPS  C311  109  -0.446   1.409  65.960 -0.2063  0.7494 -0.0527
    1SAPS  H11X  110  -0.499   1.505  65.939 -1.4306  0.4392  1.4652
    1SAPS  H11Y  111  -0.531   1.338  65.967 -1.5784  2.2205 -0.9516
    1SAPS  C312  112  -0.376   1.394  65.829 -1.1737 -0.3558 -0.2228
    1SAPS  H12X  113  -0.298   1.315  65.831  0.7077  1.3072 -2.5322
    1SAPS  H12Y  114  -0.307   1.478  65.809 -1.0220  0.0075  1.6459
    1SAPS  C313  115  -0.464   1.378  65.697 -0.0475  0.8367 -0.0024
    1SAPS  H13X  116  -0.523   1.284  65.703  1.4783 -0.2593 -1.2823
    1SAPS  H13Y  117  -0.400   1.361  65.608 -1.8840  0.2334 -1.2996
    1SAPS  C314  118  -0.572   1.482  65.676 -0.4009  0.5469  0.1855
    1SAPS  H14X  119  -0.503   1.568  65.668 -0.5489  0.6484 -0.0101
    1SAPS  H14Y  120  -0.641   1.500  65.761  0.9550  0.1293  1.3964
    1SAPS  C315  121  -0.648   1.475  65.540  0.7319  0.1968 -0.7334
    1SAPS  H15X  122  -0.574   1.478  65.458  0.8755  1.4003 -0.5784
    1SAPS  H15Y  123  -0.698   1.573  65.528 -0.0869  0.0113  0.8430
    1SAPS  C316  124  -0.744   1.355  65.526 -0.7952 -0.4413 -0.2857
    1SAPS  H16X  125  -0.788   1.342  65.627 -1.2692  2.2589 -0.0590
    1SAPS  H16Y  126  -0.687   1.261  65.513  0.3609 -0.5031  3.6627
    1SAPS  C317  127  -0.858   1.369  65.422 -1.0001  0.1391 -1.0599
    1SAPS  H17X  128  -0.810   1.396  65.325  1.6982  3.6295  0.9906
    1SAPS  H17Y  129  -0.920   1.458  65.448  0.3940  0.4241  1.5689
    1SAPS  C318  130  -0.951   1.251  65.427  0.4219 -0.4552  0.2317
    1SAPS  H18X  131  -0.918   1.154  65.384  1.4391  0.2485 -0.6263
    1SAPS  H18Y  132  -1.037   1.279  65.363  0.9523 -1.2251 -0.8417
    1SAPS  H18Z  133  -0.996   1.225  65.526  3.8368  0.0626  2.0929
    2SAPS     N  134   0.149   0.552  57.486  1.0471 -0.0807  0.5379
    2SAPS   HN1  135   0.142   0.648  57.525  1.0015 -0.5271  1.6673
    2SAPS   HN2  136   0.086   0.562  57.403 -0.1999  2.6584  1.6851
    2SAPS   HN3  137   0.092   0.492  57.548  1.2809  1.8952  2.8058
    2SAPS   C12  138   0.283   0.505  57.445 -0.3788 -0.3097  0.7973
    2SAPS  H12A  139   0.286   0.481  57.340 -2.6337 -0.5161  0.7341
    2SAPS   C13  140   0.390   0.611  57.483 -0.0839  0.4904  0.1983
    2SAPS  O13A  141   0.358   0.729  57.508  0.0737  0.2717  0.4391
    2SAPS  O13B  142   0.508   0.577  57.500 -0.4717 -0.2357 -0.5404
    2SAPS   C11  143   0.309   0.381  57.529 -0.4231  0.5002 -0.4529
    2SAPS  H11A  144   0.294   0.387  57.639  0.9524 -2.2551 -0.0294
    2SAPS  H11B  145   0.414   0.345  57.524 -1.4157 -2.5187 -1.6078
    2SAPS     P  146   0.283   0.182  57.371  0.0602  0.1673 -0.3883
    2SAPS   O13  147   0.166   0.130  57.302 -0.1015 -0.2345  0.2397
    2SAPS   O14  148   0.401   0.234  57.297 -0.0495 -0.4474 -0.3325
    2SAPS   O12  149   0.230   0.280  57.475 -0.4155  0.4488 -0.9665
    2SAPS   O11  150   0.349   0.061  57.449  0.1919  0.4021 -0.1064
    2SAPS    C1  151   0.288  -0.070  57.482 -1.0677 -0.6484 -0.4619
    2SAPS    HA  152   0.346  -0.112  57.567  0.0194 -2.6592 -2.0919
    2SAPS    HB  153   0.183  -0.044  57.505 -1.0571 -1.5066  0.5978
    2SAPS    C2  154   0.299  -0.163  57.352 -0.0766 -0.1674 -1.2105
    2SAPS    HS  155   0.224  -0.119  57.284 -1.5944  1.4815  1.3323
    2SAPS   O21  156   0.266  -0.294  57.394 -0.1993  0.3531 -0.4585
    2SAPS   C21  157   0.144  -0.323  57.430  0.4582 -0.4477  0.5674
    2SAPS   O22  158   0.042  -0.255  57.432  0.3174 -0.3245 -0.7189
    2SAPS   C22  159   0.143  -0.459  57.502  0.0125  0.0301  0.7118
    2SAPS   H2R  160   0.036  -0.480  57.520 -0.5734  2.8818  1.0111
    2SAPS   H2S  161   0.179  -0.539  57.434  0.5031  0.6698  0.1969
    2SAPS    C3  162   0.436  -0.169  57.282 -0.4959  0.3763 -0.6776
    2SAPS    HX  163   0.513  -0.177  57.362 -0.2382 -0.8953 -1.0249
    2SAPS    HY  164   0.445  -0.077  57.221  0.6435  0.2482 -0.7357
    2SAPS   O31  165   0.456  -0.293  57.204  0.3721 -0.0169  0.0455
    2SAPS   C31  166   0.374  -0.305  57.092 -0.3572 -0.0515  0.6041
    2SAPS   O32  167   0.284  -0.226  57.066  0.4525  0.1708 -0.5666
    2SAPS   C32  168   0.410  -0.422  56.999 -0.2572 -0.5880 -0.1193
    2SAPS   H2X  169   0.309  -0.465  56.985 -0.2272 -0.4194 -0.8645
    2SAPS   H2Y  170   0.476  -0.492  57.054  0.1843  0.9801  1.4697
    2SAPS   C23  171   0.231  -0.455  57.631  0.1652 -0.3540  0.7167
    2SAPS   H3R  172   0.328  -0.402  57.620 -1.0003  2.0683  1.4395
    2SAPS   H3S  173   0.259  -0.562  57.643 -1.3060 -0.9380 -0.6656
    2SAPS   C24  174   0.159  -0.397  57.757  0.1364  0.1968 -0.0330
    2SAPS   H4R  175   0.222  -0.439  57.838 -1.3046  0.3882  1.2438
    2SAPS   H4S  176   0.058  -0.442  57.770  1.5001 -2.8194  1.0968
    2SAPS   C25  177   0.155  -0.248  57.769  0.6908 -0.2792  0.2495
    2SAPS   H5R  178   0.157  -0.186  57.679  0.0855 -1.2037 -0.4139
    2SAPS   C26  179   0.160  -0.185  57.889  0.5150 -0.3288 -0.0474
    2SAPS   H6R  180   0.154  -0.075  57.885  0.4997 -0.3680 -2.3270
    2SAPS   C27  181   0.175  -0.235  58.034 -0.7451 -0.5999  0.8833
    2SAPS   H7R  182   0.087  -0.296  58.062 -2.9644  2.0904  0.1696
    2SAPS   H7S  183   0.191  -0.158  58.112 -0.3551 -0.0613  0.2911
    2SAPS   C28  184   0.288  -0.329  58.065  0.6283 -0.4257  0.1686
    2SAPS   H8R  185   0.378  -0.308  58.005 -0.4844 -0.2330 -1.4984
    2SAPS   C29  186   0.297  -0.404  58.176  0.0874  0.0422  0.9844
    2SAPS   H9R  187   0.397  -0.451  58.177  0.9298  1.5252 -1.7424
    2SAPS  C210  188   0.189  -0.433  58.274  0.0409 -0.5546  0.1632
    2SAPS  H10R  189   0.101  -0.480  58.225  0.7141  0.2422 -1.8703
    2SAPS  H10S  190   0.134  -0.346  58.315 -0.0865 -0.5188 -0.0810
    2SAPS  C211  191   0.223  -0.508  58.405 -0.7726 -0.9270 -1.4537
    2SAPS  H11R  192   0.326  -0.544  58.420 -1.4171 -2.2034  0.4131
    2SAPS  C212  193   0.136  -0.547  58.499  1.1980 -0.1310 -0.4226
    2SAPS  H12R  194   0.177  -0.590  58.591  1.2483  1.4317  0.3240
    2SAPS  C213  195  -0.009  -0.526  58.490  0.8610  1.2847 -0.1798
    2SAPS  H13R  196  -0.078  -0.605  58.452 -0.5487  2.0257  0.7190
    2SAPS  H13S  197  -0.033  -0.430  58.440  1.1267  2.5183  1.9627
    2SAPS  C214  198  -0.066  -0.507  58.633 -0.1923 -0.1723 -0.4863
    2SAPS  H14R  199   0.011  -0.488  58.709  0.4002  0.0057 -1.1274
    2SAPS  C215  200  -0.194  -0.496  58.682 -0.4974 -0.6107  0.6033
    2SAPS  H15R  201  -0.220  -0.476  58.787  0.5500 -1.9318  1.1397
    2SAPS  C216  202  -0.304  -0.521  58.579  0.6350 -0.2251  0.0403
    2SAPS  H16R  203  -0.372  -0.592  58.631 -1.1667  0.2544 -1.5441
    2SAPS  H16S  204  -0.271  -0.574  58.487  0.7834  0.8421 -0.5405
    2SAPS  C217  205  -0.382  -0.403  58.521  0.5517 -0.2482 -0.0175
    2SAPS  H17R  206  -0.451  -0.445  58.444 -0.3449  0.9107  0.1356
    2SAPS  H17S  207  -0.310  -0.342  58.462 -0.1094 -0.7652 -1.4095
    2SAPS  C218  208  -0.454  -0.326  58.624 -0.1495  0.5622 -0.4725
    2SAPS  H18R  209  -0.379  -0.257  58.669  0.9278 -0.2858 -0.9195
    2SAPS  H18S  210  -0.490  -0.386  58.710 -3.8785 -0.3370 -2.4386
    2SAPS  C219  211  -0.577  -0.242  58.578 -0.1200 -0.6929 -0.0386
    2SAPS  H19R  212  -0.596  -0.176  58.665  2.1066  1.2763 -0.9399
    2SAPS  H19S  213  -0.669  -0.297  58.548 -0.5594  1.1573 -2.4490
    2SAPS  C220  214  -0.548  -0.148  58.458 -0.7899 -0.2796  0.6842
    2SAPS  H20R  215  -0.628  -0.080  58.423  0.8774  1.1399 -0.5664
    2SAPS  H20S  216  -0.516  -0.216  58.376 -3.0960  1.6213 -2.0070
    2SAPS  H20T  217  -0.472  -0.071  58.481  0.3192 -1.1718  0.1286
    2SAPS   C33  218   0.478  -0.357  56.872  0.5528 -0.3522 -0.6222
    2SAPS   H3X  219   0.549  -0.275  56.897  1.5761 -1.0902 -1.0290
    2SAPS   H3Y  220   0.394  -0.314  56.813 -0.2496 -0.2986  0.5282
    2SAPS   C34  221   0.531  -0.464  56.788  0.0150 -0.2762  0.1323
    2SAPS   H4X  222   0.441  -0.524  56.764 -0.3303  0.6209 -0.9046
    2SAPS   H4Y  223   0.603  -0.521  56.850 -2.5493 -1.5429  2.1575
    2SAPS   C35  224   0.602  -0.420  56.655  0.7455  0.0444  0.9231
    2SAPS   H5X  225   0.697  -0.367  56.675  1.2379 -0.6048  0.3480
    2SAPS   H5Y  226   0.517  -0.369  56.604 -0.1553 -0.4149  1.9379
    2SAPS   C36  227   0.635  -0.548  56.568  1.1911 -0.2208  0.4261
    2SAPS   H6X  228   0.579  -0.638  56.601 -1.3766  0.3987 -1.9096
    2SAPS   H6Y  229   0.744  -0.568  56.575  1.4043  0.6627 -0.1378
    2SAPS   C37  230   0.605  -0.534  56.418  0.1453 -0.2279 -0.2001
    2SAPS   H7X  231   0.495  -0.537  56.403  0.0841 -2.1139  0.2913
    2SAPS   H7Y  232   0.645  -0.620  56.359 -2.1317 -0.8174 -0.9992
    2SAPS   C38  233   0.660  -0.410  56.347 -0.6039 -0.0714  0.6927
    2SAPS   H8X  234   0.767  -0.435  56.333 -1.2544 -3.6094  1.1346
    2SAPS   H8Y  235   0.663  -0.314  56.403 -0.8330  1.1948 -1.3557
    2SAPS   C39  236   0.590  -0.389  56.204  0.5656  0.0745 -0.6612
    2SAPS   H9X  237   0.646  -0.309  56.150 -1.9068  2.7461  0.4901
    2SAPS   H9Y  238   0.489  -0.346  56.223 -0.3954 -1.4581 -1.9813
    2SAPS  C310  239   0.565  -0.515  56.123 -0.2875  0.7747 -0.5614
    2SAPS  H10X  240   0.510  -0.587  56.186 -1.3323  1.0461 -1.1274
    2SAPS  H10Y  241   0.667  -0.557  56.112 -0.8172 -1.0350  1.0067
    2SAPS  C311  242   0.485  -0.497  55.991  0.8778 -0.6035 -0.7121
    2SAPS  H11X  243   0.388  -0.449  56.015 -0.1721 -4.1411  3.5067
    2SAPS  H11Y  244   0.445  -0.597  55.962 -2.9817 -0.8855  4.3021
    2SAPS  C312  245   0.563  -0.413  55.895  0.8846  0.2795  0.5912
    2SAPS  H12X  246   0.602  -0.484  55.820  1.8902  3.9607 -2.7372
    2SAPS  H12Y  247   0.651  -0.380  55.955  1.6012 -1.5139  0.5819
    2SAPS  C313  248   0.503  -0.281  55.849 -0.1244  0.3458 -0.9906
    2SAPS  H13X  249   0.497  -0.209  55.934  2.5620  2.2942 -2.3017
    2SAPS  H13Y  250   0.399  -0.288  55.812 -0.6422 -0.3955  0.5294
    2SAPS  C314  251   0.578  -0.209  55.738 -0.3755  0.4679 -0.0929
    2SAPS  H14X  252   0.674  -0.168  55.777  0.0705 -1.2550  0.7011
    2SAPS  H14Y  253   0.515  -0.130  55.691 -3.2795 -1.3321  0.5549
    2SAPS  C315  254   0.604  -0.307  55.623  0.1591 -0.6737  0.1631
    2SAPS  H15X  255   0.512  -0.366  55.603 -1.1908  1.8883 -1.8198
    2SAPS  H15Y  256   0.683  -0.372  55.667  0.7262  0.0583  0.2565
    2SAPS  C316  257   0.673  -0.249  55.489 -1.0383  0.2850  0.0317
    2SAPS  H16X  258   0.759  -0.181  55.506 -0.8725 -0.6739  4.0191
    2SAPS  H16Y  259   0.599  -0.189  55.432  0.6974  0.9756 -1.5743
    2SAPS  C317  260   0.700  -0.353  55.382 -0.3206  0.5468 -1.1504
    2SAPS  H17X  261   0.623  -0.433  55.373 -0.9145  1.0218 -0.4109
    2SAPS  H17Y  262   0.795  -0.408  55.396 -0.1267  1.1084 -0.1677
    2SAPS  C318  263   0.711  -0.295  55.239 -0.1947  0.0858  0.1407
    2SAPS  H18X  264   0.720  -0.371  55.159  1.0743  0.0255  0.3272
    2SAPS  H18Y  265   0.809  -0.243  55.242  0.9479 -1.9786  2.6246
    2SAPS  H18Z  266   0.629  -0.222  55.218 -1.5856 -0.7465  2.2923
    3SAPS     N  267   0.892   0.971  57.947 -0.2424 -0.4193 -0.3448
    3SAPS   HN1  268   0.922   1.025  58.031 -3.3866  0.0132  0.6216
    3SAPS   HN2  269   0.973   0.970  57.881  0.6731 -0.4860  0.7452
    3SAPS   HN3  270   0.809   1.025  57.915  0.4212  1.2001  0.5330
    3SAPS   C12  271   0.854   0.836  57.985 -0.7807 -0.0348  0.8994
    3SAPS  H12A  272   0.752   0.848  58.019 -0.7650  1.8169  0.3695
    3SAPS   C13  273   0.847   0.738  57.858  0.5417  0.1253 -0.3119
    3SAPS  O13A  274   0.874   0.773  57.737  0.2021 -0.4821  0.0086
    3SAPS  O13B  275   0.815   0.614  57.874  0.2141 -0.1995 -0.1170
    3SAPS   C11  276   0.934   0.782  58.109 -0.2008  0.7548 -0.3078
    3SAPS  H11A  277   0.894   0.678  58.116 -2.5164  1.4220 -2.3203
    3SAPS  H11B  278   0.920   0.830  58.208  3.5151  0.6695  0.3895
    3SAPS     P  279   1.178   0.870  58.138 -0.0060  0.1075 -0.2783
    3SAPS   O13  280   1.210   0.856  58.284  0.0634 -0.3722 -0.8897
    3SAPS   O14  281   1.299   0.866  58.051 -0.5531  0.4059  0.3178
    3SAPS   O12  282   1.075   0.762  58.098  0.3306  0.2254  0.0351
    3SAPS   O11  283   1.102   1.005  58.118  0.0847 -0.4544  0.4150
    3SAPS    C1  284   1.121   1.115  58.205  0.4646 -0.2438 -0.2618
    3SAPS    HA  285   1.223   1.124  58.248  0.2725  0.2075  0.0967
    3SAPS    HB  286   1.112   1.204  58.139  2.8011 -0.3912 -0.8985
    3SAPS    C2  287   1.027   1.118  58.333  0.0382  0.7831  0.9156
    3SAPS    HS  288   0.972   1.021  58.331 -0.3435  0.9876 -1.3479
    3SAPS   O21  289   0.931   1.226  58.320 -0.0524  0.3367 -0.0474
    3SAPS   C21  290   0.848   1.236  58.217 -0.0189  1.1537 -0.4126
    3SAPS   O22  291   0.817   1.151  58.131  0.0809 -0.5065  0.7011
    3SAPS   C22  292   0.785   1.374  58.213  0.2356  0.6385  0.5235
    3SAPS   H2R  293   0.709   1.389  58.292  0.7973  0.2500  1.1537
    3SAPS   H2S  294   0.864   1.447  58.241  0.5487  0.7486 -0.6050
    3SAPS    C3  295   1.110   1.109  58.465  0.4431  0.8382 -0.2508
    3SAPS    HX  296   1.180   1.024  58.455  3.2690  3.1298 -1.2540
    3SAPS    HY  297   1.034   1.087  58.544  0.3038 -1.4254 -0.9508
    3SAPS   O31  298   1.202   1.219  58.493 -0.3411 -1.0200  0.3489
    3SAPS   C31  299   1.189   1.279  58.601  0.6480 -1.6143 -0.1715
    3SAPS   O32  300   1.103   1.255  58.689  0.0907 -0.1754  0.6798
    3SAPS   C32  301   1.285   1.400  58.612  0.2252  0.7230 -1.0994
    3SAPS   H2X  302   1.369   1.377  58.544 -0.2355 -0.6559 -1.2160
    3SAPS   H2Y  303   1.314   1.414  58.719 -0.9123 -1.6397 -0.4109
    3SAPS   C23  304   0.726   1.397  58.073  0.5405  0.3335 -0.9807
    3SAPS   H3R  305   0.645   1.474  58.069  0.8489  0.7393  0.2186
    3SAPS   H3S  306   0.683   1.302  58.036 -0.4167 -0.4599  1.8668
    3SAPS   C24  307   0.827   1.459  57.977  0.4434  0.4060 -0.6448
    3SAPS   H4R  308   0.832   1.563  58.015  0.2080  0.0433  0.4303
    3SAPS   H4S  309   0.767   1.455  57.884 -0.7788 -4.0161  0.0832
    3SAPS   C25  310   0.956   1.378  57.955 -0.5458  1.2462  0.0135
    3SAPS   H5R  311   0.939   1.275  57.922 -0.6050  0.8578  1.1880
    3SAPS   C26  312   1.078   1.429  57.979  0.3993 -0.2332 -0.9880
    3SAPS   H6R  313   1.164   1.361  57.965  0.8846 -0.0642  0.9572
    3SAPS   C27  314   1.116   1.569  58.029  1.0125  0.1425 -0.7282
    3SAPS   H7R  315   1.035   1.631  58.073 -1.4594 -2.8269 -0.6849
    3SAPS   H7S  316   1.145   1.631  57.942 -1.2225 -1.4931 -2.8106
    3SAPS   C28  317   1.221   1.544  58.129  0.2830  0.0683  0.8643
    3SAPS   H8R  318   1.211   1.461  58.201  0.5826 -0.3425  0.4356
    3SAPS   C29  319   1.317   1.633  58.144 -0.8925 -0.4028 -1.0377
    3SAPS   H9R  320   1.386   1.612  58.226  1.2957 -1.6877 -3.0731
    3SAPS  C210  321   1.347   1.758  58.060 -0.0936 -0.0014  0.5089
    3SAPS  H10R  322   1.288   1.832  58.119 -2.3541 -1.3506  0.0472
    3SAPS  H10S  323   1.295   1.765  57.963  0.1413 -1.1111  0.2889
    3SAPS  C211  324   1.495   1.790  58.050  0.2535 -0.4544  0.6309
    3SAPS  H11R  325   1.537   1.753  57.955 -3.7223 -0.0625 -1.4807
    3SAPS  C212  326   1.581   1.853  58.135 -0.2981  0.2919  0.4053
    3SAPS  H12R  327   1.683   1.883  58.106 -0.3473 -0.0652 -0.1605
    3SAPS  C213  328   1.540   1.898  58.272  0.1356  0.4178 -0.7022
    3SAPS  H13R  329   1.587   1.823  58.338 -0.1996  1.5973  0.9275
    3SAPS  H13S  330   1.431   1.888  58.293 -0.4641  2.5758 -2.3841
    3SAPS  C214  331   1.594   2.042  58.320  0.4912  1.0812  0.7073
    3SAPS  H14R  332   1.669   2.045  58.401  1.7538  0.9631 -0.4333
    3SAPS  C215  333   1.542   2.160  58.283  0.3825 -0.1196  0.1237
    3SAPS  H15R  334   1.590   2.249  58.327 -0.1847  0.9803 -1.3991
    3SAPS  C216  335   1.423   2.166  58.191 -0.3058 -1.7374 -0.1522
    3SAPS  H16R  336   1.366   2.074  58.168 -2.1411 -1.5358  3.0212
    3SAPS  H16S  337   1.468   2.205  58.097 -3.0170 -2.6377 -1.9681
    3SAPS  C217  338   1.309   2.265  58.238  0.0521 -0.2428  0.2096
    3SAPS  H17R  339   1.311   2.280  58.348 -3.7421 -0.9330  0.5155
    3SAPS  H17S  340   1.211   2.215  58.223 -0.7396  1.2973  0.0769
    3SAPS  C218  341   1.324   2.398  58.169 -0.1656  0.0554  0.2047
    3SAPS  H18R  342   1.220   2.424  58.137 -0.9931 -3.2321 -0.0856
    3SAPS  H18S  343   1.360   2.371  58.068 -0.9099  0.7032 -0.2517
    3SAPS  C219  344   1.397   2.514  58.247  0.5241 -0.4479  0.4350
    3SAPS  H19R  345   1.499   2.476  58.266  0.7185 -1.2402 -1.8677
    3SAPS  H19S  346   1.339   2.516  58.342 -2.6683 -1.4005 -1.3306
    3SAPS  C220  347   1.395   2.657  58.184  0.4852 -0.3581  0.3724
    3SAPS  H20R  348   1.290   2.685  58.163 -0.0529 -1.5575  1.3407
    3SAPS  H20S  349   1.466   2.664  58.099 -0.6805 -0.2804 -0.6331
    3SAPS  H20T  350   1.429   2.726  58.264 -1.0040 -0.6894  1.3333
    3SAPS   C33  351   1.241   1.536  58.555 -0.0846 -0.0972  0.6600
    3SAPS   H3X  352   1.147   1.562  58.609 -1.1533  1.5126 -1.7939
    3SAPS   H3Y  353   1.215   1.520  58.448  0.4958  0.6725  0.3950
    3SAPS   C34  354   1.355   1.638  58.559  0.0368  0.4230 -0.1403
    3SAPS   H4X  355   1.434   1.610  58.486  1.4880  2.1173  0.7062
    3SAPS   H4Y  356   1.396   1.622  58.661 -2.5378 -0.0466  0.8932
    3SAPS   C35  357   1.294   1.774  58.513 -0.4971 -0.1860  0.5303
    3SAPS   H5X  358   1.245   1.756  58.416  1.7070 -2.5906 -0.2334
    3SAPS   H5Y  359   1.366   1.859  58.501 -0.9236  0.6949  3.3093
    3SAPS   C36  360   1.203   1.827  58.615  0.3493  0.1501 -1.0626
    3SAPS   H6X  361   1.258   1.851  58.708 -0.7063 -1.8068  0.1334
    3SAPS   H6Y  362   1.127   1.751  58.643  2.4643 -0.2575  4.9583
    3SAPS   C37  363   1.123   1.953  58.581  0.6421  0.2018 -0.1895
    3SAPS   H7X  364   1.205   2.019  58.544  0.5023  1.8698  2.2038
    3SAPS   H7Y  365   1.077   1.997  58.672  0.2895 -3.3403  1.5023
    3SAPS   C38  366   1.023   1.918  58.468 -0.4777 -0.5206  0.4945
    3SAPS   H8X  367   0.941   1.851  58.503 -1.3827  0.8881  1.1907
    3SAPS   H8Y  368   1.084   1.881  58.384  0.3413 -0.7930  1.1943
    3SAPS   C39  369   0.946   2.050  58.423  0.5295 -0.0702  0.2846
    3SAPS   H9X  370   1.009   2.113  58.357 -0.6693 -1.2819 -2.1516
    3SAPS   H9Y  371   0.922   2.108  58.515 -1.2159  0.5897 -0.5336
    3SAPS  C310  372   0.810   2.018  58.363 -0.1819  0.3101 -0.1717
    3SAPS  H10X  373   0.760   2.111  58.329  0.5777  0.3694 -1.1592
    3SAPS  H10Y  374   0.760   1.965  58.448  1.2629 -1.3475 -0.2958
    3SAPS  C311  375   0.823   1.922  58.245 -0.2440  0.2546  0.3176
    3SAPS  H11X  376   0.727   1.866  58.243  0.6450 -1.3132 -0.4779
    3SAPS  H11Y  377   0.903   1.846  58.258 -0.3986  0.0831  0.2623
    3SAPS  C312  378   0.830   1.996  58.113  0.0836 -1.1573 -0.8084
    3SAPS  H12X  379   0.750   2.071  58.097  2.2918  2.3227  2.6840
    3SAPS  H12Y  380   0.827   1.917  58.035  0.3702 -2.2186  0.2059
    3SAPS  C313  381   0.958   2.092  58.093  0.8050  0.9440 -0.0024
    3SAPS  H13X  382   1.039   2.058  58.160  1.1774 -1.9632 -1.7441
    3SAPS  H13Y  383   0.932   2.195  58.126 -1.2667  0.8290 -1.0993
    3SAPS  C314  384   0.994   2.105  57.946  0.1083  0.3853  0.8956
    3SAPS  H14X  385   1.045   2.013  57.910  0.7719  1.5020 -1.1526
    3SAPS  H14Y  386   1.062   2.192  57.938 -1.4665  1.4530 -2.5865
    3SAPS  C315  387   0.871   2.113  57.854  0.1006 -0.5460  0.6797
    3SAPS  H15X  388   0.807   2.023  57.858 -1.3672  0.4603  0.5915
    3SAPS  H15Y  389   0.914   2.119  57.751 -0.1272 -0.9635  0.5588
    3SAPS  C316  390   0.785   2.238  57.872 -1.0897 -0.8110  0.1730
    3SAPS  H16X  391   0.851   2.327  57.859  1.3473 -2.1005  2.6194
    3SAPS  H16Y  392   0.741   2.246  57.973 -2.2901  0.7936 -0.4355
    3SAPS  C317  393   0.663   2.248  57.778  0.3921 -0.2169  0.1858
    3SAPS  H17X  394   0.578   2.189  57.818  1.4856 -0.9251  1.5570
    3SAPS  H17Y  395   0.683   2.204  57.678 -2.6980 -0.7547 -0.2916
    3SAPS  C318  396   0.613   2.395  57.761  0.0127  0.1459  0.2181
    3SAPS  H18X  397   0.528   2.389  57.689  1.4782  0.0567 -1.5774
    3SAPS  H18Y  398   0.697   2.438  57.702  0.9710 -2.6996 -0.6336
    3SAPS  H18Z  399   0.603   2.453  57.855 -0.8042  0.8652 -0.2943
    4SAPS     N  400   1.249   0.995  73.214  0.0096 -0.2207  0.0852
    4SAPS   HN1  401   1.251   0.937  73.127  0.9708  3.4827 -2.6308
    4SAPS   HN2  402   1.151   1.023  73.235  0.5288  1.1502  0.7994
    4SAPS   HN3  403   1.307   1.078  73.191  2.2104 -1.4202  1.0504
    4SAPS   C12  404   1.307   0.919  73.325  0.9641 -0.6814  0.7273
    4SAPS  H12A  405   1.387   0.862  73.280  0.4644 -2.3893  1.9143
    4SAPS   C13  406   1.363   1.002  73.439 -0.0699  1.3857  0.5159
    4SAPS  O13A  407   1.335   1.126  73.438 -0.3397  0.2924  0.7243
    4SAPS  O13B  408   1.378   0.940  73.548 -0.5409  0.0209 -0.0333
    4SAPS   C11  409   1.198   0.820  73.368 -1.3190 -0.0040  0.5117
    4SAPS  H11A  410   1.101   0.870  73.385 -0.0697  2.0527  2.0088
    4SAPS  H11B  411   1.231   0.787  73.469  0.4523 -0.2441 -0.1048
    4SAPS     P  412   1.093   0.585  73.314 -0.1151 -0.6265  0.0508
    4SAPS   O13  413   1.127   0.533  73.446 -0.2787 -0.2179 -0.2796
    4SAPS   O14  414   0.948   0.608  73.285 -1.0856 -0.5633 -0.1096
    4SAPS   O12  415   1.197   0.708  73.278  0.6721 -0.3016  0.3367
    4SAPS   O11  416   1.146   0.476  73.209  0.0386  0.6882  0.2744
    4SAPS    C1  417   1.273   0.459  73.149 -0.9213  0.5502  0.2720
    4SAPS    HA  418   1.351   0.497  73.219 -2.0883  0.7656  1.4949
    4SAPS    HB  419   1.301   0.352  73.135  1.8048  1.2834 -0.5146
    4SAPS    C2  420   1.297   0.528  73.019 -0.5063 -0.3240  0.7692
    4SAPS    HS  421   1.282   0.638  73.029  0.8633 -0.1454  1.0792
    4SAPS   O21  422   1.203   0.475  72.925 -0.8660 -0.4259 -0.0504
    4SAPS   C21  423   1.170   0.558  72.820  1.2145  0.4180 -0.6484
    4SAPS   O22  424   1.206   0.673  72.811 -0.0662  0.2029  0.9228
    4SAPS   C22  425   1.076   0.491  72.739 -0.1191  0.4305 -0.2183
    4SAPS   H2R  426   1.122   0.394  72.708  1.3194  1.3362 -1.0457
    4SAPS   H2S  427   0.984   0.461  72.794  0.1164 -0.4912 -0.3033
    4SAPS    C3  428   1.438   0.502  72.968 -0.3989  0.2174  0.4656
    4SAPS    HX  429   1.429   0.393  72.945 -0.2483  0.3824 -0.4177
    4SAPS    HY  430   1.508   0.514  73.053 -0.3985  0.4868  0.4261
    4SAPS   O31  431   1.475   0.574  72.848 -0.4619 -0.3174  0.3909
    4SAPS   C31  432   1.534   0.685  72.868 -0.2289  0.2620  0.0156
    4SAPS   O32  433   1.569   0.730  72.977  0.3043 -0.0216  0.8882
    4SAPS   C32  434   1.555   0.756  72.739  0.3542  0.2671 -0.2347
    4SAPS   H2X  435   1.663   0.780  72.729  0.2889  0.7276  0.1342
    4SAPS   H2Y  436   1.513   0.859  72.740  0.8765  0.4940  1.1692
    4SAPS   C23  437   1.018   0.581  72.620 -0.7829  0.6186 -0.9992
    4SAPS   H3R  438   1.098   0.647  72.580  0.5011  0.6859  1.4724
    4SAPS   H3S  439   0.949   0.662  72.655 -0.1455  1.1941 -1.0461
    4SAPS   C24  440   0.947   0.504  72.518 -0.0631  0.4701  0.6188
    4SAPS   H4R  441   0.884   0.572  72.456 -3.7107 -3.0151  0.1208
    4SAPS   H4S  442   0.871   0.442  72.569  0.3521  0.7565  1.6057
    4SAPS   C25  443   1.043   0.406  72.450  0.7177 -0.5692  0.2158
    4SAPS   H5R  444   1.054   0.317  72.513 -0.8642 -1.8216 -1.1765
    4SAPS   C26  445   1.092   0.423  72.328 -0.1530  0.5101 -0.0202
    4SAPS   H6R  446   1.140   0.336  72.280 -2.5926 -0.0022 -1.7224
    4SAPS   C27  447   1.070   0.539  72.223 -0.2295  0.5563  0.3615
    4SAPS   H7R  448   1.141   0.525  72.138 -2.7999  0.9719 -2.0071
    4SAPS   H7S  449   1.101   0.634  72.270  2.1699 -0.6649  1.4482
    4SAPS   C28  450   0.925   0.545  72.176 -0.0199 -0.0705  0.0816
    4SAPS   H8R  451   0.849   0.537  72.255 -0.2788 -0.7865 -0.2359
    4SAPS   C29  452   0.887   0.581  72.053 -0.0420 -0.0416 -0.3370
    4SAPS   H9R  453   0.778   0.594  72.049  0.0283  0.4089 -0.8176
    4SAPS  C210  454   0.978   0.601  71.932 -0.2109 -0.0320  0.0256
    4SAPS  H10R  455   0.912   0.612  71.843  0.5942  2.3068 -0.3604
    4SAPS  H10S  456   1.029   0.503  71.920 -0.1633  0.0718 -0.6799
    4SAPS  C211  457   1.093   0.709  71.927  0.4926 -0.5123 -0.1462
    4SAPS  H11R  458   1.164   0.688  72.009  0.5594 -0.9552 -0.3146
    4SAPS  C212  459   1.126   0.793  71.826 -0.0046  0.6770  0.3553
    4SAPS  H12R  460   1.221   0.848  71.837  1.5660 -0.9672 -3.2385
    4SAPS  C213  461   1.054   0.812  71.693  0.1206  0.0981  1.0607
    4SAPS  H13R  462   1.017   0.917  71.691  0.9946  0.4460 -1.8184
    4SAPS  H13S  463   0.967   0.745  71.703 -0.5212  0.5182 -1.1071
    4SAPS  C214  464   1.130   0.774  71.569 -0.0140 -0.4050  0.0450
    4SAPS  H14R  465   1.192   0.684  71.578 -1.0450 -1.4590 -2.4928
    4SAPS  C215  466   1.143   0.844  71.457 -0.2327 -0.0953  0.2342
    4SAPS  H15R  467   1.212   0.810  71.378 -0.6195  0.4373 -0.3449
    4SAPS  C216  468   1.094   0.980  71.413  0.6603  0.0039 -0.1126
    4SAPS  H16R  469   1.061   1.025  71.509  0.5390 -0.6008  0.1368
    4SAPS  H16S  470   1.010   0.965  71.342  2.6128  0.0987 -2.5674
    4SAPS  C217  471   1.193   1.068  71.340  0.5205 -0.4687 -1.2397
    4SAPS  H17R  472   1.288   1.090  71.393 -0.5100 -1.9679  1.4512
    4SAPS  H17S  473   1.135   1.162  71.329  0.7278 -0.3906 -1.6640
    4SAPS  C218  474   1.234   1.014  71.204 -0.0036 -0.4876 -0.4291
    4SAPS  H18R  475   1.146   1.006  71.136  0.5909 -0.6114 -1.2005
    4SAPS  H18S  476   1.281   0.913  71.207 -0.7365 -0.8391 -0.6953
    4SAPS  C219  477   1.331   1.106  71.138  0.1311 -0.3200  0.4801
    4SAPS  H19R  478   1.428   1.104  71.192 -0.5870 -0.1863  1.8195
    4SAPS  H19S  479   1.292   1.210  71.150  0.0178 -0.2573 -0.3629
    4SAPS  C220  480   1.354   1.077  70.991 -0.3331  0.3107 -0.5977
    4SAPS  H20R  481   1.382   0.970  70.986  1.7776  0.7434  0.8706
    4SAPS  H20S  482   1.431   1.141  70.943 -0.0871  0.7077  0.3233
    4SAPS  H20T  483   1.254   1.094  70.944  0.3658 -0.9029 -2.6636
    4SAPS   C33  484   1.500   0.680  72.621  0.0745  0.1282  0.2159
    4SAPS   H3X  485   1.393   0.655  72.634 -0.3367  2.5476  2.1527
    4SAPS   H3Y  486   1.562   0.589  72.607 -0.2401 -0.0302 -0.1553
    4SAPS   C34  487   1.521   0.757  72.489 -0.2683  0.0485  0.1755
    4SAPS   H4X  488   1.626   0.792  72.495 -1.1451  2.6298  2.3231
    4SAPS   H4Y  489   1.463   0.851  72.491  0.4114  0.5431  4.3104
    4SAPS   C35  490   1.489   0.668  72.365  0.9345 -0.0280  0.2736
    4SAPS   H5X  491   1.387   0.625  72.376  0.2004  1.2289 -1.2535
    4SAPS   H5Y  492   1.535   0.567  72.365 -1.5045 -1.2981  3.0953
    4SAPS   C36  493   1.504   0.746  72.238  0.3404 -0.4767 -0.0503
    4SAPS   H6X  494   1.598   0.804  72.243 -0.3300  0.5676  1.3406
    4SAPS   H6Y  495   1.424   0.823  72.228  0.5478  0.2785  2.9485
    4SAPS   C37  496   1.517   0.647  72.119  0.2384 -1.1870 -0.0641
    4SAPS   H7X  497   1.424   0.586  72.118 -0.2125 -0.7063  2.9156
    4SAPS   H7Y  498   1.606   0.583  72.136  0.6795 -0.1486  1.7892
    4SAPS   C38  499   1.531   0.720  71.974 -0.2629 -0.3153  0.3681
    4SAPS   H8X  500   1.605   0.800  71.993 -0.8101  1.0453 -2.6994
    4SAPS   H8Y  501   1.430   0.757  71.945  1.0107  0.2829 -3.9817
    4SAPS   C39  502   1.571   0.613  71.873 -0.1396 -1.3256 -0.0188
    4SAPS   H9X  503   1.501   0.526  71.884 -2.4580  0.5916  1.3276
    4SAPS   H9Y  504   1.666   0.559  71.894 -0.0106 -0.9576  0.3405
    4SAPS  C310  505   1.580   0.660  71.724  0.4708  0.0025 -0.8904
    4SAPS  H10X  506   1.662   0.734  71.716  1.4420 -1.1118 -1.4380
    4SAPS  H10Y  507   1.486   0.715  71.699 -0.9913 -1.7458  0.4099
    4SAPS  C311  508   1.605   0.545  71.620  0.1298 -0.7756 -0.3131
    4SAPS  H11X  509   1.511   0.494  71.591 -1.0986  1.7302 -1.0381
    4SAPS  H11Y  510   1.672   0.468  71.663 -0.7201 -0.4413  1.7130
    4SAPS  C312  511   1.659   0.588  71.488 -0.1052  0.4255  0.2440
    4SAPS  H12X  512   1.755   0.643  71.494  0.7810 -1.0769  0.4257
    4SAPS  H12Y  513   1.593   0.664  71.442  2.2284  2.1557 -0.4478
    4SAPS  C313  514   1.678   0.469  71.399 -0.4476 -0.1812 -0.3381
    4SAPS  H13X  515   1.589   0.403  71.405 -1.7617  1.6002  3.4730
    4SAPS  H13Y  516   1.763   0.415  71.446 -0.4388 -1.2914 -1.5644
    4SAPS  C314  517   1.731   0.492  71.255  0.6364  0.2188 -0.0202
    4SAPS  H14X  518   1.761   0.405  71.192  2.0128  1.8773 -1.7586
    4SAPS  H14Y  519   1.802   0.577  71.256 -0.7559  1.4735 -1.5705
    4SAPS  C315  520   1.612   0.555  71.169 -0.5302 -0.0882  0.7822
    4SAPS  H15X  521   1.562   0.641  71.218 -0.3588  1.4822 -1.5928
    4SAPS  H15Y  522   1.543   0.470  71.148 -1.0372  0.3963  0.4525
    4SAPS  C316  523   1.663   0.607  71.032 -0.3271 -0.3994 -0.5248
    4SAPS  H16X  524   1.741   0.535  71.000 -1.0408 -0.6435 -1.7969
    4SAPS  H16Y  525   1.715   0.702  71.056  2.6375 -0.8066 -4.3960
    4SAPS  C317  526   1.556   0.640  70.931 -0.3887  0.5699  0.7197
    4SAPS  H17X  527   1.490   0.723  70.965 -1.5860  0.0675 -0.3076
    4SAPS  H17Y  528   1.507   0.544  70.905  1.0772  0.5223 -2.2198
    4SAPS  C318  529   1.608   0.702  70.803 -0.4374 -0.0287  0.2947
    4SAPS  H18X  530   1.524   0.728  70.735  0.4180 -0.8082 -1.1002
    4SAPS  H18Y  531   1.669   0.628  70.747 -1.2001 -0.2098 -0.3142
    4SAPS  H18Z  532   1.676   0.783  70.836 -0.5321  0.0051  0.4061
    5SAPS     N  533   0.252   2.074  66.863  0.0434  0.2830 -0.1642
    5SAPS   HN1  534   0.184   2.147  66.892 -0.9391 -0.9309  0.7032
    5SAPS   HN2  535   0.210   1.980  66.882  1.3395  0.4454  4.7236
    5SAPS   HN3  536   0.332   2.079  66.928  0.2183 -1.1390 -0.2277
    5SAPS   C12  537   0.284   2.103  66.723  0.3363 -0.8432 -0.0805
    5SAPS  H12A  538   0.370   2.168  66.715 -0.8184  0.7313 -0.1572
    5SAPS   C13  539   0.321   1.973  66.636 -1.1591  1.0830  0.0050
    5SAPS  O13A  540   0.321   1.858  66.700  0.4161 -0.3503 -0.5251
    5SAPS  O13B  541   0.353   1.974  66.512  0.2591  0.7759 -0.0968
    5SAPS   C11  542   0.163   2.179  66.649 -0.4632 -0.3329  0.1314
    5SAPS  H11A  543   0.070   2.120  66.650 -0.3517 -0.5098  0.0909
    5SAPS  H11B  544   0.172   2.181  66.539 -2.9493  0.2609 -0.1102
    5SAPS     P  545   0.219   2.438  66.685  0.2976 -0.0030  0.0825
    5SAPS   O13  546   0.160   2.540  66.782 -0.0591  0.2460  0.1978
    5SAPS   O14  547   0.366   2.417  66.696  0.0794  0.4892  0.3734
    5SAPS   O12  548   0.148   2.305  66.710 -0.3293  0.4786 -0.3636
    5SAPS   O11  549   0.178   2.459  66.533 -0.2971 -0.4826 -0.5557
    5SAPS    C1  550   0.047   2.434  66.474 -0.5140 -0.1558 -1.2102
    5SAPS    HA  551  -0.010   2.352  66.521  0.8854  0.2627  1.4012
    5SAPS    HB  552  -0.010   2.529  66.468 -0.6721 -0.0425  1.1781
    5SAPS    C2  553   0.067   2.401  66.324 -0.3258  0.1871  0.3637
    5SAPS    HS  554  -0.032   2.416  66.276 -1.5990 -3.1360  1.6363
    5SAPS   O21  555   0.099   2.262  66.312 -0.1053 -0.3560 -0.6799
    5SAPS   C21  556   0.056   2.207  66.197  0.1957 -0.5015 -0.2965
    5SAPS   O22  557   0.021   2.264  66.095 -0.2280 -0.4930  0.1371
    5SAPS   C22  558   0.065   2.052  66.199  0.7418 -0.2149 -0.3325
    5SAPS   H2R  559   0.009   2.014  66.111 -3.6747  2.1381  1.1507
    5SAPS   H2S  560   0.175   2.049  66.187  0.9785  3.0703  0.2334
    5SAPS    C3  561   0.185   2.493  66.272  0.3662 -0.0583 -0.1302
    5SAPS    HX  562   0.288   2.477  66.312  0.6209  1.4856 -0.0880
    5SAPS    HY  563   0.151   2.595  66.300  0.1529  0.4818 -2.2054
    5SAPS   O31  564   0.194   2.506  66.129  0.0150 -0.4173 -0.6850
    5SAPS   C31  565   0.280   2.427  66.076  0.7893  0.2881  0.1196
    5SAPS   O32  566   0.364   2.361  66.130  0.3459 -0.1232 -0.7285
    5SAPS   C32  567   0.260   2.426  65.925  0.5286  0.3482  0.0321
    5SAPS   H2X  568   0.315   2.510  65.877 -1.8392  0.8457 -2.0116
    5SAPS   H2Y  569   0.155   2.457  65.908  1.5185  2.9422 -1.9864
    5SAPS   C23  570   0.024   1.987  66.329 -0.5217  0.6595 -0.1719
    5SAPS   H3R  571   0.080   2.038  66.410 -0.3484 -1.0922  0.8590
    5SAPS   H3S  572   0.074   1.888  66.329 -0.9350  0.4168  1.5460
    5SAPS   C24  573  -0.123   1.975  66.378 -0.9786 -0.0870  0.9197
    5SAPS   H4R  574  -0.119   1.945  66.485 -2.4949  1.2844  1.4119
    5SAPS   H4S  575  -0.177   1.896  66.323  0.5446  0.0144 -0.8133
    5SAPS   C25  576  -0.202   2.105  66.368  0.0463 -0.3835  0.5795
    5SAPS   H5R  577  -0.151   2.193  66.411 -3.1473  2.4102 -0.8927
    5SAPS   C26  578  -0.321   2.115  66.321  0.3124  0.3649 -0.6159
    5SAPS   H6R  579  -0.364   2.217  66.318  0.1518  0.4000  1.5743
    5SAPS   C27  580  -0.416   2.014  66.251  0.0430 -0.3117  0.6824
    5SAPS   H7R  581  -0.518   2.057  66.258  0.8848  1.6506  1.8244
    5SAPS   H7S  582  -0.426   1.925  66.316  0.8045 -0.3456  0.7709
    5SAPS   C28  583  -0.383   1.971  66.116 -0.2024 -0.2584  0.0929
    5SAPS   H8R  584  -0.301   2.023  66.065  0.8072  0.4107  2.2745
    5SAPS   C29  585  -0.459   1.879  66.051 -0.0507 -0.4803  0.9586
    5SAPS   H9R  586  -0.440   1.859  65.945  1.3877  2.1601  0.6391
    5SAPS  C210  587  -0.582   1.821  66.098  0.8943  0.8792 -0.1763
    5SAPS  H10R  588  -0.587   1.831  66.209 -3.8128  2.8915 -0.3208
    5SAPS  H10S  589  -0.588   1.713  66.072 -3.0758  0.4036  1.9322
    5SAPS  C211  590  -0.699   1.896  66.032 -0.6890  0.3043 -0.4193
    5SAPS  H11R  591  -0.704   2.003  66.056  1.6835  0.3777  0.0035
    5SAPS  C212  592  -0.780   1.855  65.933 -0.3862 -0.3773  0.1242
    5SAPS  H12R  593  -0.856   1.927  65.901 -0.5070 -0.5735 -0.0365
    5SAPS  C213  594  -0.793   1.719  65.868 -0.4982  0.3182 -0.9219
    5SAPS  H13R  595  -0.702   1.655  65.877 -0.4185  0.5710  0.2289
    5SAPS  H13S  596  -0.795   1.741  65.759 -0.6835 -1.9316 -1.4351
    5SAPS  C214  597  -0.911   1.647  65.930 -0.5358 -0.7299  0.6614
    5SAPS  H14R  598  -0.905   1.613  66.034 -4.1516 -0.0654  1.2448
    5SAPS  C215  599  -1.032   1.617  65.862 -0.3481 -0.4042 -0.7802
    5SAPS  H15R  600  -1.103   1.559  65.921  0.2002 -0.8138 -0.5098
    5SAPS  C216  601  -1.062   1.652  65.721  0.0323 -0.1883  0.2917
    5SAPS  H16R  602  -0.967   1.659  65.664 -1.1099  4.1394 -1.5219
    5SAPS  H16S  603  -1.120   1.745  65.705 -0.7023 -0.4347  1.4240
    5SAPS  C217  604  -1.134   1.539  65.648 -0.4279  0.7532  0.4274
    5SAPS  H17R  605  -1.216   1.510  65.717 -1.7249  1.2246 -0.8855
    5SAPS  H17S  606  -1.073   1.446  65.636 -0.1423  0.9105  0.6580
    5SAPS  C218  607  -1.187   1.587  65.516 -0.1401  0.0329  0.2935
    5SAPS  H18R  608  -1.158   1.693  65.499  0.4836 -0.2255 -0.2639
    5SAPS  H18S  609  -1.150   1.519  65.437 -0.2898 -1.7542  1.7080
    5SAPS  C219  610  -1.337   1.586  65.508 -0.5659 -0.4390  0.3988
    5SAPS  H19R  611  -1.386   1.660  65.573 -2.5550 -0.6951 -0.7341
    5SAPS  H19S  612  -1.371   1.486  65.544  1.2034 -0.9776  0.6923
    5SAPS  C220  613  -1.380   1.600  65.361  0.0185 -0.3704  0.3344
    5SAPS  H20R  614  -1.394   1.710  65.354  2.2651  0.1140  2.2517
    5SAPS  H20S  615  -1.484   1.565  65.349 -0.1052  0.4093 -1.0472
    5SAPS  H20T  616  -1.316   1.558  65.280 -2.1480  2.2104 -2.9656
    5SAPS   C33  617   0.292   2.292  65.851  0.5456 -0.0412  0.5314
    5SAPS   H3X  618   0.223   2.217  65.894 -0.2025  0.5980  0.4611
    5SAPS   H3Y  619   0.393   2.260  65.886 -0.3097 -1.0398  2.2062
    5SAPS   C34  620   0.306   2.309  65.702  0.4845 -0.8742 -0.1122
    5SAPS   H4X  621   0.385   2.385  65.682 -1.1712  0.1523 -3.3581
    5SAPS   H4Y  622   0.215   2.357  65.661 -0.5107 -0.2914  2.5608
    5SAPS   C35  623   0.338   2.177  65.625  0.9188  0.5508 -0.1969
    5SAPS   H5X  624   0.255   2.109  65.655 -0.9409  2.0766 -1.5649
    5SAPS   H5Y  625   0.434   2.134  65.659 -0.4026 -1.4001  1.3778
    5SAPS   C36  626   0.327   2.175  65.475 -0.4370 -0.0488 -0.7232
    5SAPS   H6X  627   0.398   2.236  65.416 -0.2478  0.7069  0.2654
    5SAPS   H6Y  628   0.237   2.234  65.445 -1.0485 -0.0209  1.0576
    5SAPS   C37  629   0.329   2.040  65.406  0.3615  0.6072 -0.0033
    5SAPS   H7X  630   0.232   1.998  65.439  1.0599 -0.5705  0.6522
    5SAPS   H7Y  631   0.414   1.981  65.447  0.9181 -1.4284 -3.6284
    5SAPS   C38  632   0.339   2.054  65.254  0.5240  0.0341 -0.2193
    5SAPS   H8X  633   0.275   2.140  65.223 -0.1334 -1.2001 -2.4424
    5SAPS   H8Y  634   0.307   1.956  65.213  2.3266  0.2381 -2.2839
    5SAPS   C39  635   0.487   2.077  65.209 -0.1923  0.1233  0.2522
    5SAPS   H9X  636   0.468   2.017  65.118 -5.0021  0.9864  0.4285
    5SAPS   H9Y  637   0.568   2.040  65.276  1.7590  6.2035  1.9308
    5SAPS  C310  638   0.524   2.223  65.165  0.0859  0.4470  0.0545
    5SAPS  H10X  639   0.509   2.298  65.245  4.0874 -1.0378  2.5130
    5SAPS  H10Y  640   0.460   2.250  65.078 -3.6795  1.3303  2.8169
    5SAPS  C311  641   0.673   2.247  65.141  0.0590  0.2672  0.7137
    5SAPS  H11X  642   0.719   2.171  65.075 -3.2890  0.2175 -1.7972
    5SAPS  H11Y  643   0.733   2.261  65.234 -1.7971 -0.2476  2.0475
    5SAPS  C312  644   0.690   2.379  65.067 -0.2203  0.4240  0.8705
    5SAPS  H12X  645   0.649   2.462  65.129 -4.0577 -1.5192  1.2795
    5SAPS  H12Y  646   0.641   2.368  64.968 -4.6223 -1.4139  2.9322
    5SAPS  C313  647   0.840   2.409  65.040 -0.8326  0.4838 -0.3231
    5SAPS  H13X  648   0.829   2.489  64.964  1.0739  0.3443 -0.7832
    5SAPS  H13Y  649   0.890   2.321  64.994 -1.9968 -0.8604  0.8799
    5SAPS  C314  650   0.930   2.463  65.156 -0.3793  0.3134  0.6457
    5SAPS  H14X  651   0.940   2.379  65.228 -2.2123  1.2506  2.0760
    5SAPS  H14Y  652   0.871   2.537  65.213  0.5024  1.2454  0.3789
    5SAPS  C315  653   1.064   2.507  65.105 -0.2858 -0.1264  0.2596
    5SAPS  H15X  654   1.120   2.563  65.183  0.7033  1.8940 -1.7994
    5SAPS  H15Y  655   1.062   2.580  65.021  1.4763 -2.0893 -1.6025
    5SAPS  C316  656   1.157   2.394  65.049  0.3394 -0.4030 -0.1449
    5SAPS  H16X  657   1.098   2.369  64.958 -2.4593  2.3517  0.6937
    5SAPS  H16Y  658   1.148   2.323  65.134 -2.1678 -0.6414 -0.5286
    5SAPS  C317  659   1.301   2.441  65.014 -0.1835 -0.2216  0.6884
    5SAPS  H17X  660   1.341   2.499  65.100 -1.6553 -0.7941  1.8077
    5SAPS  H17Y  661   1.299   2.511  64.928  4.1150  1.3194  1.5898
    5SAPS  C318  662   1.397   2.325  64.971  0.1827 -0.5620 -1.0077
    5SAPS  H18X  663   1.436   2.268  65.058 -0.2647 -0.9917 -1.0819
    5SAPS  H18Y  664   1.483   2.359  64.908 -0.1781  1.0469 -0.6820
    5SAPS  H18Z  665   1.352   2.256  64.897 -0.4335 -2.1473  0.7792
    6SAPS     N  666   2.247   0.455  58.444 -0.2369  0.4547  0.8623
    6SAPS   HN1  667   2.332   0.494  58.399 -0.5421  1.3608  1.0563
    6SAPS   HN2  668   2.253   0.352  58.433 -2.5526  0.4265 -1.1630
    6SAPS   HN3  669   2.157   0.483  58.398 -3.5997 -3.9623  3.8382
    6SAPS   C12  670   2.257   0.483  58.583  0.5075 -0.4609 -0.1917
    6SAPS  H12A  671   2.166   0.447  58.630  0.8739 -1.1472  0.0064
    6SAPS   C13  672   2.387   0.422  58.638 -0.0514  0.2201 -0.6557
    6SAPS  O13A  673   2.461   0.350  58.565 -0.1611 -0.2871 -1.2050
    6SAPS  O13B  674   2.428   0.467  58.747  0.7410  0.2876 -0.2170
    6SAPS   C11  675   2.274   0.636  58.611  0.3681 -0.1556  1.0739
    6SAPS  H11A  676   2.287   0.653  58.720  0.1325 -1.9103  1.4138
    6SAPS  H11B  677   2.185   0.692  58.576  1.3075 -0.0931 -1.4197
    6SAPS     P  678   2.464   0.823  58.576 -0.3173  0.2846  0.4551
    6SAPS   O13  679   2.528   0.795  58.707 -0.7545 -0.1274 -0.3581
    6SAPS   O14  680   2.555   0.855  58.463  0.1375 -0.8537  0.8081
    6SAPS   O12  681   2.378   0.695  58.530 -0.5308  0.2198 -0.3285
    6SAPS   O11  682   2.353   0.924  58.591  0.2001  0.0005 -0.2042
    6SAPS    C1  683   2.288   0.960  58.714 -0.2874  0.4472 -0.7194
    6SAPS    HA  684   2.184   0.962  58.674  0.4813 -1.1611 -3.0323
    6SAPS    HB  685   2.280   0.881  58.792 -0.6430  1.1469 -0.0441
    6SAPS    C2  686   2.346   1.084  58.786  0.7720 -0.6938  0.6282
    6SAPS    HS  687   2.274   1.106  58.868 -2.3159 -1.4595 -1.6766
    6SAPS   O21  688   2.353   1.197  58.696 -0.8996 -0.0297 -0.4288
    6SAPS   C21  689   2.230   1.234  58.635 -0.0166  0.5770 -0.5001
    6SAPS   O22  690   2.123   1.185  58.664  0.0216  0.1192 -0.4342
    6SAPS   C22  691   2.244   1.346  58.525 -0.0231  0.1948 -0.3716
    6SAPS   H2R  692   2.178   1.433  58.546 -1.3880 -0.8305 -0.2829
    6SAPS   H2S  693   2.345   1.382  58.498 -0.1954 -0.0863 -1.4359
    6SAPS    C3  694   2.490   1.057  58.855 -0.5639  0.0497  0.2805
    6SAPS    HX  695   2.567   1.018  58.785  0.4158  0.2403  1.2348
    6SAPS    HY  696   2.480   0.974  58.929  1.6804  0.0226  0.6382
    6SAPS   O31  697   2.527   1.164  58.938  0.2933  0.0722  0.0207
    6SAPS   C31  698   2.620   1.245  58.883 -0.0786  0.2174 -0.0107
    6SAPS   O32  699   2.696   1.213  58.796 -0.0391  0.3966  0.4063
    6SAPS   C32  700   2.603   1.388  58.935  0.8231 -0.3472  0.2960
    6SAPS   H2X  701   2.704   1.416  58.971  1.3869 -0.4721 -1.1099
    6SAPS   H2Y  702   2.535   1.384  59.023 -1.5545  2.5041 -1.2123
    6SAPS   C23  703   2.176   1.302  58.383 -0.8402  0.6965 -0.6676
    6SAPS   H3R  704   2.149   1.395  58.328 -2.6335 -0.4946 -1.8985
    6SAPS   H3S  705   2.081   1.252  58.408 -1.1551  0.5084 -2.1719
    6SAPS   C24  706   2.265   1.218  58.295  0.7987 -0.4255  0.1227
    6SAPS   H4R  707   2.342   1.157  58.348  4.0579  0.3027 -3.3702
    6SAPS   H4S  708   2.332   1.288  58.240 -0.3206 -1.2055 -2.3685
    6SAPS   C25  709   2.190   1.130  58.191 -0.1174  0.2364 -1.0012
    6SAPS   H5R  710   2.199   1.024  58.215  3.5820  0.9644  1.7316
    6SAPS   C26  711   2.124   1.170  58.083 -0.2036 -1.0700  0.5123
    6SAPS   H6R  712   2.063   1.093  58.033 -2.6264  1.3964 -0.6281
    6SAPS   C27  713   2.094   1.319  58.031  0.0951  0.4473 -0.4380
    6SAPS   H7R  714   2.094   1.395  58.112  0.7784 -2.7297  2.8142
    6SAPS   H7S  715   1.994   1.317  57.983 -0.1723 -2.2345  0.0628
    6SAPS   C28  716   2.184   1.368  57.927  0.3835 -0.3607 -0.4025
    6SAPS   H8R  717   2.288   1.363  57.964  1.0730  0.9692 -2.0421
    6SAPS   C29  718   2.159   1.411  57.798  0.1873  0.6871  0.5196
    6SAPS   H9R  719   2.233   1.425  57.718 -0.6902 -1.1281 -0.6841
    6SAPS  C210  720   2.021   1.422  57.739 -0.3938 -0.7269  0.3257
    6SAPS  H10R  721   1.971   1.322  57.735  3.2396 -2.6906 -0.7670
    6SAPS  H10S  722   2.029   1.446  57.631  0.4244 -1.8186  0.1220
    6SAPS  C211  723   1.950   1.533  57.805  0.0052  0.8432  0.2679
    6SAPS  H11R  724   2.000   1.595  57.881 -1.7801  0.9235  1.4460
    6SAPS  C212  725   1.822   1.573  57.775 -0.8517  0.6430 -0.8711
    6SAPS  H12R  726   1.773   1.657  57.826 -0.4618  0.9619 -1.0158
    6SAPS  C213  727   1.751   1.502  57.660  0.4238 -0.9795  0.9563
    6SAPS  H13R  728   1.787   1.397  57.648 -0.1784 -1.1194  0.3389
    6SAPS  H13S  729   1.794   1.539  57.565  0.2995  0.6507  1.5125
    6SAPS  C214  730   1.598   1.509  57.694  0.2910  0.1728 -0.5508
    6SAPS  H14R  731   1.533   1.566  57.626 -1.6328  0.9387  1.7677
    6SAPS  C215  732   1.535   1.448  57.794  0.4216  0.2096  0.6294
    6SAPS  H15R  733   1.427   1.464  57.805  0.1730  1.1085 -2.1727
    6SAPS  C216  734   1.591   1.352  57.899  0.4756 -0.7301 -0.1639
    6SAPS  H16R  735   1.685   1.302  57.870  0.4592 -1.0694  0.3565
    6SAPS  H16S  736   1.507   1.285  57.931 -0.3324 -0.2167 -1.1590
    6SAPS  C217  737   1.621   1.438  58.030  0.9859  0.6571  0.2084
    6SAPS  H17R  738   1.524   1.472  58.073  1.2634  0.8909  0.6607
    6SAPS  H17S  739   1.686   1.523  58.000  0.8976  0.8569  0.5749
    6SAPS  C218  740   1.703   1.352  58.122  1.1694  0.1596  0.4295
    6SAPS  H18R  741   1.789   1.317  58.062 -1.0106 -0.5144 -2.5022
    6SAPS  H18S  742   1.640   1.264  58.146 -1.3330  1.3161 -1.5623
    6SAPS  C219  743   1.758   1.424  58.247 -0.2164  1.0355  0.5002
    6SAPS  H19R  744   1.683   1.482  58.305 -1.4640  0.7092 -0.7400
    6SAPS  H19S  745   1.838   1.493  58.214  2.3872 -1.4602  1.1210
    6SAPS  C220  746   1.821   1.332  58.352 -0.0588  0.3268  1.0441
    6SAPS  H20R  747   1.845   1.381  58.449 -1.5825  0.0294  1.5895
    6SAPS  H20S  748   1.913   1.282  58.314 -0.2995  1.5041 -1.2357
    6SAPS  H20T  749   1.753   1.251  58.384  0.1350  0.5502  2.0556
    6SAPS   C33  750   2.544   1.481  58.831 -0.7354  0.4477  0.4341
    6SAPS   H3X  751   2.436   1.456  58.824 -0.3289 -1.8372  1.3189
    6SAPS   H3Y  752   2.579   1.456  58.729  2.1811  0.1664  1.4172
    6SAPS   C34  753   2.578   1.628  58.850 -0.2025  0.4485  0.1002
    6SAPS   H4X  754   2.514   1.678  58.774 -1.9087 -3.0602 -0.9771
    6SAPS   H4Y  755   2.682   1.645  58.815  0.3617 -4.1790 -1.1277
    6SAPS   C35  756   2.546   1.684  58.985 -0.4508  0.0955  0.1778
    6SAPS   H5X  757   2.530   1.794  58.978  0.4938  0.1685 -1.0693
    6SAPS   H5Y  758   2.612   1.668  59.073 -0.3129  0.5047  0.1536
    6SAPS   C36  759   2.403   1.646  59.041  0.5570  0.3160 -0.4809
    6SAPS   H6X  760   2.398   1.545  59.087 -1.0116  0.7418  0.3626
    6SAPS   H6Y  761   2.339   1.643  58.950  2.3305 -1.8237 -1.7722
    6SAPS   C37  762   2.324   1.743  59.132 -0.1984 -0.5936  0.2870
    6SAPS   H7X  763   2.223   1.749  59.085 -0.0355  2.0284  0.1389
    6SAPS   H7Y  764   2.368   1.844  59.115 -1.3981 -0.2400 -1.0185
    6SAPS   C38  765   2.320   1.702  59.282 -0.2478 -0.5684 -0.5105
    6SAPS   H8X  766   2.415   1.664  59.324  1.3864 -0.9085 -4.1060
    6SAPS   H8Y  767   2.256   1.611  59.274  0.9027 -1.2991 -1.9724
    6SAPS   C39  768   2.250   1.819  59.359  0.6296  1.3444  0.1045
    6SAPS   H9X  769   2.326   1.899  59.359  2.4163 -0.2506 -1.6291
    6SAPS   H9Y  770   2.224   1.798  59.465 -0.2145  1.1353 -0.1374
    6SAPS  C310  771   2.116   1.874  59.301 -0.6965  0.2312  0.4992
    6SAPS  H10X  772   2.053   1.788  59.273  0.3000 -0.2677 -0.2479
    6SAPS  H10Y  773   2.131   1.942  59.214 -1.0303  1.2359  1.2032
    6SAPS  C311  774   2.034   1.955  59.409  0.0213  0.7658  0.1041
    6SAPS  H11X  775   2.097   2.001  59.488  0.8067 -0.8567  0.4671
    6SAPS  H11Y  776   1.972   1.881  59.463  1.1304  0.5617  1.1336
    6SAPS  C312  777   1.957   2.068  59.350 -0.3686  0.7150 -1.0426
    6SAPS  H12X  778   2.029   2.131  59.293  1.8794 -1.1889 -0.4501
    6SAPS  H12Y  779   1.930   2.143  59.427 -0.5932 -0.2147 -0.1937
    6SAPS  C313  780   1.850   2.003  59.254 -0.4163  0.1521 -0.2790
    6SAPS  H13X  781   1.792   1.932  59.317 -0.9760  0.1144 -0.8285
    6SAPS  H13Y  782   1.894   1.936  59.177  2.0521  1.0979  0.1876
    6SAPS  C314  783   1.758   2.109  59.210 -0.5320  0.3800  0.9326
    6SAPS  H14X  784   1.807   2.160  59.123 -1.4645 -2.7279 -1.6086
    6SAPS  H14Y  785   1.745   2.179  59.294  0.3862  1.9277 -0.1473
    6SAPS  C315  786   1.633   2.060  59.137  0.1087  0.8979  0.9306
    6SAPS  H15X  787   1.660   2.005  59.045  0.2219  0.1209  1.4178
    6SAPS  H15Y  788   1.579   2.156  59.120 -1.8764  0.0368  2.0307
    6SAPS  C316  789   1.538   1.965  59.220  0.0795  0.2405  1.7827
    6SAPS  H16X  790   1.552   1.998  59.325  0.5139 -2.2212  2.5607
    6SAPS  H16Y  791   1.592   1.868  59.208 -0.1455  0.0720  2.1107
    6SAPS  C317  792   1.394   1.967  59.178 -0.0052 -0.5301  0.3035
    6SAPS  H17X  793   1.339   2.048  59.229  0.5548  0.9979 -1.4331
    6SAPS  H17Y  794   1.352   1.868  59.208 -3.7854  0.7280 -0.2457
    6SAPS  C318  795   1.368   1.978  59.031  0.0728  1.0547  0.4895
    6SAPS  H18X  796   1.394   1.882  58.982 -0.3044  0.8086  0.7673
    6SAPS  H18Y  797   1.419   2.066  58.987  0.0357  0.5364 -0.6355
    6SAPS  H18Z  798   1.257   1.988  59.022 -0.4534 -3.6014 -0.7828
    7SAPS     N  799   0.300   0.893  57.710 -1.4231 -0.3832 -0.4259
    7SAPS   HN1  800   0.316   0.821  57.637  0.7871 -1.1708  0.7204
    7SAPS   HN2  801   0.221   0.952  57.676 -0.1944  2.0671  0.7295
    7SAPS   HN3  802   0.387   0.949  57.719 -1.2247 -0.2031 -2.9688
    7SAPS   C12  803   0.266   0.840  57.840 -0.9512  0.0314  0.3981
    7SAPS  H12A  804   0.190   0.766  57.820 -0.0530 -1.1860  1.3978
    7SAPS   C13  805   0.384   0.762  57.916 -0.7103 -0.3784  0.1976
    7SAPS  O13A  806   0.504   0.762  57.877  0.9658  0.2566  0.5280
    7SAPS  O13B  807   0.345   0.690  58.012  0.4663 -0.3226 -0.1948
    7SAPS   C11  808   0.220   0.946  57.947 -0.5113  0.5289 -0.9715
    7SAPS  H11A  809   0.294   1.026  57.963  0.5336 -0.4677 -0.6734
    7SAPS  H11B  810   0.209   0.906  58.050  1.9853  2.0276 -0.0459
    7SAPS     P  811  -0.036   0.941  57.933 -0.0302 -0.5464  0.5019
    7SAPS   O13  812  -0.046   0.824  57.846  0.0668  0.3671  0.4610
    7SAPS   O14  813  -0.046   0.922  58.074 -0.0874 -0.9659  1.1273
    7SAPS   O12  814   0.107   1.004  57.890  0.7037  0.1651 -1.1657
    7SAPS   O11  815  -0.141   1.049  57.899  0.5462 -0.8995 -0.6504
    7SAPS    C1  816  -0.162   1.171  57.974  0.4460  0.1009  0.1477
    7SAPS    HA  817  -0.271   1.169  57.993  0.2345 -3.4012 -0.7461
    7SAPS    HB  818  -0.104   1.174  58.069 -0.1903 -1.8264  0.6608
    7SAPS    C2  819  -0.116   1.293  57.887 -0.4403 -0.2444  0.3780
    7SAPS    HS  820  -0.006   1.287  57.873 -0.2560 -0.4930  1.8539
    7SAPS   O21  821  -0.146   1.421  57.947 -0.2379  0.1383 -0.0577
    7SAPS   C21  822  -0.087   1.443  58.067  0.1434 -0.1336  0.1473
    7SAPS   O22  823  -0.002   1.378  58.117 -0.4062  0.1657 -0.1137
    7SAPS   C22  824  -0.157   1.564  58.132 -0.1834 -0.1820  0.9557
    7SAPS   H2R  825  -0.125   1.564  58.238  0.6208  2.8924  0.8111
    7SAPS   H2S  826  -0.099   1.642  58.077 -2.4716  1.1272  0.2319
    7SAPS    C3  827  -0.176   1.300  57.751  0.3615  0.0326  0.4054
    7SAPS    HX  828  -0.283   1.270  57.747  0.0404  1.2214 -0.4316
    7SAPS    HY  829  -0.129   1.223  57.686 -0.4879  1.1940 -1.6983
    7SAPS   O31  830  -0.143   1.427  57.689 -0.0065 -0.3304  0.4769
    7SAPS   C31  831  -0.041   1.436  57.590  0.5348 -0.6043  0.6432
    7SAPS   O32  832   0.001   1.336  57.534  0.9441 -0.1330 -0.1311
    7SAPS   C32  833  -0.015   1.579  57.544  0.3194 -0.3084 -0.2255
    7SAPS   H2X  834  -0.076   1.647  57.607 -1.8837 -2.5779  0.2577
    7SAPS   H2Y  835  -0.056   1.591  57.442 -2.2734 -1.7476  0.5474
    7SAPS   C23  836  -0.306   1.580  58.095  0.0031 -0.3170  0.2217
    7SAPS   H3R  837  -0.366   1.500  58.143 -0.7685  1.1818  1.9062
    7SAPS   H3S  838  -0.323   1.569  57.986 -3.5958 -3.2251  0.8683
    7SAPS   C24  839  -0.371   1.715  58.136  0.8101  0.0100  0.2505
    7SAPS   H4R  840  -0.473   1.729  58.095  0.5484 -2.3578 -0.0666
    7SAPS   H4S  841  -0.316   1.808  58.109 -1.6372  1.2703 -0.6910
    7SAPS   C25  842  -0.382   1.707  58.288 -0.5415  0.7399  0.1328
    7SAPS   H5R  843  -0.284   1.711  58.339 -0.5329  0.3136  0.1520
    7SAPS   C26  844  -0.499   1.685  58.360 -0.1965 -0.0567  0.3395
    7SAPS   H6R  845  -0.482   1.669  58.468  2.2328 -1.1321 -0.1161
    7SAPS   C27  846  -0.641   1.696  58.312 -0.4660  0.2785 -0.4675
    7SAPS   H7R  847  -0.708   1.662  58.394 -2.9329 -1.7295 -3.1505
    7SAPS   H7S  848  -0.649   1.620  58.232 -0.4474  0.0965 -0.2982
    7SAPS   C28  849  -0.684   1.835  58.265  0.0295  0.2615 -0.2081
    7SAPS   H8R  850  -0.669   1.856  58.158 -0.5006 -0.0884 -0.3549
    7SAPS   C29  851  -0.726   1.939  58.333 -0.2928 -0.6466  0.0078
    7SAPS   H9R  852  -0.739   2.035  58.281 -0.3535 -1.7844 -2.1776
    7SAPS  C210  853  -0.725   1.957  58.485  0.3676 -0.4194 -0.4740
    7SAPS  H10R  854  -0.643   1.912  58.544  0.5682  1.8853  1.1273
    7SAPS  H10S  855  -0.810   1.909  58.538  0.7123  1.5544  2.0802
    7SAPS  C211  856  -0.727   2.106  58.533 -0.5331 -0.9098  0.4286
    7SAPS  H11R  857  -0.692   2.178  58.458 -0.4090  0.2162  1.5395
    7SAPS  C212  858  -0.798   2.154  58.637  0.0631 -0.3317  0.5955
    7SAPS  H12R  859  -0.790   2.257  58.676 -0.3125 -0.0444 -0.0795
    7SAPS  C213  860  -0.864   2.070  58.740  0.2370  0.5836  0.6402
    7SAPS  H13R  861  -0.844   2.118  58.838 -1.2841  1.0531  0.7524
    7SAPS  H13S  862  -0.808   1.974  58.741  3.1622  2.1632  2.7541
    7SAPS  C214  863  -1.009   2.057  58.704  0.7150  0.7531  0.5719
    7SAPS  H14R  864  -1.053   2.140  58.647  0.7368  0.4807  0.1466
    7SAPS  C215  865  -1.084   1.940  58.726 -0.9872 -0.8157  0.5781
    7SAPS  H15R  866  -1.188   1.951  58.695 -0.3011  2.5669 -0.9508
    7SAPS  C216  867  -1.042   1.827  58.807 -0.1586  0.5324  0.2476
    7SAPS  H16R  868  -1.123   1.786  58.871  1.8977 -0.9204  2.1031
    7SAPS  H16S  869  -0.963   1.857  58.880  1.6063 -1.2138 -0.8194
    7SAPS  C217  870  -0.975   1.728  58.714 -0.2639 -0.8770 -0.7526
    7SAPS  H17R  871  -0.889   1.769  58.658 -0.8772  2.9957  0.8134
    7SAPS  H17S  872  -1.046   1.704  58.632  0.6381  3.6244 -3.1848
    7SAPS  C218  873  -0.927   1.588  58.781  0.6720 -0.6292  0.1776
    7SAPS  H18R  874  -0.965   1.513  58.709 -0.6760  0.5711 -0.4039
    7SAPS  H18S  875  -0.983   1.564  58.874 -1.3270 -0.1661 -0.8660
    7SAPS  C219  876  -0.781   1.585  58.810 -0.4591  0.3880 -0.8127
    7SAPS  H19R  877  -0.757   1.502  58.879 -0.4490  1.9561  1.1762
    7SAPS  H19S  878  -0.744   1.682  58.851  2.3927 -1.5037  1.4855
    7SAPS  C220  879  -0.693   1.564  58.682 -0.3230  0.0564 -0.1612
    7SAPS  H20R  880  -0.586   1.566  58.712  0.3947  1.8900 -2.4790
    7SAPS  H20S  881  -0.724   1.634  58.601 -2.7474  0.4221  0.9779
    7SAPS  H20T  882  -0.706   1.460  58.646  2.5501 -1.4056  2.5819
    7SAPS   C33  883   0.133   1.621  57.556  0.9627  0.0376 -0.5654
    7SAPS   H3X  884   0.139   1.718  57.503 -0.9374  0.3002 -0.3447
    7SAPS   H3Y  885   0.193   1.554  57.490 -0.7938 -1.4787 -0.7054
    7SAPS   C34  886   0.194   1.630  57.695  0.5743  0.2342 -0.1774
    7SAPS   H4X  887   0.304   1.627  57.685  0.8592  1.3280  1.9919
    7SAPS   H4Y  888   0.160   1.541  57.753 -1.9451  2.1520  1.4847
    7SAPS   C35  889   0.167   1.767  57.765 -0.0089  0.3409 -0.3188
    7SAPS   H5X  890   0.059   1.787  57.773  0.1315  1.5881 -1.1783
    7SAPS   H5Y  891   0.204   1.834  57.684  0.4257  2.0568  1.2557
    7SAPS   C36  892   0.241   1.780  57.906  0.6949 -0.4139 -0.3271
    7SAPS   H6X  893   0.334   1.721  57.896  2.3902  1.4620  2.8011
    7SAPS   H6Y  894   0.179   1.717  57.973  0.5814 -0.6544 -0.6536
    7SAPS   C37  895   0.272   1.917  57.948 -0.8524 -0.0959  0.3313
    7SAPS   H7X  896   0.339   1.965  57.874  0.0666 -1.2759  0.3728
    7SAPS   H7Y  897   0.324   1.910  58.046 -0.3304  0.4547  0.1017
    7SAPS   C38  898   0.141   2.004  57.953 -1.7006 -0.0902 -0.2112
    7SAPS   H8X  899   0.102   2.041  57.856 -2.3405 -0.4915 -0.1110
    7SAPS   H8Y  900   0.176   2.101  57.994 -0.9077  0.0914 -1.2914
    7SAPS   C39  901   0.044   1.947  58.061 -0.3004  0.0935 -0.0663
    7SAPS   H9X  902   0.078   1.993  58.156 -0.7977 -0.0158  0.1657
    7SAPS   H9Y  903   0.043   1.836  58.068  5.1173 -0.2621 -0.8504
    7SAPS  C310  904  -0.104   1.982  58.030  0.8128 -0.2522  0.2011
    7SAPS  H10X  905  -0.170   1.945  58.112 -2.5412  2.4602 -1.0085
    7SAPS  H10Y  906  -0.123   1.934  57.932 -2.1025  1.8075 -0.3855
    7SAPS  C311  907  -0.123   2.136  58.033 -0.3122 -0.5086  0.5396
    7SAPS  H11X  908  -0.065   2.189  57.954  1.5466 -1.6695  1.0432
    7SAPS  H11Y  909  -0.061   2.159  58.123  3.0151 -0.7709 -1.5037
    7SAPS  C312  910  -0.266   2.189  58.031 -0.6271 -0.4589 -0.0587
    7SAPS  H12X  911  -0.311   2.137  57.944  2.3332 -0.6124 -1.6109
    7SAPS  H12Y  912  -0.243   2.297  58.020  2.1016 -0.9634 -0.0275
    7SAPS  C313  913  -0.344   2.189  58.165 -0.3702 -0.1715 -0.7116
    7SAPS  H13X  914  -0.272   2.244  58.228 -3.7365  1.5084  1.9684
    7SAPS  H13Y  915  -0.345   2.081  58.191  2.1324  0.1796  1.2495
    7SAPS  C314  916  -0.481   2.254  58.160 -0.1719 -0.0631  0.2617
    7SAPS  H14X  917  -0.483   2.364  58.145 -0.8666 -0.0884  0.1583
    7SAPS  H14Y  918  -0.524   2.220  58.256 -0.0951 -1.0831 -0.0476
    7SAPS  C315  919  -0.555   2.186  58.054 -0.5787 -0.1727  0.1448
    7SAPS  H15X  920  -0.561   2.080  58.087  4.1768 -0.9038 -0.6393
    7SAPS  H15Y  921  -0.518   2.194  57.949  0.4574  1.5001  0.6056
    7SAPS  C316  922  -0.701   2.233  58.059  0.7258 -0.2745  0.0675
    7SAPS  H16X  923  -0.720   2.328  58.005 -0.5529 -2.1443 -3.0317
    7SAPS  H16Y  924  -0.717   2.252  58.167  1.1080  1.5445 -0.1490
    7SAPS  C317  925  -0.808   2.147  57.999 -0.0217 -0.1389  0.1020
    7SAPS  H17X  926  -0.895   2.216  57.990  1.1781  1.4907  0.5132
    7SAPS  H17Y  927  -0.841   2.076  58.078  1.5514 -0.3610  0.5908
    7SAPS  C318  928  -0.769   2.076  57.871 -0.7723  0.4283 -0.4526
    7SAPS  H18X  929  -0.848   2.007  57.836  1.1888 -0.7035 -3.0122
    7SAPS  H18Y  930  -0.678   2.013  57.886  0.0861  1.3580 -1.5092
    7SAPS  H18Z  931  -0.730   2.138  57.788  3.9132 -3.0023 -1.2473
    8SAPS     N  932   2.577   2.410  63.192 -0.2168  0.6026  0.6001
    8SAPS   HN1  933   2.663   2.400  63.250 -1.1650  0.9813  2.1233
    8SAPS   HN2  934   2.602   2.382  63.096  3.1330  1.6629  1.0570
    8SAPS   HN3  935   2.569   2.513  63.195  6.3938  1.5332  0.2086
    8SAPS   C12  936   2.478   2.308  63.255 -0.8623 -1.1266  0.2856
    8SAPS  H12A  937   2.394   2.367  63.220 -0.9379  1.0503  3.6612
    8SAPS   C13  938   2.488   2.167  63.203 -0.0739 -0.5804 -0.1924
    8SAPS  O13A  939   2.581   2.141  63.120 -0.3769  0.2117  0.2872
    8SAPS  O13B  940   2.401   2.085  63.242  0.7267  0.0196 -0.2050
    8SAPS   C11  941   2.474   2.314  63.409 -0.5694  0.5025 -0.7724
    8SAPS  H11A  942   2.569   2.291  63.462  0.2864  1.0022 -2.0168
    8SAPS  H11B  943   2.398   2.246  63.452 -1.9011  2.5016  0.1580
    8SAPS     P  944   2.527   2.552  63.525 -0.1027  0.1767  0.0387
    8SAPS   O13  945   2.665   2.531  63.487 -0.1234  0.0190 -1.0066
    8SAPS   O14  946   2.471   2.689  63.510 -0.3338 -0.5006 -0.3676
    8SAPS   O12  947   2.437   2.453  63.433 -0.1932  0.8562 -0.3737
    8SAPS   O11  948   2.507   2.496  63.674 -0.5260 -0.0232 -0.0843
    8SAPS    C1  949   2.397   2.413  63.712 -0.1332  0.2561 -0.3732
    8SAPS    HA  950   2.304   2.465  63.679 -1.8007 -1.2183  1.7371
    8SAPS    HB  951   2.388   2.318  63.655  1.3815 -0.0185 -0.1977
    8SAPS    C2  952   2.395   2.408  63.864 -0.7253  0.0478 -0.9177
    8SAPS    HS  953   2.295   2.378  63.900 -0.6524  3.5430  2.9779
    8SAPS   O21  954   2.424   2.545  63.907  0.4648 -0.1108 -0.5160
    8SAPS   C21  955   2.331   2.642  63.878 -0.9667 -0.2414  0.8684
    8SAPS   O22  956   2.214   2.619  63.852  0.1209  0.0821  0.0350
    8SAPS   C22  957   2.382   2.782  63.887 -0.8239  0.0617 -0.4562
    8SAPS   H2R  958   2.486   2.778  63.849 -0.8080 -1.3945 -0.3070
    8SAPS   H2S  959   2.327   2.854  63.823  0.0790 -0.4567 -1.8606
    8SAPS    C3  960   2.509   2.315  63.911 -0.8710 -0.8280 -0.2182
    8SAPS    HX  961   2.607   2.358  63.880 -0.7689  0.0003  1.1562
    8SAPS    HY  962   2.501   2.216  63.861  0.6096 -1.6128  0.9934
    8SAPS   O31  963   2.497   2.301  64.059  0.0019 -0.0004 -0.3346
    8SAPS   C31  964   2.577   2.205  64.106 -0.3579 -0.4970 -0.4146
    8SAPS   O32  965   2.652   2.132  64.048  0.7385 -0.2944  0.6839
    8SAPS   C32  966   2.557   2.218  64.256  0.3971  0.2391 -0.6220
    8SAPS   H2X  967   2.486   2.144  64.299 -0.9313  0.8841 -1.6207
    8SAPS   H2Y  968   2.523   2.321  64.280 -0.2266 -0.2300  0.5715
    8SAPS   C23  969   2.379   2.845  64.032 -0.2577  0.3235  0.2964
    8SAPS   H3R  970   2.435   2.780  64.101 -0.8203 -2.1059 -1.4267
    8SAPS   H3S  971   2.276   2.841  64.074 -1.4661  3.6024 -1.9060
    8SAPS   C24  972   2.433   2.988  64.043  0.2466  0.8761 -0.0163
    8SAPS   H4R  973   2.420   3.038  64.141  3.0338 -2.6884  2.4644
    8SAPS   H4S  974   2.368   3.042  63.972  1.8828  0.0012 -2.3121
    8SAPS   C25  975   2.577   3.001  64.007 -0.3678 -0.7289 -0.0180
    8SAPS   H5R  976   2.608   3.012  63.902  0.3819 -0.7282  0.1995
    8SAPS   C26  977   2.673   3.004  64.091  0.0010 -0.8328 -0.2113
    8SAPS   H6R  978   2.778   3.008  64.060 -0.0257  0.2974 -0.1997
    8SAPS   C27  979   2.648   3.008  64.241 -0.1445  0.8518  0.4114
    8SAPS   H7R  980   2.743   2.968  64.283 -1.6820  0.1288  3.5562
    8SAPS   H7S  981   2.556   2.948  64.255 -1.3847  2.9501  1.7477
    8SAPS   C28  982   2.635   3.143  64.300  0.6371 -0.3251 -0.4415
    8SAPS   H8R  983   2.700   3.221  64.259  2.0437  1.1880  4.0812
    8SAPS   C29  984   2.562   3.167  64.412 -0.6376  0.7192  0.3647
    8SAPS   H9R  985   2.572   3.274  64.436  0.7242  1.1847 -1.9422
    8SAPS  C210  986   2.457   3.077  64.475  0.8046 -0.1374 -0.5758
    8SAPS  H10R  987   2.412   2.998  64.412 -1.4590 -2.1795  3.2011
    8SAPS  H10S  988   2.367   3.139  64.494  1.0723  1.0759 -2.9661
    8SAPS  C211  989   2.505   3.009  64.601  0.3580  0.7365  0.2535
    8SAPS  H11R  990   2.573   2.923  64.586  1.8152  1.9387 -0.2474
    8SAPS  C212  991   2.450   3.016  64.725 -0.1506 -0.1132 -0.9876
    8SAPS  H12R  992   2.491   2.966  64.814 -2.4794  1.9011  1.3561
    8SAPS  C213  993   2.335   3.106  64.767 -0.1843  0.7168 -0.3119
    8SAPS  H13R  994   2.258   3.095  64.687  1.7912  0.7048 -2.3245
    8SAPS  H13S  995   2.361   3.212  64.746 -1.0518  0.6797 -1.7126
    8SAPS  C214  996   2.263   3.089  64.901  0.0016  0.1742 -0.4419
    8SAPS  H14R  997   2.325   3.032  64.972 -0.1468  0.3779 -0.1559
    8SAPS  C215  998   2.129   3.120  64.914 -0.3226 -0.2144  0.4913
    8SAPS  H15R  999   2.075   3.109  65.009 -0.1747  0.5335  0.6717
    8SAPS  C216 1000   2.043   3.198  64.813  0.3505 -0.0111 -0.3898
    8SAPS  H16R 1001   2.033   3.157  64.711  0.9580 -0.2516 -0.3574
    8SAPS  H16S 1002   2.099   3.294  64.810 -1.2551  0.9365 -2.1328
    8SAPS  C217 1003   1.901   3.239  64.857 -0.4713  0.3043 -0.0279
    8SAPS  H17R 1004   1.866   3.326  64.797 -1.0216  0.1551  0.0711
    8SAPS  H17S 1005   1.913   3.267  64.963 -1.5731  1.4306 -0.1791
    8SAPS  C218 1006   1.788   3.122  64.852 -0.6132  0.9578 -0.2015
    8SAPS  H18R 1007   1.784   3.071  64.950 -0.9112  1.5798  0.1257
    8SAPS  H18S 1008   1.822   3.065  64.763  0.0120  1.8233 -0.5289
    8SAPS  C219 1009   1.660   3.192  64.828  0.6441 -0.1652 -0.2250
    8SAPS  H19R 1010   1.659   3.233  64.725  0.3314  2.1931  0.6581
    8SAPS  H19S 1011   1.644   3.273  64.902  1.7830 -1.6637  1.7721
    8SAPS  C220 1012   1.540   3.100  64.823  0.4000 -0.4766 -0.6551
    8SAPS  H20R 1013   1.517   3.042  64.915 -1.0440  1.1794  0.0837
    8SAPS  H20S 1014   1.564   3.022  64.747 -1.9307 -1.1773 -0.7711
    8SAPS  H20T 1015   1.438   3.143  64.812  1.0383  2.2894  2.5086
    8SAPS   C33 1016   2.687   2.183  64.327 -0.0071  0.0861 -0.2297
    8SAPS   H3X 1017   2.754   2.272  64.320 -1.4746  1.4593  1.8138
    8SAPS   H3Y 1018   2.738   2.095  64.282  0.3418  0.5922 -0.8365
    8SAPS   C34 1019   2.688   2.159  64.479  0.0611  0.3002 -0.4414
    8SAPS   H4X 1020   2.667   2.257  64.528 -3.1583 -1.3617  1.8899
    8SAPS   H4Y 1021   2.783   2.107  64.505 -0.9060 -0.3001  2.2673
    8SAPS   C35 1022   2.571   2.071  64.534  0.4311 -0.4855  0.1369
    8SAPS   H5X 1023   2.566   1.977  64.475 -2.7132 -1.0245  1.0810
    8SAPS   H5Y 1024   2.470   2.114  64.512  1.2867  3.3457  2.6962
    8SAPS   C36 1025   2.578   2.024  64.688 -0.5293 -0.4318  0.3191
    8SAPS   H6X 1026   2.470   2.015  64.711 -1.0792 -0.1270 -1.8716
    8SAPS   H6Y 1027   2.608   2.103  64.760 -1.3979  1.5192 -1.3322
    8SAPS   C37 1028   2.655   1.896  64.701 -0.4182  1.1609  0.8151
    8SAPS   H7X 1029   2.764   1.914  64.687  0.4143 -3.2949  0.1182
    8SAPS   H7Y 1030   2.655   1.816  64.624 -1.3662  1.9918 -0.0707
    8SAPS   C38 1031   2.624   1.805  64.825  0.9762 -0.4375  0.2787
    8SAPS   H8X 1032   2.637   1.698  64.800 -1.2366 -0.3013 -1.7150
    8SAPS   H8Y 1033   2.521   1.818  64.863 -0.8748 -0.8889 -4.0840
    8SAPS   C39 1034   2.728   1.841  64.939  0.3260  0.5097 -0.2547
    8SAPS   H9X 1035   2.695   1.939  64.979 -0.8453 -0.3747  1.0205
    8SAPS   H9Y 1036   2.833   1.853  64.902  1.1143  2.0136  2.2624
    8SAPS  C310 1037   2.728   1.724  65.040 -0.5164  1.2759 -0.3009
    8SAPS  H10X 1038   2.791   1.646  64.993  1.4737  1.9675  1.0886
    8SAPS  H10Y 1039   2.623   1.692  65.055 -0.0250 -2.3702 -3.2112
    8SAPS  C311 1040   2.825   1.756  65.160  1.2477  0.2206  0.1316
    8SAPS  H11X 1041   2.783   1.845  65.213  1.1885  1.7061 -2.2477
    8SAPS  H11Y 1042   2.923   1.781  65.114  1.7573  0.1472  1.1679
    8SAPS  C312 1043   2.823   1.646  65.260 -0.0947  0.5687 -0.1346
    8SAPS  H12X 1044   2.826   1.551  65.203  0.6456  1.3193 -1.3875
    8SAPS  H12Y 1045   2.743   1.650  65.337 -0.5081  1.8983 -0.6162
    8SAPS  C313 1046   2.953   1.668  65.336 -1.4414 -0.4935  0.5476
    8SAPS  H13X 1047   2.957   1.769  65.382 -1.6300 -0.2792  0.1059
    8SAPS  H13Y 1048   3.039   1.656  65.266 -1.3599  1.2914  0.2887
    8SAPS  C314 1049   2.961   1.563  65.451 -0.3218  0.7425  0.5701
    8SAPS  H14X 1050   2.986   1.467  65.400  0.9030  1.8625 -1.0488
    8SAPS  H14Y 1051   2.860   1.546  65.495  0.0709 -3.8776  0.2194
    8SAPS  C315 1052   3.067   1.582  65.562 -0.0310  0.4774 -0.0308
    8SAPS  H15X 1053   3.172   1.574  65.528 -1.1324 -0.7633 -3.5840
    8SAPS  H15Y 1054   3.065   1.489  65.624  4.4324  0.1630 -0.0761
    8SAPS  C316 1055   3.044   1.709  65.651 -0.6011 -0.2932 -0.1125
    8SAPS  H16X 1056   2.936   1.732  65.665  0.2381  3.8436  0.8370
    8SAPS  H16Y 1057   3.092   1.787  65.588  0.9998 -2.4009 -1.6443
    8SAPS  C317 1058   3.114   1.697  65.787  0.2266 -0.1277  1.2632
    8SAPS  H17X 1059   3.217   1.657  65.777 -0.2462 -0.8713 -1.3324
    8SAPS  H17Y 1060   3.063   1.624  65.853 -0.5684 -0.3564  0.4214
    8SAPS  C318 1061   3.132   1.826  65.867  0.2916  0.5052  1.1289
    8SAPS  H18X 1062   3.192   1.899  65.809  0.9753 -1.6128 -0.9908
    8SAPS  H18Y 1063   3.190   1.813  65.961  0.7676 -0.6738  0.6805
    8SAPS  H18Z 1064   3.031   1.867  65.891 -0.6271 -0.0678 -1.4736
    9SAPS     N 1065   2.019   0.425  41.579 -0.5006  0.2725 -0.2169
    9SAPS   HN1 1066   1.983   0.364  41.654 -0.3811 -0.5895 -0.8407
    9SAPS   HN2 1067   2.087   0.373  41.520 -0.1688  1.1887 -0.6803
    9SAPS   HN3 1068   2.076   0.500  41.623  0.2009 -0.9394  0.9961
    9SAPS   C12 1069   1.909   0.490  41.508  0.3513 -0.5563 -0.3558
    9SAPS  H12A 1070   1.847   0.414  41.462 -0.5208 -0.9237  1.3628
    9SAPS   C13 1071   1.804   0.572  41.593  0.5647 -0.2659 -0.0790
    9SAPS  O13A 1072   1.833   0.601  41.711  0.6742  0.0659 -0.1592
    9SAPS  O13B 1073   1.706   0.623  41.534  0.0753  0.0494 -0.0674
    9SAPS   C11 1074   1.967   0.591  41.396 -0.0996 -0.0662 -0.0031
    9SAPS  H11A 1075   2.030   0.667  41.448 -0.4182 -0.1467  0.5089
    9SAPS  H11B 1076   1.887   0.649  41.346 -1.1885 -2.2978 -0.9805
    9SAPS     P 1077   2.010   0.439  41.181 -0.1040 -0.3019 -0.4122
    9SAPS   O13 1078   2.084   0.467  41.059  0.0223 -0.1466  0.2725
    9SAPS   O14 1079   2.019   0.300  41.223  0.8518  0.7131 -0.2393
    9SAPS   O12 1080   2.051   0.526  41.303 -0.0434  0.3657 -0.1230
    9SAPS   O11 1081   1.862   0.487  41.162 -0.0450 -0.7923 -0.2584
    9SAPS    C1 1082   1.825   0.566  41.041  0.5666 -0.0350  0.2420
    9SAPS    HA 1083   1.874   0.540  40.945 -0.5881 -2.6412  0.2693
    9SAPS    HB 1084   1.722   0.535  41.014  1.0755 -2.3093  0.6681
    9SAPS    C2 1085   1.841   0.717  41.063 -0.6084 -0.4285 -0.4211
    9SAPS    HS 1086   1.937   0.720  41.118 -0.1548 -1.0896 -1.1464
    9SAPS   O21 1087   1.717   0.768  41.121 -0.3034  0.2212  0.2132
    9SAPS   C21 1088   1.736   0.848  41.222 -0.0634  0.3292 -0.4594
    9SAPS   O22 1089   1.845   0.890  41.264  0.5450  0.7308  0.0960
    9SAPS   C22 1090   1.600   0.884  41.279  0.4461 -0.3084 -0.4662
    9SAPS   H2R 1091   1.519   0.843  41.215 -0.4267  2.6606 -1.4204
    9SAPS   H2S 1092   1.584   0.851  41.384  0.3396  2.6163  0.5270
    9SAPS    C3 1093   1.870   0.787  40.926 -0.1624  0.0105  0.2607
    9SAPS    HX 1094   1.781   0.786  40.860  0.4613 -1.2098 -0.6077
    9SAPS    HY 1095   1.950   0.719  40.890 -0.8991 -0.8197  0.1901
    9SAPS   O31 1096   1.905   0.922  40.946 -0.6051  0.0912  0.2944
    9SAPS   C31 1097   2.037   0.947  40.958  0.5931  0.1200 -0.5452
    9SAPS   O32 1098   2.119   0.858  40.955  0.2198  0.0683  0.2421
    9SAPS   C32 1099   2.062   1.091  40.976 -0.3652  0.9327  1.4276
    9SAPS   H2X 1100   2.169   1.114  40.999  0.2079  2.0466 -1.8014
    9SAPS   H2Y 1101   2.007   1.132  41.063 -4.2709 -0.6577 -0.0893
    9SAPS   C23 1102   1.571   1.034  41.290  0.1683  0.1724 -0.2559
    9SAPS   H3R 1103   1.661   1.081  41.335 -0.2167  1.2414 -0.5785
    9SAPS   H3S 1104   1.482   1.058  41.353 -1.0083 -0.3888 -1.6315
    9SAPS   C24 1105   1.549   1.098  41.144 -0.7899 -0.1600  0.5409
    9SAPS   H4R 1106   1.453   1.071  41.094 -1.2222  1.7484  0.2844
    9SAPS   H4S 1107   1.638   1.063  41.088 -0.2949 -0.4143  1.4551
    9SAPS   C25 1108   1.539   1.243  41.149  0.6628  0.0215 -0.4831
    9SAPS   H5R 1109   1.511   1.291  41.244 -0.0173 -0.7582 -0.2808
    9SAPS   C26 1110   1.580   1.332  41.051  0.3110 -0.4081 -1.0462
    9SAPS   H6R 1111   1.568   1.439  41.072 -0.3294 -0.2114 -2.3251
    9SAPS   C27 1112   1.635   1.308  40.915 -0.3788 -0.2797 -0.1817
    9SAPS   H7R 1113   1.588   1.217  40.871 -2.2053 -0.4767  1.9868
    9SAPS   H7S 1114   1.740   1.288  40.945 -0.7444  0.9288  2.1387
    9SAPS   C28 1115   1.630   1.423  40.809  0.8083  0.3750 -0.2128
    9SAPS   H8R 1116   1.631   1.521  40.858 -0.9791  0.0433  0.5578
    9SAPS   C29 1117   1.618   1.408  40.675 -0.1754 -0.1701  0.8673
    9SAPS   H9R 1118   1.598   1.489  40.603 -1.3230 -0.7156  0.5416
    9SAPS  C210 1119   1.613   1.274  40.609  0.0992  0.1010 -0.3504
    9SAPS  H10R 1120   1.512   1.229  40.620  0.9460 -1.2327  3.2484
    9SAPS  H10S 1121   1.683   1.206  40.661  1.1851  0.7838 -0.8881
    9SAPS  C211 1122   1.654   1.273  40.466  0.6798 -0.3343  0.4152
    9SAPS  H11R 1123   1.657   1.375  40.425 -1.5857  0.6773  2.5289
    9SAPS  C212 1124   1.669   1.162  40.394  0.4578  0.4658  0.5630
    9SAPS  H12R 1125   1.668   1.184  40.286 -0.8691 -0.9570  0.2665
    9SAPS  C213 1126   1.639   1.017  40.433  0.2939  0.1947 -0.0120
    9SAPS  H13R 1127   1.692   1.004  40.529  0.7423  0.4792 -0.2147
    9SAPS  H13S 1128   1.710   0.963  40.367  0.6625  0.6250  0.0353
    9SAPS  C214 1129   1.487   0.976  40.420 -0.2793 -0.0526  0.0810
    9SAPS  H14R 1130   1.448   0.945  40.323  0.5574  1.1406 -0.6652
    9SAPS  C215 1131   1.409   0.939  40.518  0.1835  0.2735 -0.4334
    9SAPS  H15R 1132   1.305   0.916  40.489 -0.8419  1.6496  1.8392
    9SAPS  C216 1133   1.432   0.957  40.670 -0.0979  1.2007  0.3900
    9SAPS  H16R 1134   1.379   1.049  40.703 -0.1628  1.0526  0.7059
    9SAPS  H16S 1135   1.540   0.959  40.696 -0.0183 -3.3308  1.0736
    9SAPS  C217 1136   1.380   0.832  40.741 -0.1903 -0.2068  0.5001
    9SAPS  H17R 1137   1.270   0.835  40.727 -0.0742  0.5839 -0.3485
    9SAPS  H17S 1138   1.399   0.850  40.849 -1.2747  1.7256  0.4115
    9SAPS  C218 1139   1.447   0.704  40.689  0.1678  0.2197 -0.0075
    9SAPS  H18R 1140   1.553   0.728  40.665  1.2853 -2.0080  2.2406
    9SAPS  H18S 1141   1.411   0.668  40.590  0.2934 -4.6823  1.5014
    9SAPS  C219 1142   1.427   0.589  40.783  0.2426  0.1469 -0.3753
    9SAPS  H19R 1143   1.320   0.576  40.809  0.6749 -0.5591  1.1633
    9SAPS  H19S 1144   1.480   0.624  40.874 -0.1487 -1.0602  0.3366
    9SAPS  C220 1145   1.508   0.462  40.744  0.0486  0.3494 -0.3689
    9SAPS  H20R 1146   1.485   0.393  40.828 -1.5948  1.8373  0.4707
    9SAPS  H20S 1147   1.615   0.493  40.745  0.5005 -1.0525  1.6938
    9SAPS  H20T 1148   1.457   0.445  40.647 -3.5639 -1.3548  1.6407
    9SAPS   C33 1149   2.015   1.173  40.856  0.1578 -0.0985  0.1664
    9SAPS   H3X 1150   1.913   1.141  40.825 -0.3294  0.3649  1.2481
    9SAPS   H3Y 1151   2.084   1.148  40.772  1.8102  0.1186  1.4135
    9SAPS   C34 1152   2.036   1.333  40.867  0.0127  0.3536  0.6377
    9SAPS   H4X 1153   2.129   1.357  40.924  1.0256  0.9677 -1.1874
    9SAPS   H4Y 1154   1.951   1.369  40.927 -0.3197 -0.1869  0.4915
    9SAPS   C35 1155   2.030   1.388  40.726 -0.7026 -0.0245  0.1333
    9SAPS   H5X 1156   1.935   1.363  40.676 -1.5194  0.1647  1.5206
    9SAPS   H5Y 1157   2.103   1.344  40.656  0.7497  0.2972  1.3851
    9SAPS   C36 1158   2.028   1.541  40.723  0.4917  0.0857 -0.4980
    9SAPS   H6X 1159   1.956   1.584  40.796 -0.9718  0.2298 -1.9711
    9SAPS   H6Y 1160   1.980   1.579  40.630 -0.1387  3.9390  1.2064
    9SAPS   C37 1161   2.166   1.600  40.730 -0.0036 -0.2875 -0.2518
    9SAPS   H7X 1162   2.201   1.566  40.830  0.3049 -0.0636 -0.2824
    9SAPS   H7Y 1163   2.158   1.711  40.740 -0.5111 -0.3563  0.1874
    9SAPS   C38 1164   2.268   1.574  40.616 -0.2671  0.5329 -0.4320
    9SAPS   H8X 1165   2.278   1.662  40.548  1.0094 -0.7796 -2.0463
    9SAPS   H8Y 1166   2.223   1.487  40.564  0.4627 -0.4212  0.4854
    9SAPS   C39 1167   2.403   1.510  40.658 -0.7027 -0.2101 -0.5976
    9SAPS   H9X 1168   2.392   1.418  40.718  1.9694  0.4695  1.0849
    9SAPS   H9Y 1169   2.459   1.581  40.723  0.2440  0.0172 -1.6276
    9SAPS  C310 1170   2.485   1.475  40.533  0.2941  0.1033  0.6547
    9SAPS  H10X 1171   2.434   1.395  40.475  0.0276  1.4860 -1.1193
    9SAPS  H10Y 1172   2.588   1.451  40.565  0.0560 -0.2396  1.1737
    9SAPS  C311 1173   2.504   1.597  40.438  0.6043  0.6379 -0.4250
    9SAPS  H11X 1174   2.551   1.679  40.496 -2.4405  1.7057  0.6851
    9SAPS  H11Y 1175   2.405   1.630  40.399  0.3718  1.5472  0.9028
    9SAPS  C312 1176   2.596   1.560  40.321  0.6556 -0.2632 -0.2840
    9SAPS  H12X 1177   2.548   1.504  40.238 -1.4234  2.0185 -0.7389
    9SAPS  H12Y 1178   2.685   1.504  40.357  0.9848  0.4203 -0.0042
    9SAPS  C313 1179   2.663   1.686  40.256  0.6700 -0.7416  0.3750
    9SAPS  H13X 1180   2.754   1.656  40.199  2.6324  1.3775  2.2147
    9SAPS  H13Y 1181   2.691   1.752  40.340 -2.3334  1.2853 -0.0848
    9SAPS  C314 1182   2.552   1.762  40.174 -0.5682 -0.4192 -0.6210
    9SAPS  H14X 1183   2.447   1.758  40.212 -0.5778 -0.1648 -0.6184
    9SAPS  H14Y 1184   2.558   1.724  40.070  1.7332 -1.2652 -0.2310
    9SAPS  C315 1185   2.565   1.914  40.188 -0.6264 -0.1015  0.7705
    9SAPS  H15X 1186   2.539   1.942  40.292 -2.2545 -0.9206  0.6240
    9SAPS  H15Y 1187   2.484   1.961  40.128 -1.5203 -1.4679  0.8659
    9SAPS  C316 1188   2.705   1.961  40.140 -0.3749 -0.1825  0.0991
    9SAPS  H16X 1189   2.732   1.900  40.052  1.3744 -0.6599  0.9216
    9SAPS  H16Y 1190   2.775   1.938  40.224  0.4586 -0.0256 -0.5476
    9SAPS  C317 1191   2.718   2.111  40.111  0.4276  0.1392  0.0189
    9SAPS  H17X 1192   2.698   2.176  40.199  0.5279  0.6287 -0.3174
    9SAPS  H17Y 1193   2.641   2.144  40.038  0.6340 -0.5238 -0.5140
    9SAPS  C318 1194   2.854   2.138  40.052 -0.2569  0.5619 -0.6960
    9SAPS  H18X 1195   2.849   2.247  40.028 -2.1993  1.2170  2.2126
    9SAPS  H18Y 1196   2.882   2.070  39.969 -0.6573 -0.9009  0.3403
    9SAPS  H18Z 1197   2.939   2.130  40.123  0.8231 -0.1540 -2.0299
   10SAPS     N 1198   2.608   0.375  41.580 -0.0838 -0.2075 -0.5669
   10SAPS   HN1 1199   2.670   0.310  41.631  1.4589  1.4906 -0.1809
   10SAPS   HN2 1200   2.578   0.339  41.487 -2.6706 -0.6752  0.3812
   10SAPS   HN3 1201   2.657   0.467  41.575 -2.2644  1.1293  0.8170
   10SAPS   C12 1202   2.481   0.392  41.657 -0.0517 -0.0023 -0.4754
   10SAPS  H12A 1203   2.419   0.451  41.591 -0.1036  0.9892  0.4458
   10SAPS   C13 1204   2.402   0.255  41.683 -0.8714 -0.0475 -0.2583
   10SAPS  O13A 1205   2.458   0.145  41.650  0.1086  0.1490  0.0879
   10SAPS  O13B 1206   2.282   0.261  41.723  0.2092 -0.4025  0.2695
   10SAPS   C11 1207   2.510   0.459  41.791 -0.2041  0.2510 -0.6231
   10SAPS  H11A 1208   2.415   0.482  41.846 -0.6014  0.1508 -1.2576
   10SAPS  H11B 1209   2.561   0.557  41.775  2.4720 -1.1329 -0.9828
   10SAPS     P 1210   2.591   0.353  42.025 -0.0470 -0.2817 -0.3935
   10SAPS   O13 1211   2.451   0.348  42.079 -0.3611 -0.6878  0.1291
   10SAPS   O14 1212   2.680   0.242  42.065  0.0283  0.4040  0.4614
   10SAPS   O12 1213   2.593   0.365  41.866 -0.6775 -0.3703 -0.1367
   10SAPS   O11 1214   2.658   0.494  42.056  0.2026 -0.0087  0.0503
   10SAPS    C1 1215   2.797   0.507  42.079  0.4931 -0.2876 -0.1914
   10SAPS    HA 1216   2.823   0.502  42.187  0.2340  1.1770 -0.0340
   10SAPS    HB 1217   2.853   0.426  42.028  0.3862  0.4871 -1.5720
   10SAPS    C2 1218   2.857   0.647  42.054  0.0532 -0.2268  1.0434
   10SAPS    HS 1219   2.958   0.640  42.009  0.6188 -0.5687  2.3269
   10SAPS   O21 1220   2.855   0.738  42.169  0.7263 -0.1549  0.1406
   10SAPS   C21 1221   2.947   0.721  42.256 -0.6721 -0.5660 -0.1748
   10SAPS   O22 1222   3.043   0.648  42.245  0.2421  0.4074  0.1811
   10SAPS   C22 1223   2.919   0.803  42.382 -0.5803  0.8696 -0.6702
   10SAPS   H2R 1224   2.940   0.910  42.359 -0.8338  1.3006  0.9358
   10SAPS   H2S 1225   2.813   0.804  42.415 -0.2868  0.3614  0.3157
   10SAPS    C3 1226   2.786   0.721  41.947  0.1805  0.0964  0.1492
   10SAPS    HX 1227   2.692   0.763  41.988 -0.5710 -1.0079 -0.3898
   10SAPS    HY 1228   2.762   0.646  41.868 -2.4732 -0.4092  1.3483
   10SAPS   O31 1229   2.877   0.827  41.906  0.3884  0.3184 -0.2519
   10SAPS   C31 1230   2.883   0.834  41.769 -0.3807  0.4500 -0.6640
   10SAPS   O32 1231   2.839   0.753  41.693  0.5522  0.0722  0.2063
   10SAPS   C32 1232   2.976   0.951  41.728  0.2521  0.1557 -0.5427
   10SAPS   H2X 1233   3.033   0.983  41.818 -0.4259 -2.7153  1.0693
   10SAPS   H2Y 1234   2.909   1.032  41.694 -1.6775 -0.9561  0.3902
   10SAPS   C23 1235   3.010   0.757  42.494 -0.2437 -0.4403  0.5341
   10SAPS   H3R 1236   2.995   0.823  42.582  0.2276 -0.6021  0.7440
   10SAPS   H3S 1237   3.115   0.758  42.456 -0.7631 -1.3926 -0.9863
   10SAPS   C24 1238   2.982   0.618  42.551  1.0057 -0.6500  0.0779
   10SAPS   H4R 1239   3.071   0.593  42.612  1.8185  0.1792 -0.7412
   10SAPS   H4S 1240   2.971   0.550  42.464 -0.3878 -2.7336  1.7484
   10SAPS   C25 1241   2.851   0.606  42.633  0.4486 -0.0300 -0.6930
   10SAPS   H5R 1242   2.759   0.611  42.573 -0.1745 -1.5592  0.0761
   10SAPS   C26 1243   2.827   0.581  42.763 -0.4062  1.3267 -0.5511
   10SAPS   H6R 1244   2.724   0.593  42.801  0.0137  1.3336  0.6316
   10SAPS   C27 1245   2.922   0.550  42.876 -0.2335 -0.3326 -0.3104
   10SAPS   H7R 1246   2.941   0.647  42.927  0.5531 -0.0278 -1.1617
   10SAPS   H7S 1247   3.022   0.528  42.834  0.2028  1.6189 -0.3702
   10SAPS   C28 1248   2.863   0.455  42.977  0.3373  0.1469  0.2288
   10SAPS   H8R 1249   2.843   0.355  42.936 -0.0677  1.3399 -2.7152
   10SAPS   C29 1250   2.844   0.474  43.109  0.6181 -1.2878  0.0706
   10SAPS   H9R 1251   2.792   0.394  43.163 -1.3369 -0.1306  0.0281
   10SAPS  C210 1252   2.872   0.592  43.208 -0.0815  0.5822 -0.2594
   10SAPS  H10R 1253   2.961   0.655  43.188 -0.1176  1.4216  1.9877
   10SAPS  H10S 1254   2.891   0.548  43.308  0.5024  0.1855 -0.5446
   10SAPS  C211 1255   2.749   0.679  43.220  0.1827 -0.1416 -0.6090
   10SAPS  H11R 1256   2.754   0.760  43.145  2.2739  0.8969  0.5699
   10SAPS  C212 1257   2.647   0.675  43.312 -0.3729  0.8203  0.0344
   10SAPS  H12R 1258   2.570   0.753  43.314  0.7785  2.0157  2.4669
   10SAPS  C213 1259   2.629   0.574  43.428 -0.1302 -0.6726 -0.2061
   10SAPS  H13R 1260   2.640   0.635  43.520  0.3337  1.9018 -1.8520
   10SAPS  H13S 1261   2.713   0.501  43.431  0.3403 -0.1009  1.9193
   10SAPS  C214 1262   2.497   0.508  43.424 -0.3239  0.3258  0.1616
   10SAPS  H14R 1263   2.494   0.430  43.347  1.9228  0.3283  0.0111
   10SAPS  C215 1264   2.384   0.530  43.501 -0.2892  0.3621 -0.2953
   10SAPS  H15R 1265   2.289   0.483  43.470 -1.0434  1.9263 -0.4446
   10SAPS  C216 1266   2.361   0.631  43.604 -0.4772  0.2311 -0.0657
   10SAPS  H16R 1267   2.453   0.686  43.633 -0.3378 -0.9857  1.9600
   10SAPS  H16S 1268   2.324   0.571  43.689 -0.9273 -0.2929 -0.6204
   10SAPS  C217 1269   2.251   0.745  43.593 -0.7864  0.0525 -0.0431
   10SAPS  H17R 1270   2.260   0.794  43.692  0.9420  1.0106 -0.6307
   10SAPS  H17S 1271   2.152   0.695  43.581 -0.1608 -0.6600 -2.9886
   10SAPS  C218 1272   2.262   0.848  43.483 -1.4900  0.1270  0.0511
   10SAPS  H18R 1273   2.165   0.901  43.478 -1.0546  0.8536 -1.0581
   10SAPS  H18S 1274   2.295   0.812  43.384  0.3460  3.3674 -0.6624
   10SAPS  C219 1275   2.384   0.945  43.501 -0.1966  0.1000  0.6367
   10SAPS  H19R 1276   2.468   0.879  43.531  0.6181  0.6103 -0.4880
   10SAPS  H19S 1277   2.347   1.017  43.577 -2.3783  1.9164 -1.9550
   10SAPS  C220 1278   2.407   1.022  43.372 -0.0470  0.1983  0.1480
   10SAPS  H20R 1279   2.317   1.021  43.308  1.5615 -1.0535 -2.2487
   10SAPS  H20S 1280   2.475   0.968  43.303 -0.5446  0.4196 -0.5213
   10SAPS  H20T 1281   2.433   1.129  43.387  0.9899  0.1539 -1.1583
   10SAPS   C33 1282   3.077   0.913  41.621 -0.3526 -0.1290  0.0790
   10SAPS   H3X 1283   3.015   0.882  41.534 -4.0940  4.2312  0.7888
   10SAPS   H3Y 1284   3.137   0.830  41.662 -2.2938 -1.2261  0.8337
   10SAPS   C34 1285   3.169   1.033  41.590  0.2153  0.3948  0.3955
   10SAPS   H4X 1286   3.240   1.027  41.676 -0.3796  0.9112  0.9384
   10SAPS   H4Y 1287   3.106   1.124  41.592  0.0234  0.2721 -0.0594
   10SAPS   C35 1288   3.243   1.024  41.458  0.0197 -0.1899  1.1134
   10SAPS   H5X 1289   3.164   1.025  41.379  1.8706 -1.1271 -0.8560
   10SAPS   H5Y 1290   3.293   0.925  41.456 -0.4986 -0.5501 -2.9254
   10SAPS   C36 1291   3.347   1.124  41.415 -0.1548  0.3694  0.3054
   10SAPS   H6X 1292   3.390   1.081  41.322 -0.0344  0.8862  0.1251
   10SAPS   H6Y 1293   3.431   1.137  41.487  1.7602 -0.3747 -1.6792
   10SAPS   C37 1294   3.272   1.257  41.377  0.3619 -0.5874  0.6561
   10SAPS   H7X 1295   3.247   1.318  41.466 -3.5546 -2.4449  1.0416
   10SAPS   H7Y 1296   3.177   1.232  41.324  1.2386 -1.9522 -0.3467
   10SAPS   C38 1297   3.346   1.359  41.288 -0.0832  0.0186  0.5653
   10SAPS   H8X 1298   3.453   1.369  41.316  0.1138 -2.4941  0.9023
   10SAPS   H8Y 1299   3.292   1.456  41.295 -2.3452 -0.8101 -2.9238
   10SAPS   C39 1300   3.343   1.325  41.135 -0.2263 -0.1450  1.2035
   10SAPS   H9X 1301   3.240   1.309  41.096  0.6532 -0.2915 -1.2834
   10SAPS   H9Y 1302   3.415   1.243  41.118  1.5743  1.0332  2.8280
   10SAPS  C310 1303   3.393   1.447  41.048 -0.3794 -0.7434 -1.1660
   10SAPS  H10X 1304   3.487   1.496  41.081 -0.3671 -0.8489 -1.0429
   10SAPS  H10Y 1305   3.317   1.528  41.039  2.3877  2.5020  1.7191
   10SAPS  C311 1306   3.421   1.409  40.904 -0.2450  0.5831 -0.7331
   10SAPS  H11X 1307   3.345   1.334  40.872  2.0359 -1.2138 -2.2140
   10SAPS  H11Y 1308   3.512   1.352  40.876  0.7714  0.6440  2.0790
   10SAPS  C312 1309   3.411   1.536  40.815 -0.1047  0.0188  0.1715
   10SAPS  H12X 1310   3.503   1.598  40.830 -1.6725  1.9194  2.8326
   10SAPS  H12Y 1311   3.328   1.607  40.833 -0.0830  0.7250 -2.2759
   10SAPS  C313 1312   3.398   1.504  40.664 -0.6630 -0.0112  0.2748
   10SAPS  H13X 1313   3.302   1.459  40.630 -0.2024 -1.8657  1.3059
   10SAPS  H13Y 1314   3.483   1.437  40.639 -0.5611  0.3395 -0.3523
   10SAPS  C314 1315   3.414   1.633  40.580 -0.9585  0.3320  0.0033
   10SAPS  H14X 1316   3.507   1.691  40.601  0.0544 -0.6258 -1.5974
   10SAPS  H14Y 1317   3.339   1.706  40.615 -1.0714  0.4134 -0.4034
   10SAPS  C315 1318   3.408   1.619  40.425  0.3027  0.2109 -0.0491
   10SAPS  H15X 1319   3.418   1.721  40.383  1.8718 -0.3372 -1.1183
   10SAPS  H15Y 1320   3.306   1.581  40.400  0.0336  2.2309 -2.3441
   10SAPS  C316 1321   3.529   1.543  40.374 -0.6358  0.2161 -0.7250
   10SAPS  H16X 1322   3.515   1.440  40.414 -1.2246  0.6264  0.1393
   10SAPS  H16Y 1323   3.607   1.589  40.438 -2.6819  2.3783  0.3292
   10SAPS  C317 1324   3.559   1.534  40.225 -0.2531  0.6726  0.3739
   10SAPS  H17X 1325   3.665   1.509  40.203 -0.8376  0.6152 -2.9548
   10SAPS  H17Y 1326   3.545   1.634  40.178 -1.3123  0.4143  0.1122
   10SAPS  C318 1327   3.462   1.431  40.154  0.1570 -0.0075  0.5082
   10SAPS  H18X 1328   3.473   1.432  40.044 -1.3359 -0.4244  0.3265
   10SAPS  H18Y 1329   3.357   1.464  40.174 -0.6699 -1.5263 -1.0754
   10SAPS  H18Z 1330   3.483   1.328  40.188 -0.4557 -1.3939 -2.9664
   11SAPS     N 1331   2.548   0.087  41.138 -0.3338 -0.6223 -0.0138
   11SAPS   HN1 1332   2.509   0.030  41.060 -2.2000 -1.2995  1.3345
   11SAPS   HN2 1333   2.645   0.116  41.115 -0.4821  0.0525  0.1922
   11SAPS   HN3 1334   2.560   0.026  41.222  1.5425 -1.2146 -0.6711
   11SAPS   C12 1335   2.473   0.200  41.169  0.4584  0.8493  0.6524
   11SAPS  H12A 1336   2.374   0.163  41.193 -0.7196  2.8971 -0.7478
   11SAPS   C13 1337   2.531   0.281  41.287 -0.3142 -0.3273  0.2882
   11SAPS  O13A 1338   2.659   0.281  41.312 -0.5639  0.5139 -0.2177
   11SAPS  O13B 1339   2.449   0.343  41.352 -0.6650 -0.2577 -1.1936
   11SAPS   C11 1340   2.476   0.283  41.028  0.5940  0.9057 -0.3000
   11SAPS  H11A 1341   2.392   0.355  41.037  1.5362  2.2092 -1.4225
   11SAPS  H11B 1342   2.452   0.216  40.942 -1.2107 -1.7413  2.0780
   11SAPS     P 1343   2.702   0.324  40.905  0.2947  0.8512 -0.2790
   11SAPS   O13 1344   2.659   0.369  40.768 -0.2171 -0.3590 -0.5872
   11SAPS   O14 1345   2.827   0.382  40.960  0.1776  0.0794  0.4183
   11SAPS   O12 1346   2.593   0.360  41.005 -0.2229 -0.1632 -0.0829
   11SAPS   O11 1347   2.700   0.171  40.915  0.4137  0.1728  0.1128
   11SAPS    C1 1348   2.768   0.080  40.825  0.2562 -0.2065 -0.2001
   11SAPS    HA 1349   2.679   0.026  40.785 -0.9324  2.2948 -1.1891
   11SAPS    HB 1350   2.834   0.123  40.747 -0.4045 -0.5001 -0.9280
   11SAPS    C2 1351   2.869  -0.006  40.906 -0.6239  0.3467 -0.1230
   11SAPS    HS 1352   2.815  -0.060  40.987 -0.0910  2.2911  1.6199
   11SAPS   O21 1353   2.980   0.070  40.956  0.1507  0.2606 -0.0798
   11SAPS   C21 1354   2.982   0.095  41.093 -0.5008  0.2668 -0.2437
   11SAPS   O22 1355   2.901   0.055  41.176 -0.3042 -0.2132  0.0993
   11SAPS   C22 1356   3.122   0.149  41.123  0.1248 -0.5801 -0.1726
   11SAPS   H2R 1357   3.134   0.153  41.233 -1.5513 -0.0889  0.0145
   11SAPS   H2S 1358   3.188   0.072  41.078  0.3514  0.8313 -2.4320
   11SAPS    C3 1359   2.947  -0.101  40.811  0.6791 -0.1869 -0.4195
   11SAPS    HX 1360   3.024  -0.151  40.874  2.0935  2.9127  0.5391
   11SAPS    HY 1361   3.010  -0.042  40.741  2.5132 -0.9074  0.5557
   11SAPS   O31 1362   2.865  -0.191  40.733  0.0448 -0.2545 -0.3443
   11SAPS   C31 1363   2.819  -0.286  40.806  0.0025 -0.2904 -1.0303
   11SAPS   O32 1364   2.826  -0.297  40.924 -0.2921 -0.4752  0.1490
   11SAPS   C32 1365   2.736  -0.387  40.722  0.6142 -0.2724  0.2857
   11SAPS   H2X 1366   2.737  -0.366  40.613 -2.3519 -0.8367  0.0744
   11SAPS   H2Y 1367   2.634  -0.380  40.764  1.0748  1.5009  1.2082
   11SAPS   C23 1368   3.155   0.282  41.053 -1.0101  0.1008 -0.1629
   11SAPS   H3R 1369   3.084   0.367  41.062 -2.0870 -0.7807 -0.1146
   11SAPS   H3S 1370   3.152   0.259  40.944  0.2781 -0.9444  0.0059
   11SAPS   C24 1371   3.293   0.341  41.080 -1.1412 -0.1059 -0.3790
   11SAPS   H4R 1372   3.308   0.419  41.002 -0.6901  1.1971  0.9663
   11SAPS   H4S 1373   3.365   0.258  41.064 -1.6249 -0.8426  1.0890
   11SAPS   C25 1374   3.310   0.414  41.210  0.9244  0.2866  0.2933
   11SAPS   H5R 1375   3.330   0.346  41.295  2.0507 -0.1185 -0.2721
   11SAPS   C26 1376   3.288   0.543  41.234  0.4974 -0.0904 -0.5619
   11SAPS   H6R 1377   3.298   0.571  41.340  2.8436  0.3350 -0.8499
   11SAPS   C27 1378   3.239   0.653  41.133 -0.8007 -0.4935 -0.1124
   11SAPS   H7R 1379   3.144   0.690  41.177 -0.6309  1.1149 -0.9908
   11SAPS   H7S 1380   3.207   0.595  41.043 -1.3838 -2.8075  1.4968
   11SAPS   C28 1381   3.332   0.761  41.097  0.6676 -0.0251  0.4349
   11SAPS   H8R 1382   3.433   0.720  41.078  0.3755  0.2581 -2.0113
   11SAPS   C29 1383   3.306   0.888  41.064  0.2410  0.1166 -0.8095
   11SAPS   H9R 1384   3.390   0.958  41.048  0.1766 -0.1717 -2.6717
   11SAPS  C210 1385   3.176   0.955  41.081 -0.1916 -0.4668 -0.1456
   11SAPS  H10R 1386   3.202   1.063  41.085  0.9080 -0.6771 -1.0556
   11SAPS  H10S 1387   3.134   0.930  41.181  1.2545 -1.1507  0.3207
   11SAPS  C211 1388   3.079   0.934  40.973 -0.1952 -1.2561 -0.1127
   11SAPS  H11R 1389   3.054   0.833  40.937 -3.1560 -0.2543 -1.1844
   11SAPS  C212 1390   3.015   1.029  40.901 -0.3578 -0.0796  0.2301
   11SAPS  H12R 1391   2.946   0.992  40.822  1.3132 -1.3014 -0.7289
   11SAPS  C213 1392   3.040   1.174  40.913  0.7708  0.2738 -0.0142
   11SAPS  H13R 1393   3.149   1.199  40.913  0.9854 -0.5711 -0.9442
   11SAPS  H13S 1394   3.006   1.204  41.014  2.1945  3.2745 -0.3194
   11SAPS  C214 1395   2.984   1.270  40.808 -0.0722 -0.5724 -0.1250
   11SAPS  H14R 1396   2.903   1.336  40.842 -0.3841  0.5730 -2.8264
   11SAPS  C215 1397   3.017   1.264  40.679  0.0473 -0.6174  0.8629
   11SAPS  H15R 1398   2.956   1.321  40.607  1.3393 -1.9346 -1.3958
   11SAPS  C216 1399   3.113   1.168  40.616  0.3386  0.5629 -0.2918
   11SAPS  H16R 1400   3.186   1.141  40.695  0.0452  0.8460  0.0814
   11SAPS  H16S 1401   3.168   1.219  40.534  0.6950 -1.3658 -1.3150
   11SAPS  C217 1402   3.061   1.043  40.549 -0.4844  0.6186 -0.1689
   11SAPS  H17R 1403   2.999   1.072  40.461 -3.4478 -1.1127  1.2061
   11SAPS  H17S 1404   2.992   0.988  40.617  0.1929 -0.7972 -0.5887
   11SAPS  C218 1405   3.175   0.949  40.500  0.0773 -0.1459 -0.5159
   11SAPS  H18R 1406   3.239   0.897  40.575 -1.3246 -1.3134 -0.0832
   11SAPS  H18S 1407   3.238   1.004  40.427  1.6451  1.2684  1.7567
   11SAPS  C219 1408   3.107   0.834  40.427 -0.9935  1.1775  0.3098
   11SAPS  H19R 1409   3.041   0.887  40.354 -1.1114 -0.0237 -0.4971
   11SAPS  H19S 1410   3.053   0.771  40.501 -0.8822  0.3717 -0.2758
   11SAPS  C220 1411   3.200   0.735  40.348 -0.3223 -0.2323  0.5006
   11SAPS  H20R 1412   3.266   0.686  40.423  1.2976  1.7580  0.4462
   11SAPS  H20S 1413   3.264   0.790  40.276 -2.0978 -0.8663 -1.6944
   11SAPS  H20T 1414   3.147   0.662  40.283  0.4758 -0.5180  0.1527
   11SAPS   C33 1415   2.800  -0.530  40.742 -0.9483 -0.1368  0.9139
   11SAPS   H3X 1416   2.770  -0.576  40.838 -0.6160 -0.8456  0.6857
   11SAPS   H3Y 1417   2.910  -0.522  40.731 -1.1506 -0.5086 -3.3321
   11SAPS   C34 1418   2.741  -0.624  40.628 -0.0359 -0.0186  0.1346
   11SAPS   H4X 1419   2.794  -0.722  40.632 -0.2678 -0.2894 -2.0124
   11SAPS   H4Y 1420   2.766  -0.565  40.537 -2.7514 -2.3664 -2.3312
   11SAPS   C35 1421   2.583  -0.636  40.620 -0.1507 -0.0999  0.7055
   11SAPS   H5X 1422   2.561  -0.696  40.530 -2.7032  0.4682  0.8530
   11SAPS   H5Y 1423   2.533  -0.536  40.616  0.0337  0.0406  1.6623
   11SAPS   C36 1424   2.527  -0.698  40.756  0.2271 -0.5679 -0.2872
   11SAPS   H6X 1425   2.536  -0.629  40.843 -0.4088 -1.1987  0.2897
   11SAPS   H6Y 1426   2.599  -0.779  40.778  0.2617 -0.7313 -0.9861
   11SAPS   C37 1427   2.380  -0.756  40.758  0.7542 -0.5747 -0.2323
   11SAPS   H7X 1428   2.378  -0.862  40.725 -1.5169 -0.0970 -1.8534
   11SAPS   H7Y 1429   2.329  -0.695  40.680  1.7178  2.0763  1.0860
   11SAPS   C38 1430   2.303  -0.739  40.889 -0.0622  0.3483 -0.6245
   11SAPS   H8X 1431   2.353  -0.811  40.958  2.0678  0.5743 -1.8368
   11SAPS   H8Y 1432   2.199  -0.775  40.871 -1.3085  3.9245 -1.3568
   11SAPS   C39 1433   2.281  -0.599  40.946  0.0875  0.5967 -0.7775
   11SAPS   H9X 1434   2.378  -0.560  40.985  0.2750 -1.3498  0.8314
   11SAPS   H9Y 1435   2.201  -0.610  41.023  0.0927 -2.1572 -1.0817
   11SAPS  C310 1436   2.242  -0.489  40.849 -0.2618  0.6067 -0.3003
   11SAPS  H10X 1437   2.329  -0.475  40.783  1.5644  4.1000  2.4701
   11SAPS  H10Y 1438   2.239  -0.397  40.911 -2.1428  0.0348  0.5464
   11SAPS  C311 1439   2.107  -0.509  40.778 -0.1084 -0.1341 -0.1101
   11SAPS  H11X 1440   2.086  -0.618  40.768 -1.7558  0.2541 -1.2165
   11SAPS  H11Y 1441   2.103  -0.466  40.675 -1.6920 -0.3399 -0.1515
   11SAPS  C312 1442   1.987  -0.435  40.847  0.0473 -0.6139  0.3659
   11SAPS  H12X 1443   2.001  -0.328  40.821 -1.5870 -0.4800 -0.0887
   11SAPS  H12Y 1444   1.980  -0.455  40.956 -0.6250  0.1232  0.4630
   11SAPS  C313 1445   1.846  -0.470  40.799  0.3924  0.2043  0.4282
   11SAPS  H13X 1446   1.846  -0.577  40.772 -1.4804  0.0712  0.8095
   11SAPS  H13Y 1447   1.833  -0.426  40.698  2.0791 -3.3428 -1.5272
   11SAPS  C314 1448   1.742  -0.424  40.910 -0.3597  0.1998 -0.3419
   11SAPS  H14X 1449   1.767  -0.477  41.005 -2.4898  1.8004  1.2151
   11SAPS  H14Y 1450   1.641  -0.457  40.879 -0.5677  1.2401 -0.7977
   11SAPS  C315 1451   1.748  -0.273  40.939 -0.2720  1.1292  0.1816
   11SAPS  H15X 1452   1.779  -0.223  40.844  2.1094  1.6188  1.1526
   11SAPS  H15Y 1453   1.822  -0.249  41.018 -1.9441  0.9929  1.8554
   11SAPS  C316 1454   1.610  -0.216  40.973  0.3366  0.1322  0.7278
   11SAPS  H16X 1455   1.563  -0.277  41.053 -2.7396 -2.7948 -3.0021
   11SAPS  H16Y 1456   1.545  -0.217  40.884  0.9420  1.1796  0.2487
   11SAPS  C317 1457   1.614  -0.067  41.022  0.1332  0.3523  0.6430
   11SAPS  H17X 1458   1.667  -0.006  40.945 -2.0237  0.8757 -0.5017
   11SAPS  H17Y 1459   1.666  -0.054  41.119  1.0396  0.9468  0.0987
   11SAPS  C318 1460   1.469  -0.019  41.033 -0.3587  0.0745  0.0478
   11SAPS  H18X 1461   1.455   0.080  41.082  1.5034  0.2868  0.2176
   11SAPS  H18Y 1462   1.412  -0.094  41.092  0.9466  0.7277  2.2548
   11SAPS  H18Z 1463   1.441  -0.005  40.926  1.4917  0.1085 -0.4576
   12SAPS     N 1464   2.198   2.393  47.934 -0.4009  0.0190  0.1165
   12SAPS   HN1 1465   2.258   2.323  47.981 -1.9213 -1.2617  0.2518
   12SAPS   HN2 1466   2.099   2.377  47.962 -0.3249  0.2999  0.5562
   12SAPS   HN3 1467   2.212   2.380  47.832 -0.8515  2.9165 -0.4118
   12SAPS   C12 1468   2.234   2.517  48.003  0.7812  0.7410 -0.2298
   12SAPS  H12A 1469   2.153   2.586  47.985  0.0433 -0.2544 -0.8344
   12SAPS   C13 1470   2.227   2.509  48.160  0.2372  0.3162 -0.3587
   12SAPS  O13A 1471   2.210   2.399  48.223  0.1185  0.5801  0.3836
   12SAPS  O13B 1472   2.272   2.617  48.211  0.0358  0.3998 -0.8842
   12SAPS   C11 1473   2.369   2.574  47.946 -0.4057  0.3294 -0.0656
   12SAPS  H11A 1474   2.453   2.525  48.000 -0.6215  1.5591  1.4601
   12SAPS  H11B 1475   2.366   2.681  47.976 -3.5541 -0.0233  1.2623
   12SAPS     P 1476   2.352   2.675  47.701  0.2877 -0.1409  0.0932
   12SAPS   O13 1477   2.220   2.651  47.642 -0.1958  0.3758 -0.0548
   12SAPS   O14 1478   2.378   2.808  47.764  0.1583 -0.4705 -0.2433
   12SAPS   O12 1479   2.385   2.551  47.802 -0.4050 -0.3063  0.5340
   12SAPS   O11 1480   2.466   2.653  47.581 -0.0288 -0.3851 -0.1531
   12SAPS    C1 1481   2.598   2.684  47.635 -0.3461 -0.8379  0.3120
   12SAPS    HA 1482   2.603   2.782  47.686  2.2518 -1.5053  1.5190
   12SAPS    HB 1483   2.632   2.609  47.710  3.0453  0.4292  0.1973
   12SAPS    C2 1484   2.705   2.686  47.528 -0.4798  0.4590 -1.0172
   12SAPS    HS 1485   2.792   2.747  47.560 -0.1849 -0.7980  0.7278
   12SAPS   O21 1486   2.641   2.748  47.410 -0.1229  1.0231 -0.6311
   12SAPS   C21 1487   2.648   2.878  47.409 -1.0678 -0.5090 -0.2947
   12SAPS   O22 1488   2.696   2.946  47.503 -0.3757 -0.4702 -0.7741
   12SAPS   C22 1489   2.589   2.936  47.281 -0.3325 -0.3767  0.1104
   12SAPS   H2R 1490   2.482   2.908  47.277  0.1415 -2.4075  0.4335
   12SAPS   H2S 1491   2.609   3.045  47.274 -2.2319 -0.0891 -4.9259
   12SAPS    C3 1492   2.762   2.544  47.496  0.0573 -0.8043 -0.5160
   12SAPS    HX 1493   2.676   2.478  47.474 -0.3548 -0.4632  0.0427
   12SAPS    HY 1494   2.803   2.521  47.597  3.4128  1.1049 -1.2730
   12SAPS   O31 1495   2.858   2.549  47.392  0.1820 -0.3007  0.6341
   12SAPS   C31 1496   2.854   2.463  47.295 -0.0195 -0.2826  0.2095
   12SAPS   O32 1497   2.768   2.379  47.282  0.2664 -0.4367  0.5634
   12SAPS   C32 1498   2.949   2.509  47.192 -0.0219 -0.2027  0.5451
   12SAPS   H2X 1499   3.052   2.469  47.206 -0.3286 -0.7744  1.2710
   12SAPS   H2Y 1500   2.958   2.620  47.195  0.8774 -0.2878  1.8908
   12SAPS   C23 1501   2.649   2.861  47.159  0.0051  0.8107 -0.1071
   12SAPS   H3R 1502   2.619   2.754  47.168  1.4676  0.4318  0.5064
   12SAPS   H3S 1503   2.760   2.862  47.169  0.0978 -2.3220  0.2845
   12SAPS   C24 1504   2.595   2.918  47.032  0.4028 -0.0029  0.0498
   12SAPS   H4R 1505   2.485   2.909  47.017  0.2193  0.0843  1.2225
   12SAPS   H4S 1506   2.632   2.857  46.947  0.2020 -0.1839  0.0862
   12SAPS   C25 1507   2.628   3.061  46.985 -0.8279 -0.3836 -0.0864
   12SAPS   H5R 1508   2.568   3.126  47.051 -1.7693 -1.1771 -0.1230
   12SAPS   C26 1509   2.707   3.108  46.889  0.9476  0.4325 -0.0406
   12SAPS   H6R 1510   2.730   3.215  46.877 -0.6363  1.0008  1.6113
   12SAPS   C27 1511   2.807   3.024  46.819 -0.3573  0.0397 -0.8147
   12SAPS   H7R 1512   2.773   2.987  46.719 -2.7738  1.9134 -0.7668
   12SAPS   H7S 1513   2.826   2.931  46.876  0.1424  0.1991 -0.7193
   12SAPS   C28 1514   2.937   3.101  46.806  0.0925  0.2789  0.9013
   12SAPS   H8R 1515   2.967   3.171  46.886  0.7491  3.1842 -1.6762
   12SAPS   C29 1516   3.011   3.117  46.690  1.0171 -0.2911  0.3285
   12SAPS   H9R 1517   3.099   3.182  46.701  1.8530 -1.6979  2.6123
   12SAPS  C210 1518   2.985   3.054  46.553 -0.6066 -0.1507  0.0665
   12SAPS  H10R 1519   2.926   2.960  46.550  0.4083 -0.7953 -2.8293
   12SAPS  H10S 1520   3.085   3.013  46.531 -0.9991 -0.7162 -0.7180
   12SAPS  C211 1521   2.934   3.158  46.452  0.4625  0.7572 -0.2830
   12SAPS  H11R 1522   2.878   3.246  46.488  1.1446  1.0622  0.0692
   12SAPS  C212 1523   2.950   3.152  46.321  0.2896  0.7246  0.5770
   12SAPS  H12R 1524   2.919   3.237  46.258 -0.7692 -0.7856 -1.0481
   12SAPS  C213 1525   3.001   3.029  46.241 -0.1642  0.1328  0.4193
   12SAPS  H13R 1526   3.069   2.978  46.313 -1.4998 -0.9586  0.9714
   12SAPS  H13S 1527   3.074   3.065  46.166  1.4912 -2.3151  0.7247
   12SAPS  C214 1528   2.894   2.943  46.177 -0.2998  0.1660  0.0396
   12SAPS  H14R 1529   2.805   2.931  46.241  0.1851  1.1797  0.9277
   12SAPS  C215 1530   2.904   2.879  46.060 -0.4488  1.2008 -0.5171
   12SAPS  H15R 1531   2.816   2.823  46.027 -0.7395  1.3944 -0.0814
   12SAPS  C216 1532   3.017   2.867  45.966 -0.2861 -0.0325  0.0498
   12SAPS  H16R 1533   3.043   2.760  45.953 -0.9202 -0.2592  0.6126
   12SAPS  H16S 1534   3.102   2.911  46.024 -2.1847  2.0135  1.4356
   12SAPS  C217 1535   3.008   2.943  45.824 -0.4411 -0.4051 -0.5991
   12SAPS  H17R 1536   2.980   3.050  45.832  0.4260  0.0135 -2.4468
   12SAPS  H17S 1537   2.932   2.892  45.761 -1.1814 -0.7788  0.5776
   12SAPS  C218 1538   3.142   2.937  45.753 -0.4129  0.3631  0.4693
   12SAPS  H18R 1539   3.176   2.833  45.773 -0.5253  0.0739 -0.7379
   12SAPS  H18S 1540   3.202   3.023  45.790 -0.1650  0.1044  0.6696
   12SAPS  C219 1541   3.133   2.959  45.595  0.4446  0.2863 -1.0949
   12SAPS  H19R 1542   3.095   3.062  45.579 -1.1279  0.0240  0.4975
   12SAPS  H19S 1543   3.052   2.892  45.559 -2.4471  1.6756  2.1954
   12SAPS  C220 1544   3.250   2.907  45.510 -0.5394  0.5663 -0.5223
   12SAPS  H20R 1545   3.249   2.796  45.515  1.6055  0.5448  1.5397
   12SAPS  H20S 1546   3.338   2.949  45.563 -1.2122  1.1567  0.1355
   12SAPS  H20T 1547   3.249   2.950  45.407  1.6422  1.1012 -0.3830
   12SAPS   C33 1548   2.900   2.482  47.051  0.7172 -0.2254 -0.0295
   12SAPS   H3X 1549   2.853   2.381  47.044  0.6652 -0.1305 -1.4037
   12SAPS   H3Y 1550   2.990   2.487  46.985  1.5624  1.9691  1.1943
   12SAPS   C34 1551   2.795   2.583  46.997  0.2558 -0.1771 -0.1563
   12SAPS   H4X 1552   2.855   2.670  46.964 -0.8089  0.2238 -1.0973
   12SAPS   H4Y 1553   2.727   2.606  47.082  1.5258 -3.2663  1.8668
   12SAPS   C35 1554   2.726   2.547  46.867  0.1847 -0.3250 -0.1543
   12SAPS   H5X 1555   2.652   2.465  46.881  1.4099 -1.9319 -2.3453
   12SAPS   H5Y 1556   2.805   2.497  46.807  0.0568 -0.5868 -0.1061
   12SAPS   C36 1557   2.673   2.666  46.784  0.4413  0.9078  0.9788
   12SAPS   H6X 1558   2.747   2.749  46.779 -0.1605  1.4464  0.9486
   12SAPS   H6Y 1559   2.577   2.693  46.832 -0.9954  0.6694 -1.6269
   12SAPS   C37 1560   2.646   2.617  46.637  0.0969 -0.4256 -0.1586
   12SAPS   H7X 1561   2.560   2.547  46.635  1.7661 -2.7084  2.3725
   12SAPS   H7Y 1562   2.742   2.568  46.609  1.0468  0.1615  1.9216
   12SAPS   C38 1563   2.623   2.736  46.531  0.1084  0.3170  0.0833
   12SAPS   H8X 1564   2.611   2.686  46.432 -1.0255  0.0146  0.3649
   12SAPS   H8Y 1565   2.721   2.787  46.525  0.6728 -0.6376  0.8657
   12SAPS   C39 1566   2.504   2.828  46.570 -0.4504 -0.4291  0.6020
   12SAPS   H9X 1567   2.533   2.879  46.664  4.4822 -1.3903 -0.1118
   12SAPS   H9Y 1568   2.408   2.773  46.563 -0.1966 -0.6698 -2.5540
   12SAPS  C310 1569   2.486   2.940  46.454 -0.0616 -0.2044 -0.4862
   12SAPS  H10X 1570   2.380   2.970  46.449  0.0985  1.1026  2.0505
   12SAPS  H10Y 1571   2.516   2.895  46.357  0.8452  0.4502 -0.5242
   12SAPS  C311 1572   2.566   3.060  46.495 -0.0091 -0.6238 -0.6070
   12SAPS  H11X 1573   2.671   3.024  46.495  1.1899  2.5546 -0.0198
   12SAPS  H11Y 1574   2.538   3.101  46.595 -2.4506 -3.7823  0.1772
   12SAPS  C312 1575   2.566   3.170  46.386  0.5004 -0.6939 -0.2357
   12SAPS  H12X 1576   2.534   3.135  46.286  2.0770 -0.7162 -0.7606
   12SAPS  H12Y 1577   2.669   3.210  46.375  1.0702 -1.9673  0.2031
   12SAPS  C313 1578   2.473   3.280  46.435  0.0230  0.2602  0.3720
   12SAPS  H13X 1579   2.517   3.314  46.532 -0.3276  4.0519 -0.6329
   12SAPS  H13Y 1580   2.369   3.244  46.451 -1.2141  1.1967 -4.1311
   12SAPS  C314 1581   2.466   3.410  46.352 -0.1188 -0.6357 -0.1188
   12SAPS  H14X 1582   2.569   3.441  46.323  0.3181 -1.6611  0.2741
   12SAPS  H14Y 1583   2.416   3.493  46.407 -0.5061  0.6916 -2.3639
   12SAPS  C315 1584   2.401   3.401  46.213  0.3081 -0.3949  0.1651
   12SAPS  H15X 1585   2.295   3.379  46.236 -1.2694  1.8742 -3.8417
   12SAPS  H15Y 1586   2.436   3.308  46.162  3.7112 -0.6657  2.5917
   12SAPS  C316 1587   2.388   3.525  46.124 -0.8187  0.5162  0.4832
   12SAPS  H16X 1588   2.486   3.549  46.077 -1.4105  2.4561  0.1580
   12SAPS  H16Y 1589   2.360   3.615  46.182 -2.0678  0.1991  0.3845
   12SAPS  C317 1590   2.290   3.507  46.008  0.2288  0.6567 -0.1674
   12SAPS  H17X 1591   2.194   3.532  46.059  0.8355 -1.5514  2.3027
   12SAPS  H17Y 1592   2.286   3.403  45.969  1.5085 -0.0508  1.4605
   12SAPS  C318 1593   2.305   3.609  45.892  0.1353  0.3425  0.6679
   12SAPS  H18X 1594   2.407   3.644  45.868 -0.8681  1.5774 -2.3110
   12SAPS  H18Y 1595   2.254   3.706  45.914 -0.7158  0.8888 -3.0315
   12SAPS  H18Z 1596   2.268   3.571  45.795  1.9781  0.5660 -0.1614
   13SAPS     N 1597   1.181   0.059  37.909  0.9159 -0.1749  0.2587
   13SAPS   HN1 1598   1.173  -0.013  37.835 -1.1085  0.9373 -0.6826
   13SAPS   HN2 1599   1.240   0.025  37.988  0.6421 -0.9508  0.1332
   13SAPS   HN3 1600   1.083   0.080  37.937  0.6793  1.3917 -1.6032
   13SAPS   C12 1601   1.237   0.182  37.855 -0.5302  0.5161 -0.6789
   13SAPS  H12A 1602   1.314   0.163  37.782 -0.8203 -0.7616 -0.6685
   13SAPS   C13 1603   1.130   0.260  37.787  0.1585 -0.1463  0.2388
   13SAPS  O13A 1604   1.026   0.209  37.729 -0.1596 -0.3383 -0.9109
   13SAPS  O13B 1605   1.155   0.379  37.762 -0.6467 -0.3847 -0.0517
   13SAPS   C11 1606   1.321   0.259  37.966  0.3891 -0.3496  0.0550
   13SAPS  H11A 1607   1.249   0.256  38.051 -0.3667  0.7647 -0.5104
   13SAPS  H11B 1608   1.338   0.364  37.936 -0.2896 -0.1091  0.4724
   13SAPS     P 1609   1.575   0.257  37.940  0.0166 -0.8010  0.0849
   13SAPS   O13 1610   1.680   0.158  37.961  0.4140  0.2122 -0.4979
   13SAPS   O14 1611   1.542   0.292  37.799  0.1945  0.4215  0.3600
   13SAPS   O12 1612   1.442   0.200  37.998 -1.2677  0.4563 -0.3728
   13SAPS   O11 1613   1.627   0.389  38.015 -0.3116 -0.2176 -0.3572
   13SAPS    C1 1614   1.551   0.508  38.038 -0.0637 -0.2279 -0.2433
   13SAPS    HA 1615   1.588   0.591  37.975 -0.3358 -1.5976 -2.3235
   13SAPS    HB 1616   1.447   0.512  37.998  0.1961 -1.1577 -1.0543
   13SAPS    C2 1617   1.552   0.554  38.185 -0.5119 -0.4882 -0.0678
   13SAPS    HS 1618   1.659   0.564  38.212 -0.2009  0.1920 -1.4656
   13SAPS   O21 1619   1.463   0.475  38.266  0.9202 -0.5980 -0.3108
   13SAPS   C21 1620   1.522   0.364  38.305  0.1695 -0.0650  0.4338
   13SAPS   O22 1621   1.643   0.346  38.306  0.2307  0.1745  0.1763
   13SAPS   C22 1622   1.425   0.272  38.376 -0.1007 -0.6412  0.5465
   13SAPS   H2R 1623   1.399   0.315  38.474 -0.4673  0.5945 -0.0719
   13SAPS   H2S 1624   1.333   0.245  38.320 -0.1258  0.5448 -0.0180
   13SAPS    C3 1625   1.499   0.696  38.184  0.4360  0.5451 -0.2464
   13SAPS    HX 1626   1.407   0.690  38.122 -0.7632 -0.6548  1.5729
   13SAPS    HY 1627   1.573   0.763  38.136  1.8237  0.4392  1.6601
   13SAPS   O31 1628   1.457   0.736  38.318  0.0822 -0.1008  0.0520
   13SAPS   C31 1629   1.493   0.858  38.353 -0.4849 -0.0959 -0.4090
   13SAPS   O32 1630   1.541   0.942  38.284  0.1481  0.5104  0.4861
   13SAPS   C32 1631   1.455   0.876  38.497 -0.0296 -0.0197  0.3455
   13SAPS   H2X 1632   1.549   0.863  38.554  0.0214 -2.2914 -0.1714
   13SAPS   H2Y 1633   1.390   0.794  38.536 -1.9318  1.8397  1.3240
   13SAPS   C23 1634   1.491   0.138  38.409 -0.4542  0.4979  0.0697
   13SAPS   H3R 1635   1.458   0.113  38.512 -0.8744  1.6376  0.2232
   13SAPS   H3S 1636   1.602   0.138  38.407 -0.4546  1.3292 -0.2344
   13SAPS   C24 1637   1.448   0.025  38.310  0.0321 -0.1121 -0.2428
   13SAPS   H4R 1638   1.450   0.052  38.202 -2.7870 -2.1515 -0.8998
   13SAPS   H4S 1639   1.340   0.016  38.335  0.2541  0.5600  1.0233
   13SAPS   C25 1640   1.516  -0.106  38.334 -0.2098 -0.2809 -0.3022
   13SAPS   H5R 1641   1.605  -0.120  38.271 -1.6446 -1.9562 -2.0986
   13SAPS   C26 1642   1.467  -0.207  38.407  0.2183 -0.2200 -0.0567
   13SAPS   H6R 1643   1.528  -0.298  38.422  1.1029  0.3458 -0.1371
   13SAPS   C27 1644   1.343  -0.200  38.492  0.0438 -0.1416  0.2406
   13SAPS   H7R 1645   1.262  -0.269  38.458  2.5347 -2.9134 -0.5059
   13SAPS   H7S 1646   1.322  -0.092  38.508  1.9009  0.0750  1.4266
   13SAPS   C28 1647   1.388  -0.227  38.634  0.0931 -0.1275 -0.3049
   13SAPS   H8R 1648   1.449  -0.146  38.679 -2.0824  1.6306 -0.3606
   13SAPS   C29 1649   1.334  -0.322  38.708 -0.4140  0.1991 -0.0522
   13SAPS   H9R 1650   1.366  -0.322  38.813 -0.9893 -1.2041  0.1513
   13SAPS  C210 1651   1.229  -0.431  38.682 -0.1417 -0.0594 -0.0629
   13SAPS  H10R 1652   1.225  -0.493  38.774 -1.9380 -0.0168 -0.0778
   13SAPS  H10S 1653   1.263  -0.505  38.606 -1.5922  0.4205 -1.2340
   13SAPS  C211 1654   1.093  -0.387  38.631  0.5324 -1.1390  0.0737
   13SAPS  H11R 1655   1.080  -0.415  38.526  1.0030 -2.6200  0.3867
   13SAPS  C212 1656   0.981  -0.364  38.705 -0.2361  0.4969 -0.3975
   13SAPS  H12R 1657   0.898  -0.323  38.646 -0.5026  1.4622  0.6315
   13SAPS  C213 1658   0.976  -0.364  38.857 -0.3660 -0.0903 -0.6583
   13SAPS  H13R 1659   0.944  -0.264  38.895  2.0040  0.2490  0.6386
   13SAPS  H13S 1660   1.075  -0.379  38.904  0.2605  3.1397 -0.6597
   13SAPS  C214 1661   0.879  -0.473  38.901  0.2443 -0.1266 -0.0882
   13SAPS  H14R 1662   0.820  -0.528  38.826 -0.4675 -0.2815  0.5753
   13SAPS  C215 1663   0.867  -0.508  39.032 -0.1462 -0.1935  0.2952
   13SAPS  H15R 1664   0.788  -0.582  39.050 -0.7723  0.6809  1.2978
   13SAPS  C216 1665   0.929  -0.447  39.154  0.6073 -0.3298 -0.2728
   13SAPS  H16R 1666   0.923  -0.337  39.152  1.0276 -0.3138 -0.8869
   13SAPS  H16S 1667   1.037  -0.468  39.147  0.5258 -0.4123 -1.4258
   13SAPS  C217 1668   0.873  -0.508  39.286  0.7520  0.1892 -0.0489
   13SAPS  H17R 1669   0.876  -0.619  39.290 -0.7597  0.1588  1.6042
   13SAPS  H17S 1670   0.768  -0.472  39.294  0.4527 -0.8987  1.0649
   13SAPS  C218 1671   0.949  -0.467  39.414 -0.2521  0.1183 -0.1829
   13SAPS  H18R 1672   0.921  -0.363  39.440  0.0517 -0.1703  1.3996
   13SAPS  H18S 1673   1.060  -0.473  39.408 -0.1924 -0.4875  1.1366
   13SAPS  C219 1674   0.905  -0.548  39.536  0.8169  0.0613 -0.2407
   13SAPS  H19R 1675   0.913  -0.656  39.514 -0.6844 -0.4097  1.3225
   13SAPS  H19S 1676   0.799  -0.527  39.564  1.2555  0.5474  1.1469
   13SAPS  C220 1677   0.988  -0.521  39.662  0.5486  0.1198  0.4884
   13SAPS  H20R 1678   1.097  -0.527  39.639  0.3054 -0.3083 -0.6103
   13SAPS  H20S 1679   0.955  -0.600  39.732  1.2958 -0.7854 -0.1474
   13SAPS  H20T 1680   0.968  -0.429  39.721 -1.2763 -0.0411  0.1663
   13SAPS   C33 1681   1.395   1.017  38.525  0.1663 -1.0638  0.7890
   13SAPS   H3X 1682   1.297   1.025  38.473  1.0778  0.6997 -0.7954
   13SAPS   H3Y 1683   1.465   1.089  38.476 -1.9170  0.7034  0.2124
   13SAPS   C34 1684   1.386   1.043  38.673 -0.5958 -0.1496  0.5955
   13SAPS   H4X 1685   1.332   0.959  38.719 -2.2531 -0.3106 -1.4963
   13SAPS   H4Y 1686   1.323   1.133  38.690  0.2074  0.5719 -0.0657
   13SAPS   C35 1687   1.524   1.070  38.742 -0.1629 -0.0823  0.3701
   13SAPS   H5X 1688   1.579   1.159  38.703  0.8754 -0.1405  1.6273
   13SAPS   H5Y 1689   1.591   0.986  38.714 -0.5148  0.7152 -3.4881
   13SAPS   C36 1690   1.514   1.087  38.898  0.5350  1.0663  0.6848
   13SAPS   H6X 1691   1.489   0.988  38.942  2.0743 -0.3465 -1.4314
   13SAPS   H6Y 1692   1.438   1.164  38.925 -1.7727 -1.0752  0.6863
   13SAPS   C37 1693   1.650   1.104  38.955 -0.5145  0.8555 -0.5912
   13SAPS   H7X 1694   1.672   1.213  38.943 -2.0026  1.3632  0.8679
   13SAPS   H7Y 1695   1.727   1.034  38.916 -0.9235 -0.6204  1.1107
   13SAPS   C38 1696   1.656   1.065  39.106 -0.0020 -0.0334 -0.4199
   13SAPS   H8X 1697   1.662   0.955  39.119  1.0857 -0.1470 -1.6958
   13SAPS   H8Y 1698   1.561   1.097  39.154  0.5771 -0.4332  1.0469
   13SAPS   C39 1699   1.763   1.142  39.195 -0.0431 -0.0504 -0.9664
   13SAPS   H9X 1700   1.733   1.248  39.208 -0.3056 -0.2626  0.2740
   13SAPS   H9Y 1701   1.847   1.151  39.123 -0.5994  2.0043 -1.4394
   13SAPS  C310 1702   1.797   1.090  39.338 -0.5728  0.1617 -0.7973
   13SAPS  H10X 1703   1.893   1.135  39.372 -1.7553  2.0767  0.1489
   13SAPS  H10Y 1704   1.798   0.979  39.349 -0.2642  0.4002  3.2561
   13SAPS  C311 1705   1.700   1.134  39.452  0.3463 -0.6857 -0.5712
   13SAPS  H11X 1706   1.600   1.095  39.423  0.7648 -0.3472 -2.6039
   13SAPS  H11Y 1707   1.685   1.244  39.452  3.7689 -0.0907 -0.1512
   13SAPS  C312 1708   1.760   1.093  39.589  0.1625  0.2002 -0.2393
   13SAPS  H12X 1709   1.854   1.152  39.600  0.2971  0.0012 -0.3047
   13SAPS  H12Y 1710   1.792   0.986  39.589 -0.7424 -0.1547  2.7007
   13SAPS  C313 1711   1.665   1.124  39.703 -0.3931 -0.0923 -0.0107
   13SAPS  H13X 1712   1.564   1.107  39.661 -0.6710  2.6337 -0.6486
   13SAPS  H13Y 1713   1.683   1.233  39.715  0.8634 -0.3871  1.0393
   13SAPS  C314 1714   1.682   1.050  39.834 -0.0743  0.6969 -0.6422
   13SAPS  H14X 1715   1.710   0.943  39.823 -1.2908 -0.0806  2.5597
   13SAPS  H14Y 1716   1.585   1.051  39.887 -0.2472  0.8910 -0.9558
   13SAPS  C315 1717   1.801   1.090  39.922 -0.0041 -0.1152 -0.1738
   13SAPS  H15X 1718   1.785   1.194  39.959 -3.5268 -0.6115  0.0516
   13SAPS  H15Y 1719   1.896   1.081  39.865  0.1093  1.0946 -0.1931
   13SAPS  C316 1720   1.815   1.008  40.053 -0.7188  0.7253  0.1265
   13SAPS  H16X 1721   1.813   0.898  40.036  0.1497  0.6418  0.5223
   13SAPS  H16Y 1722   1.736   1.035  40.126  0.7156  1.4737  1.4576
   13SAPS  C317 1723   1.958   1.024  40.109 -0.1398  0.0478 -0.2897
   13SAPS  H17X 1724   1.955   1.003  40.218 -2.4499  2.3415  0.1929
   13SAPS  H17Y 1725   1.984   1.132  40.108 -3.8962  1.1053 -0.1635
   13SAPS  C318 1726   2.061   0.933  40.040 -0.3920  0.2682 -0.4735
   13SAPS  H18X 1727   2.154   0.910  40.096 -0.9508 -0.2894  0.2489
   13SAPS  H18Y 1728   2.097   0.990  39.952 -2.6118  2.1746 -0.2544
   13SAPS  H18Z 1729   2.012   0.840  40.003 -2.3412  0.5040  1.3018
   14SAPS     N 1730   2.678   2.666  42.067  0.3804  0.1934  0.0791
   14SAPS   HN1 1731   2.706   2.765  42.079 -2.7622  1.1275  0.6460
   14SAPS   HN2 1732   2.594   2.664  42.006  1.9091  1.9666 -2.2529
   14SAPS   HN3 1733   2.653   2.619  42.156  1.0903 -0.1389  0.1145
   14SAPS   C12 1734   2.781   2.593  41.984 -0.1563  0.8642 -0.0360
   14SAPS  H12A 1735   2.792   2.631  41.884 -2.7594 -0.5673 -0.9786
   14SAPS   C13 1736   2.916   2.587  42.049 -0.4937  0.2325 -1.1498
   14SAPS  O13A 1737   2.936   2.645  42.160 -0.3466 -0.0170 -0.4950
   14SAPS  O13B 1738   3.001   2.526  41.988  0.1355 -0.2043  0.5474
   14SAPS   C11 1739   2.727   2.444  41.966  0.0391  0.9550 -0.3710
   14SAPS  H11A 1740   2.712   2.401  42.068 -2.2090  2.6564  0.0855
   14SAPS  H11B 1741   2.805   2.389  41.909  0.4972  1.3778 -0.1625
   14SAPS     P 1742   2.591   2.387  41.762  0.3158  0.4855  0.2158
   14SAPS   O13 1743   2.454   2.380  41.719  0.3374 -0.0440  0.2643
   14SAPS   O14 1744   2.686   2.462  41.679  0.3448 -0.3785 -0.2095
   14SAPS   O12 1745   2.599   2.445  41.904 -0.0924 -0.1158 -0.1778
   14SAPS   O11 1746   2.630   2.234  41.774  0.1890 -0.6456  0.3726
   14SAPS    C1 1747   2.750   2.175  41.729 -0.3833 -0.2251 -0.2327
   14SAPS    HA 1748   2.729   2.120  41.634 -0.3417  1.8899 -1.5166
   14SAPS    HB 1749   2.821   2.254  41.699 -0.3788  0.3818  1.2938
   14SAPS    C2 1750   2.815   2.080  41.836 -0.0762 -0.1718  0.4730
   14SAPS    HS 1751   2.878   2.145  41.900 -1.3943  1.3695  0.3032
   14SAPS   O21 1752   2.894   1.981  41.771  0.0958 -0.2953  0.4187
   14SAPS   C21 1753   2.970   2.008  41.674 -0.0586 -0.3977 -0.3567
   14SAPS   O22 1754   3.002   2.124  41.634  0.6956  0.5300 -0.1873
   14SAPS   C22 1755   3.026   1.875  41.616  0.0039  0.3668  0.7413
   14SAPS   H2R 1756   3.011   1.791  41.688 -1.2346 -1.6926 -1.7552
   14SAPS   H2S 1757   2.961   1.864  41.527  0.3064  1.3102  0.3942
   14SAPS    C3 1758   2.711   2.007  41.917  0.5880 -0.0170  0.0695
   14SAPS    HX 1759   2.625   1.957  41.868 -0.0617 -0.2491  1.3833
   14SAPS    HY 1760   2.648   2.089  41.957 -0.0780  0.0924 -1.1590
   14SAPS   O31 1761   2.764   1.932  42.029  0.0967  0.0027  0.3349
   14SAPS   C31 1762   2.669   1.907  42.128  0.0542  0.0854  0.0916
   14SAPS   O32 1763   2.551   1.904  42.098  0.1311 -0.2593 -0.3260
   14SAPS   C32 1764   2.742   1.858  42.253  0.1901  0.2235 -0.6855
   14SAPS   H2X 1765   2.846   1.895  42.247  0.0089  0.8499 -0.1655
   14SAPS   H2Y 1766   2.741   1.747  42.239 -2.2134 -0.0043  0.7187
   14SAPS   C23 1767   3.171   1.873  41.573  0.0609 -0.0890  0.0480
   14SAPS   H3R 1768   3.241   1.882  41.659  2.0703  0.4076 -1.5839
   14SAPS   H3S 1769   3.205   1.946  41.497 -0.1890 -0.3627 -0.3323
   14SAPS   C24 1770   3.208   1.741  41.498 -0.5778  1.2457  0.4420
   14SAPS   H4R 1771   3.154   1.737  41.401  1.0830  2.0158 -0.5567
   14SAPS   H4S 1772   3.168   1.657  41.558 -0.6711  0.7615 -0.2838
   14SAPS   C25 1773   3.352   1.709  41.487  0.8680  0.0565  0.1718
   14SAPS   H5R 1774   3.393   1.688  41.587 -0.1135  1.4286  0.8984
   14SAPS   C26 1775   3.429   1.713  41.378  0.7616  0.4794 -0.5864
   14SAPS   H6R 1776   3.533   1.687  41.401  1.0982  3.0385  1.2227
   14SAPS   C27 1777   3.390   1.743  41.241 -0.4618  0.0269 -0.5102
   14SAPS   H7R 1778   3.284   1.727  41.210 -0.1386 -0.5111 -1.3749
   14SAPS   H7S 1779   3.461   1.700  41.168 -0.0863 -0.6357  0.2343
   14SAPS   C28 1780   3.430   1.886  41.215 -0.2073  0.0410  0.1181
   14SAPS   H8R 1781   3.456   1.946  41.303  0.4055  0.2532 -0.2060
   14SAPS   C29 1782   3.432   1.947  41.088  1.1647  0.4898 -0.4287
   14SAPS   H9R 1783   3.467   2.050  41.072 -0.3747  1.1821  0.4035
   14SAPS  C210 1784   3.392   1.870  40.964 -0.6425  0.4510 -0.2110
   14SAPS  H10R 1785   3.286   1.889  40.939 -1.0039 -0.7870  0.3642
   14SAPS  H10S 1786   3.390   1.761  40.985  1.1053  0.3228 -0.5492
   14SAPS  C211 1787   3.489   1.874  40.841  0.0022 -0.4242 -0.2529
   14SAPS  H11R 1788   3.569   1.799  40.838  0.5531  0.1868 -1.0297
   14SAPS  C212 1789   3.486   1.970  40.751  0.5169  0.1353 -0.1039
   14SAPS  H12R 1790   3.564   1.966  40.674  2.8488  0.5539  2.0868
   14SAPS  C213 1791   3.384   2.080  40.722 -0.8822 -0.2109  1.0608
   14SAPS  H13R 1792   3.296   2.084  40.791 -0.8686  0.6703  1.0436
   14SAPS  H13S 1793   3.338   2.051  40.625  0.0199 -4.7451  1.7950
   14SAPS  C214 1794   3.458   2.208  40.705 -0.1194  0.6762  0.5653
   14SAPS  H14R 1795   3.509   2.208  40.608 -3.6651 -3.0102 -1.6055
   14SAPS  C215 1796   3.470   2.316  40.788 -0.6743  0.1132  0.0647
   14SAPS  H15R 1797   3.526   2.405  40.756  0.9620 -0.4269  1.3028
   14SAPS  C216 1798   3.413   2.327  40.922 -0.3221  0.1441  0.2291
   14SAPS  H16R 1799   3.477   2.396  40.982 -0.0872  0.6740 -0.6135
   14SAPS  H16S 1800   3.433   2.235  40.982  0.5740  1.2857  1.7716
   14SAPS  C217 1801   3.265   2.359  40.931  0.1895 -0.5827 -1.0036
   14SAPS  H17R 1802   3.205   2.284  40.876 -1.0741  0.7483 -1.5310
   14SAPS  H17S 1803   3.245   2.462  40.893  1.6094  0.4123  0.7809
   14SAPS  C218 1804   3.207   2.365  41.083  0.4004 -0.1588  0.1367
   14SAPS  H18R 1805   3.117   2.429  41.086  0.3692 -0.2056  0.2067
   14SAPS  H18S 1806   3.287   2.404  41.150  0.1955 -0.6664  0.6814
   14SAPS  C219 1807   3.161   2.231  41.143 -0.3080  0.4910  0.0627
   14SAPS  H19R 1808   3.105   2.246  41.238 -0.9155 -0.1226 -0.1989
   14SAPS  H19S 1809   3.257   2.184  41.173  0.6546  0.2163 -3.0514
   14SAPS  C220 1810   3.089   2.137  41.052  0.2697 -0.3715 -0.4393
   14SAPS  H20R 1811   3.012   2.075  41.103  0.1034  0.9663  1.0034
   14SAPS  H20S 1812   3.168   2.067  41.017  2.1088  1.7056 -0.6035
   14SAPS  H20T 1813   3.036   2.183  40.965 -2.0833  0.9614  1.5764
   14SAPS   C33 1814   2.677   1.909  42.381 -0.4416  0.2690 -0.1887
   14SAPS   H3X 1815   2.661   2.018  42.388 -0.1730  0.2074  2.1847
   14SAPS   H3Y 1816   2.743   1.876  42.464 -0.5152 -3.2233 -1.3573
   14SAPS   C34 1817   2.549   1.829  42.415  0.0239  0.5460  0.1620
   14SAPS   H4X 1818   2.570   1.781  42.512  0.0329 -0.1009 -0.1556
   14SAPS   H4Y 1819   2.527   1.755  42.335  0.6000 -0.1109  0.6130
   14SAPS   C35 1820   2.432   1.928  42.433 -0.2644 -0.5848  0.1196
   14SAPS   H5X 1821   2.412   1.974  42.334  1.2503  0.7899  0.4304
   14SAPS   H5Y 1822   2.458   2.010  42.503  1.8246 -0.4217 -0.7707
   14SAPS   C36 1823   2.296   1.878  42.477  0.0934 -0.6305 -0.0088
   14SAPS   H6X 1824   2.219   1.958  42.482  0.5944 -0.2188  1.8764
   14SAPS   H6Y 1825   2.293   1.841  42.582  0.0890  1.1921  0.6604
   14SAPS   C37 1826   2.245   1.770  42.387  0.5260 -0.1761  1.2069
   14SAPS   H7X 1827   2.319   1.689  42.368 -0.8595 -1.7833  2.3886
   14SAPS   H7Y 1828   2.237   1.810  42.283  2.4231 -2.3405  0.1131
   14SAPS   C38 1829   2.115   1.711  42.441 -0.2525  0.2134 -0.1061
   14SAPS   H8X 1830   2.045   1.790  42.473  2.6482  2.0360  2.2440
   14SAPS   H8Y 1831   2.134   1.650  42.532 -1.3053 -1.4100 -0.9212
   14SAPS   C39 1832   2.043   1.619  42.342  0.3144 -0.4565 -0.6014
   14SAPS   H9X 1833   2.106   1.584  42.258 -1.7237 -2.0633 -1.5512
   14SAPS   H9Y 1834   1.961   1.681  42.302  0.4319  0.6120  0.7409
   14SAPS  C310 1835   1.973   1.496  42.414  0.0396 -0.5705  0.6016
   14SAPS  H10X 1836   2.034   1.406  42.434  0.7963  0.1059  1.4493
   14SAPS  H10Y 1837   1.885   1.472  42.350 -1.5514  1.8381  1.7128
   14SAPS  C311 1838   1.896   1.528  42.546 -0.1378 -0.1230  0.1958
   14SAPS  H11X 1839   1.850   1.629  42.538  1.2957  0.4792 -0.8060
   14SAPS  H11Y 1840   1.976   1.534  42.623  0.0662  1.4535 -0.0931
   14SAPS  C312 1841   1.798   1.410  42.577 -0.2157 -0.7263  0.7431
   14SAPS  H12X 1842   1.760   1.438  42.678  1.9004  0.6632  1.2259
   14SAPS  H12Y 1843   1.843   1.310  42.593 -1.2706 -1.2159  0.7186
   14SAPS  C313 1844   1.680   1.396  42.487  0.3192  0.0984  0.2888
   14SAPS  H13X 1845   1.697   1.328  42.401 -2.2583 -0.9281  0.4856
   14SAPS  H13Y 1846   1.639   1.485  42.435 -1.8709 -1.6234 -1.1401
   14SAPS  C314 1847   1.559   1.340  42.559 -0.2227 -0.2002 -0.4219
   14SAPS  H14X 1848   1.485   1.331  42.477  0.0676  0.9785 -0.8220
   14SAPS  H14Y 1849   1.537   1.409  42.643  0.9676  0.5792 -0.7277
   14SAPS  C315 1850   1.582   1.206  42.628  0.3504  0.1755  0.0271
   14SAPS  H15X 1851   1.664   1.223  42.701 -0.9515  2.0917  1.1338
   14SAPS  H15Y 1852   1.616   1.124  42.561 -1.7113 -2.9612  2.5253
   14SAPS  C316 1853   1.454   1.155  42.697 -0.1904  0.2043  0.1945
   14SAPS  H16X 1854   1.365   1.152  42.631 -0.8824  1.4958  1.0150
   14SAPS  H16Y 1855   1.422   1.231  42.772  0.5117  1.4829 -0.7693
   14SAPS  C317 1856   1.464   1.010  42.754  0.1150 -0.5725 -0.9865
   14SAPS  H17X 1857   1.537   1.018  42.837 -2.2247  0.7614  1.0658
   14SAPS  H17Y 1858   1.505   0.960  42.663  0.7774  2.4172 -2.4887
   14SAPS  C318 1859   1.334   0.947  42.805 -0.3394 -0.3492 -0.7600
   14SAPS  H18X 1860   1.268   0.964  42.717 -3.4998 -0.3604  1.4440
   14SAPS  H18Y 1861   1.283   1.009  42.882  2.3657  1.7502 -0.5078
   14SAPS  H18Z 1862   1.347   0.838  42.826  2.1673  0.4148  2.3844
   15SAPS     N 1863   2.244   2.588  42.670 -0.2811 -0.1541 -0.5935
   15SAPS   HN1 1864   2.219   2.545  42.762  4.3008 -0.0918  0.9255
   15SAPS   HN2 1865   2.194   2.672  42.636 -1.2358 -0.1829  0.6699
   15SAPS   HN3 1866   2.211   2.520  42.599 -2.6283  0.3053 -0.0111
   15SAPS   C12 1867   2.389   2.604  42.667 -0.1455 -0.2387 -0.3288
   15SAPS  H12A 1868   2.417   2.706  42.688 -0.8473  0.0576 -0.8021
   15SAPS   C13 1869   2.446   2.511  42.779 -0.4552 -0.2420 -0.0829
   15SAPS  O13A 1870   2.375   2.415  42.826 -0.3662  0.5547 -0.0737
   15SAPS  O13B 1871   2.550   2.546  42.836 -0.6251 -0.4166  0.1013
   15SAPS   C11 1872   2.440   2.548  42.537  0.3198  0.7230  0.5042
   15SAPS  H11A 1873   2.399   2.628  42.471 -1.5569  0.4867  1.3379
   15SAPS  H11B 1874   2.391   2.454  42.504  0.9274  0.7099 -0.4011
   15SAPS     P 1875   2.666   2.488  42.414  0.2924  0.0084  0.2752
   15SAPS   O13 1876   2.616   2.525  42.280  0.3381  0.0649 -0.0123
   15SAPS   O14 1877   2.810   2.502  42.442 -1.0074 -0.0432 -0.3077
   15SAPS   O12 1878   2.582   2.554  42.534  0.4112  0.2459 -0.8727
   15SAPS   O11 1879   2.629   2.333  42.426 -0.7381  0.6489  0.0691
   15SAPS    C1 1880   2.620   2.272  42.555  0.4048  0.1675 -1.3952
   15SAPS    HA 1881   2.550   2.332  42.617 -0.5021 -0.8342 -1.4165
   15SAPS    HB 1882   2.565   2.176  42.542  2.2939 -1.0746 -0.6700
   15SAPS    C2 1883   2.758   2.259  42.631  0.1347 -0.6171  0.0286
   15SAPS    HS 1884   2.797   2.361  42.648 -1.6420 -0.2172  2.0907
   15SAPS   O21 1885   2.851   2.182  42.549  0.3819 -0.1392 -0.3460
   15SAPS   C21 1886   2.982   2.210  42.572  0.0402  0.1712 -0.2186
   15SAPS   O22 1887   3.023   2.298  42.646 -0.2725 -0.4703 -0.2947
   15SAPS   C22 1888   3.063   2.112  42.490 -0.2674  0.5700 -0.1076
   15SAPS   H2R 1889   2.998   2.022  42.498  1.4117 -1.0727 -3.1055
   15SAPS   H2S 1890   3.060   2.144  42.384  2.4505 -2.2465 -1.2075
   15SAPS    C3 1891   2.743   2.191  42.763  0.8738 -0.1136  0.0126
   15SAPS    HX 1892   2.674   2.264  42.809  0.3088 -1.2428  1.0017
   15SAPS    HY 1893   2.836   2.169  42.820  0.5482 -2.2062 -0.1934
   15SAPS   O31 1894   2.672   2.062  42.751 -0.0318  0.6282 -0.4252
   15SAPS   C31 1895   2.604   2.011  42.859 -0.5294 -0.1355  0.3574
   15SAPS   O32 1896   2.608   2.069  42.969  0.3193  0.0387  1.0278
   15SAPS   C32 1897   2.530   1.882  42.831  0.0518 -0.8017 -0.0365
   15SAPS   H2X 1898   2.459   1.917  42.754  0.6277 -0.7901 -0.5714
   15SAPS   H2Y 1899   2.474   1.861  42.925  0.1600  1.5074  0.6063
   15SAPS   C23 1900   3.203   2.087  42.544 -0.2051 -0.1827 -0.6976
   15SAPS   H3R 1901   3.190   2.079  42.655  1.2475  0.5509 -0.4516
   15SAPS   H3S 1902   3.274   2.170  42.529  1.1433 -0.7800  1.7874
   15SAPS   C24 1903   3.248   1.947  42.506 -0.0422  0.4427 -0.3475
   15SAPS   H4R 1904   3.264   1.945  42.396  0.2431 -0.5719 -0.2992
   15SAPS   H4S 1905   3.176   1.870  42.543  1.8239 -1.2117  0.0020
   15SAPS   C25 1906   3.382   1.925  42.566 -0.5908 -0.7870  0.4695
   15SAPS   H5R 1907   3.445   2.012  42.589 -1.0266 -0.8174  1.8391
   15SAPS   C26 1908   3.451   1.813  42.553 -0.1910 -0.7019 -0.2124
   15SAPS   H6R 1909   3.552   1.828  42.593 -0.7032  1.4615  0.4209
   15SAPS   C27 1910   3.407   1.674  42.504 -0.1970 -0.3446 -1.5439
   15SAPS   H7R 1911   3.296   1.664  42.502 -0.0220 -3.7233 -0.5624
   15SAPS   H7S 1912   3.441   1.596  42.575  3.0240  1.2484 -1.1858
   15SAPS   C28 1913   3.443   1.658  42.357  0.2909 -0.1901 -0.2619
   15SAPS   H8R 1914   3.398   1.736  42.294  0.9195 -0.7465 -1.4289
   15SAPS   C29 1915   3.514   1.562  42.294 -0.0525  0.2784 -0.5757
   15SAPS   H9R 1916   3.541   1.566  42.187  1.3503 -1.4162 -0.3320
   15SAPS  C210 1917   3.569   1.445  42.378 -0.1174 -0.1864  0.6005
   15SAPS  H10R 1918   3.492   1.401  42.444  1.3175 -1.9547  1.1964
   15SAPS  H10S 1919   3.663   1.480  42.425  0.3861 -1.0181  0.2552
   15SAPS  C211 1920   3.610   1.325  42.293 -0.6469  0.2446 -0.0502
   15SAPS  H11R 1921   3.590   1.333  42.185 -0.5320 -1.4567 -0.2304
   15SAPS  C212 1922   3.643   1.206  42.341  0.4129  0.7691 -0.0383
   15SAPS  H12R 1923   3.665   1.124  42.271 -1.8616  1.2927 -1.4567
   15SAPS  C213 1924   3.643   1.179  42.490  0.2586 -0.5182  0.1491
   15SAPS  H13R 1925   3.537   1.160  42.518 -0.0317 -1.3865 -1.4416
   15SAPS  H13S 1926   3.660   1.274  42.544 -0.6612 -1.0296  1.4068
   15SAPS  C214 1927   3.731   1.069  42.547  0.1704 -0.0328  0.6088
   15SAPS  H14R 1928   3.836   1.100  42.559 -0.3934  2.1534  0.3219
   15SAPS  C215 1929   3.693   0.943  42.584 -0.7799 -0.1043 -0.5030
   15SAPS  H15R 1930   3.778   0.897  42.636 -0.2310  1.9674  0.5644
   15SAPS  C216 1931   3.550   0.884  42.584 -0.1159  0.1576 -0.8875
   15SAPS  H16R 1932   3.481   0.962  42.545 -1.6188 -0.6745 -0.0092
   15SAPS  H16S 1933   3.508   0.862  42.685  1.8658 -1.1797 -0.2987
   15SAPS  C217 1934   3.524   0.756  42.496 -0.1713  0.7826  0.3317
   15SAPS  H17R 1935   3.603   0.682  42.520 -0.7760  0.2205  0.6178
   15SAPS  H17S 1936   3.536   0.777  42.387  0.0097 -2.1006 -0.2950
   15SAPS  C218 1937   3.382   0.695  42.512  0.1830  0.5603 -0.0432
   15SAPS  H18R 1938   3.309   0.777  42.496 -1.0306 -0.1705  1.5293
   15SAPS  H18S 1939   3.382   0.678  42.622  1.4522 -1.4272 -0.2979
   15SAPS  C219 1940   3.354   0.569  42.423  0.0266  1.0265 -0.2004
   15SAPS  H19R 1941   3.334   0.600  42.318  0.5134  1.5360 -0.1490
   15SAPS  H19S 1942   3.258   0.521  42.451  1.8042 -3.1027 -0.5615
   15SAPS  C220 1943   3.452   0.460  42.420  0.3091  0.7453  0.1331
   15SAPS  H20R 1944   3.544   0.480  42.360  0.8114  0.9544  0.9681
   15SAPS  H20S 1945   3.406   0.368  42.377  1.2489  1.2393 -2.0979
   15SAPS  H20T 1946   3.488   0.445  42.524  0.9975 -1.5240 -0.3771
   15SAPS   C33 1947   2.596   1.757  42.771 -0.2843 -0.2657 -0.2630
   15SAPS   H3X 1948   2.675   1.784  42.699  0.4362 -0.3342  0.4877
   15SAPS   H3Y 1949   2.525   1.692  42.716 -0.2319 -0.5845  0.0402
   15SAPS   C34 1950   2.643   1.659  42.878  0.1377 -0.5368 -0.0880
   15SAPS   H4X 1951   2.569   1.661  42.961  1.1438  2.5034  0.8684
   15SAPS   H4Y 1952   2.740   1.684  42.925  0.3203 -1.7582  0.2215
   15SAPS   C35 1953   2.661   1.518  42.826  0.3479 -1.0805 -0.0077
   15SAPS   H5X 1954   2.709   1.524  42.726  0.4660  1.8204  0.1544
   15SAPS   H5Y 1955   2.563   1.469  42.809  1.3359 -2.2192 -3.4471
   15SAPS   C36 1956   2.744   1.418  42.917 -0.0408 -0.2340  0.4711
   15SAPS   H6X 1957   2.838   1.469  42.945 -0.0979 -0.1929  0.5892
   15SAPS   H6Y 1958   2.769   1.333  42.850  0.5509 -0.0064  0.3938
   15SAPS   C37 1959   2.671   1.358  43.042  0.2637  0.4768  0.7435
   15SAPS   H7X 1960   2.614   1.273  42.997  0.0943 -0.1584  2.1005
   15SAPS   H7Y 1961   2.596   1.420  43.096  1.4554  2.0312  0.6748
   15SAPS   C38 1962   2.767   1.312  43.163  0.5710 -0.5401  0.4286
   15SAPS   H8X 1963   2.819   1.403  43.198 -2.4317  2.7707 -2.7900
   15SAPS   H8Y 1964   2.833   1.228  43.132  1.9284  0.4859  0.4700
   15SAPS   C39 1965   2.687   1.239  43.278 -0.5894 -0.8431 -0.2521
   15SAPS   H9X 1966   2.606   1.176  43.234  0.8356 -2.3031 -0.8965
   15SAPS   H9Y 1967   2.642   1.321  43.337 -2.2594 -1.0550 -1.1516
   15SAPS  C310 1968   2.794   1.163  43.363  0.2183  0.7188  0.1791
   15SAPS  H10X 1969   2.897   1.202  43.348  1.1569 -1.3356  0.9380
   15SAPS  H10Y 1970   2.797   1.056  43.333 -2.7886  0.3121  0.9964
   15SAPS  C311 1971   2.752   1.160  43.510  0.1263 -1.1300  0.7904
   15SAPS  H11X 1972   2.651   1.202  43.528 -0.1181 -1.1689 -0.3873
   15SAPS  H11Y 1973   2.824   1.222  43.568  1.1412 -2.3847  0.9135
   15SAPS  C312 1974   2.753   1.017  43.568 -0.0633 -0.0743  0.5347
   15SAPS  H12X 1975   2.856   0.978  43.553  0.8394  2.5728 -0.9564
   15SAPS  H12Y 1976   2.676   0.959  43.514 -1.2179  2.7949 -1.1403
   15SAPS  C313 1977   2.707   1.006  43.714  0.3218 -0.5504  0.1853
   15SAPS  H13X 1978   2.611   1.063  43.712  0.1887 -0.7399  0.9929
   15SAPS  H13Y 1979   2.784   1.059  43.773  0.3699 -0.3122 -0.0892
   15SAPS  C314 1980   2.674   0.862  43.753  0.7830 -0.3420 -0.5785
   15SAPS  H14X 1981   2.767   0.801  43.747  1.1788 -0.1258  2.1317
   15SAPS  H14Y 1982   2.597   0.829  43.680 -0.7339  0.0703  0.7756
   15SAPS  C315 1983   2.631   0.841  43.898  0.2623  1.2851  0.2269
   15SAPS  H15X 1984   2.553   0.917  43.914 -1.6384 -1.0747  3.5493
   15SAPS  H15Y 1985   2.712   0.863  43.972  0.8885  0.7652 -0.2881
   15SAPS  C316 1986   2.562   0.709  43.916 -0.3949  0.1558  0.3907
   15SAPS  H16X 1987   2.476   0.703  43.846  1.0619 -3.8737 -1.4150
   15SAPS  H16Y 1988   2.537   0.695  44.024 -0.8338 -1.3284  0.1132
   15SAPS  C317 1989   2.644   0.593  43.863  0.1931 -0.9846 -0.8890
   15SAPS  H17X 1990   2.743   0.581  43.912 -0.2333 -3.2654 -0.5026
   15SAPS  H17Y 1991   2.662   0.611  43.755 -1.3392  0.8429 -0.8942
   15SAPS  C318 1992   2.553   0.464  43.852 -0.0896 -1.4477 -0.3347
   15SAPS  H18X 1993   2.523   0.423  43.950 -2.1179  0.4840 -0.0572
   15SAPS  H18Y 1994   2.608   0.387  43.794  4.2444 -0.1493  1.6328
   15SAPS  H18Z 1995   2.460   0.466  43.791  0.9176  0.3853 -1.9580
   16SAPS     N 1996   2.267   2.136  48.352  0.3941  0.4538  0.7489
   16SAPS   HN1 1997   2.253   2.220  48.292  2.6309  2.0794  2.3443
   16SAPS   HN2 1998   2.260   2.163  48.452  1.8371 -0.3667  1.0980
   16SAPS   HN3 1999   2.364   2.100  48.356 -0.0510 -0.6808  2.2748
   16SAPS   C12 2000   2.155   2.043  48.323  0.1819  0.2832 -0.6154
   16SAPS  H12A 2001   2.081   2.111  48.283  0.3346 -1.7856 -4.9183
   16SAPS   C13 2002   2.169   1.948  48.209  0.2027  0.2791 -0.3929
   16SAPS  O13A 2003   2.264   1.971  48.131 -0.6534  0.0141  0.3284
   16SAPS  O13B 2004   2.071   1.873  48.178 -0.4621 -0.0517  0.6907
   16SAPS   C11 2005   2.100   1.973  48.452 -0.9074 -0.6188 -0.2984
   16SAPS  H11A 2006   2.010   1.911  48.434 -0.8646 -0.0860 -2.6716
   16SAPS  H11B 2007   2.075   2.060  48.517 -1.1507 -0.4855 -0.5689
   16SAPS     P 2008   2.195   1.793  48.621 -0.1942  0.1104 -0.1131
   16SAPS   O13 2009   2.150   1.667  48.567  0.3197  0.0872 -0.0830
   16SAPS   O14 2010   2.306   1.790  48.716  0.0653  0.3000  0.0766
   16SAPS   O12 2011   2.208   1.896  48.508  0.2029  0.2222 -0.4483
   16SAPS   O11 2012   2.073   1.853  48.702 -0.3929 -0.2052  0.2571
   16SAPS    C1 2013   2.089   1.971  48.788 -0.7154 -0.4930 -0.6439
   16SAPS    HA 2014   2.178   2.036  48.771 -0.6459  0.3441  2.3744
   16SAPS    HB 2015   1.999   2.036  48.788 -0.1996  0.2860  1.2246
   16SAPS    C2 2016   2.103   1.916  48.933 -0.4881 -0.7120 -0.2068
   16SAPS    HS 2017   2.189   1.848  48.916  0.3604  0.5649 -1.1894
   16SAPS   O21 2018   1.968   1.868  48.966 -0.4471 -0.3442 -0.1524
   16SAPS   C21 2019   1.973   1.741  48.987  0.5296 -1.3784  0.0478
   16SAPS   O22 2020   2.065   1.666  48.962  0.6331  0.0973  0.2621
   16SAPS   C22 2021   1.843   1.683  49.041  0.3395 -0.3844 -0.2310
   16SAPS   H2R 2022   1.767   1.715  48.966 -1.2025 -1.9735  0.5755
   16SAPS   H2S 2023   1.849   1.574  49.023  0.2723  0.0238 -3.3611
   16SAPS    C3 2024   2.141   2.019  49.050  0.4177 -0.2615 -0.2502
   16SAPS    HX 2025   2.051   2.082  49.067  0.0974 -0.1494 -2.2286
   16SAPS    HY 2026   2.224   2.079  49.008  0.4035 -1.1376 -1.5792
   16SAPS   O31 2027   2.159   1.951  49.175 -0.5045  0.0709  0.2334
   16SAPS   C31 2028   2.284   1.913  49.197 -0.0497  0.1791  0.1868
   16SAPS   O32 2029   2.373   1.924  49.115  0.4247  0.3092  0.3278
   16SAPS   C32 2030   2.307   1.870  49.335 -0.6852 -0.2834 -0.1350
   16SAPS   H2X 2031   2.261   1.949  49.398  0.3085 -0.0474  0.3022
   16SAPS   H2Y 2032   2.415   1.856  49.356 -0.3690 -0.1824 -1.5366
   16SAPS   C23 2033   1.826   1.742  49.181  0.1360  0.8875  0.1456
   16SAPS   H3R 2034   1.858   1.849  49.176  2.7839  0.1026 -2.2511
   16SAPS   H3S 2035   1.905   1.688  49.238 -0.7692 -0.5316  0.0884
   16SAPS   C24 2036   1.691   1.719  49.253  0.2609  0.5841  0.4768
   16SAPS   H4R 2037   1.686   1.760  49.356  0.5468 -1.6431  1.4230
   16SAPS   H4S 2038   1.684   1.608  49.259  0.7564  0.4799 -0.6071
   16SAPS   C25 2039   1.582   1.762  49.159  1.0799 -0.6009  0.2793
   16SAPS   H5R 2040   1.578   1.871  49.152  2.3412 -0.6086 -1.1249
   16SAPS   C26 2041   1.498   1.688  49.083 -0.5873 -0.3061 -0.1990
   16SAPS   H6R 2042   1.414   1.735  49.028 -1.2765  0.7934  1.6928
   16SAPS   C27 2043   1.468   1.538  49.098 -0.3503  0.6389  0.3774
   16SAPS   H7R 2044   1.571   1.496  49.107 -0.1023  1.2556  0.4955
   16SAPS   H7S 2045   1.428   1.498  49.003 -0.6560 -4.2666  2.3222
   16SAPS   C28 2046   1.405   1.485  49.220  0.8704 -0.6143 -1.2777
   16SAPS   H8R 2047   1.415   1.558  49.302 -2.2019 -0.5053 -0.8991
   16SAPS   C29 2048   1.336   1.378  49.257 -0.3434  0.1512  0.2735
   16SAPS   H9R 2049   1.319   1.362  49.365  0.8191  0.7442  0.5573
   16SAPS  C210 2050   1.327   1.254  49.170  0.1056 -0.8436  0.4233
   16SAPS  H10R 2051   1.366   1.278  49.068 -1.1862 -0.0473  0.0939
   16SAPS  H10S 2052   1.222   1.232  49.143  0.1680 -0.1916 -0.4088
   16SAPS  C211 2053   1.398   1.125  49.204  0.2268 -0.2996 -0.2568
   16SAPS  H11R 2054   1.341   1.066  49.277 -2.1568 -0.6346 -2.2775
   16SAPS  C212 2055   1.523   1.086  49.157  0.3391  0.1563 -0.9467
   16SAPS  H12R 2056   1.559   0.996  49.208 -0.0629 -0.3156 -1.4841
   16SAPS  C213 2057   1.612   1.159  49.060  0.6764 -0.1440  0.5726
   16SAPS  H13R 2058   1.595   1.268  49.047 -2.5627 -0.2784  2.6396
   16SAPS  H13S 2059   1.586   1.122  48.959  0.4484 -0.0657  0.6039
   16SAPS  C214 2060   1.753   1.140  49.093  0.2994  0.5607  0.1366
   16SAPS  H14R 2061   1.805   1.058  49.040  1.3639 -0.0631  2.0311
   16SAPS  C215 2062   1.826   1.208  49.183 -0.1964  0.1761  0.0617
   16SAPS  H15R 2063   1.932   1.180  49.193 -0.0192  0.5692 -0.6500
   16SAPS  C216 2064   1.775   1.334  49.257  0.4541  0.5752 -0.5983
   16SAPS  H16R 2065   1.676   1.371  49.223  0.2106 -0.4326 -1.0030
   16SAPS  H16S 2066   1.852   1.413  49.241 -0.3197  2.4734  3.6050
   16SAPS  C217 2067   1.771   1.306  49.411  0.0825 -0.4825 -0.2191
   16SAPS  H17R 2068   1.874   1.311  49.452  1.0963 -0.1628 -2.6474
   16SAPS  H17S 2069   1.732   1.205  49.435  0.7550 -1.3599 -2.5812
   16SAPS  C218 2070   1.692   1.402  49.502  0.9152 -0.4120  0.4777
   16SAPS  H18R 2071   1.584   1.392  49.477  1.1191 -0.2145 -0.5510
   16SAPS  H18S 2072   1.723   1.507  49.481  0.1526 -0.1587  0.6058
   16SAPS  C219 2073   1.706   1.359  49.656 -0.2264 -0.2674  0.2678
   16SAPS  H19R 2074   1.749   1.257  49.661 -2.0836 -1.1710 -1.2286
   16SAPS  H19S 2075   1.603   1.351  49.695 -1.1371  0.9300 -1.6978
   16SAPS  C220 2076   1.783   1.462  49.735 -0.5627  0.3703  0.0672
   16SAPS  H20R 2077   1.856   1.499  49.659  0.9511 -1.1455  0.7211
   16SAPS  H20S 2078   1.833   1.425  49.827  4.7292 -1.4032 -3.0817
   16SAPS  H20T 2079   1.715   1.549  49.739 -0.9862  0.0857 -0.6857
   16SAPS   C33 2080   2.232   1.746  49.379  0.3924  0.3027 -0.4140
   16SAPS   H3X 2081   2.286   1.651  49.362  0.6976  0.5826 -1.0672
   16SAPS   H3Y 2082   2.126   1.743  49.345 -0.2474  2.1876  1.2160
   16SAPS   C34 2083   2.217   1.732  49.531  0.2688 -0.1607 -0.0327
   16SAPS   H4X 2084   2.146   1.810  49.565  2.8190  2.2553  0.1090
   16SAPS   H4Y 2085   2.316   1.766  49.569  1.6802 -2.8775 -0.9527
   16SAPS   C35 2086   2.181   1.592  49.583  0.3403 -0.5448  0.4465
   16SAPS   H5X 2087   2.272   1.542  49.543  1.5966  1.1809  1.0424
   16SAPS   H5Y 2088   2.090   1.566  49.524  1.5130 -0.3954 -1.4901
   16SAPS   C36 2089   2.166   1.575  49.734  0.1966 -0.4219  0.0128
   16SAPS   H6X 2090   2.083   1.636  49.775  0.9161  1.0329 -0.6171
   16SAPS   H6Y 2091   2.256   1.624  49.776  2.6283 -2.8803 -2.0082
   16SAPS   C37 2092   2.152   1.437  49.789  0.2594 -0.5810 -0.0068
   16SAPS   H7X 2093   2.251   1.387  49.793  1.6678  2.0552  0.2821
   16SAPS   H7Y 2094   2.084   1.369  49.732 -2.1717  1.9350 -0.2917
   16SAPS   C38 2095   2.096   1.431  49.935  1.1235 -0.4356  0.5767
   16SAPS   H8X 2096   2.009   1.500  49.944  0.2495 -1.1737 -1.4632
   16SAPS   H8Y 2097   2.169   1.477  50.004  0.8886  0.2680  0.3682
   16SAPS   C39 2098   2.052   1.295  49.984 -0.2533 -0.0347 -0.9281
   16SAPS   H9X 2099   2.107   1.222  49.921  2.8395  0.4420  0.9881
   16SAPS   H9Y 2100   1.941   1.289  49.989 -0.1422 -1.3833  1.6354
   16SAPS  C310 2101   2.085   1.285  50.133  0.1615 -0.3879 -0.4316
   16SAPS  H10X 2102   2.065   1.377  50.191 -0.5188 -1.3110  0.8492
   16SAPS  H10Y 2103   2.195   1.267  50.138  0.0358 -0.7606  1.8371
   16SAPS  C311 2104   1.997   1.176  50.197 -0.2369  0.0660  0.0025
   16SAPS  H11X 2105   2.061   1.128  50.273  0.1404 -0.6668 -0.7593
   16SAPS  H11Y 2106   1.966   1.097  50.125  0.0882 -0.0387 -0.0263
   16SAPS  C312 2107   1.873   1.226  50.263  0.1607 -0.3736  1.0407
   16SAPS  H12X 2108   1.782   1.217  50.200  2.3754 -3.2872 -2.0935
   16SAPS  H12Y 2109   1.872   1.336  50.282 -0.4618  0.3376 -2.3494
   16SAPS  C313 2110   1.841   1.159  50.390  0.1214 -0.5081  1.0789
   16SAPS  H13X 2111   1.742   1.188  50.432 -0.2488  0.0613 -0.1566
   16SAPS  H13Y 2112   1.927   1.185  50.455  0.9907 -2.2146  0.6867
   16SAPS  C314 2113   1.824   1.001  50.374  1.0806  0.1692  0.5593
   16SAPS  H14X 2114   1.901   0.968  50.302 -0.7422 -1.5348 -0.6944
   16SAPS  H14Y 2115   1.725   0.977  50.330  2.1084  1.4963 -2.7248
   16SAPS  C315 2116   1.832   0.939  50.518 -0.5491 -0.1243 -0.6397
   16SAPS  H15X 2117   1.734   0.961  50.567  0.4747 -2.5014  2.8869
   16SAPS  H15Y 2118   1.907   1.001  50.572 -2.1767  2.1610 -0.8798
   16SAPS  C316 2119   1.883   0.805  50.519  0.4119  1.0256 -0.2796
   16SAPS  H16X 2120   1.971   0.797  50.453  0.4328  0.2745 -0.1690
   16SAPS  H16Y 2121   1.806   0.735  50.478  0.0717  1.4292 -0.3430
   16SAPS  C317 2122   1.900   0.747  50.665 -0.4311  0.2302 -0.3416
   16SAPS  H17X 2123   1.823   0.670  50.685  0.5352 -0.7317 -0.2457
   16SAPS  H17Y 2124   1.903   0.834  50.734  2.5013  1.8481 -2.3383
   16SAPS  C318 2125   2.044   0.689  50.685 -0.3353 -0.7059 -0.4275
   16SAPS  H18X 2126   2.055   0.658  50.791  0.6597 -2.1485 -0.9216
   16SAPS  H18Y 2127   2.124   0.762  50.658 -0.1455 -1.0749 -0.8822
   16SAPS  H18Z 2128   2.068   0.596  50.629  1.0012 -0.3428 -0.4977
   17SAPC     N 2129   1.440   0.413  57.825  0.3707 -0.2409 -0.2477
   17SAPC   C12 2130   1.417   0.456  57.679  0.6692  0.5426 -0.0786
   17SAPC  H12A 2131   1.482   0.540  57.655 -1.1690  1.7515 -1.0376
   17SAPC  H12B 2132   1.319   0.501  57.674  0.3456 -0.2508 -1.2352
   17SAPC   C13 2133   1.440   0.529  57.919 -0.5466 -1.1074 -0.6756
   17SAPC  H13A 2134   1.407   0.505  58.019  1.3065 -1.9511 -0.2162
   17SAPC  H13B 2135   1.542   0.564  57.928 -0.7457 -0.6905  0.0076
   17SAPC  H13C 2136   1.392   0.613  57.871  0.4465  0.6528  1.2832
   17SAPC   C14 2137   1.319   0.335  57.862  0.3877 -0.4954  0.4239
   17SAPC  H14A 2138   1.332   0.319  57.968  1.4679 -2.6928  0.0322
   17SAPC  H14B 2139   1.245   0.410  57.845  1.9327  0.8242 -0.7956
   17SAPC  H14C 2140   1.303   0.241  57.811 -2.0788 -0.9197  1.8389
   17SAPC   C15 2141   1.558   0.327  57.829  0.1390 -0.1262 -0.0707
   17SAPC  H15A 2142   1.592   0.308  57.930 -2.7072 -0.6168  0.8948
   17SAPC  H15B 2143   1.533   0.235  57.778 -1.4449 -1.4425  2.8668
   17SAPC  H15C 2144   1.642   0.372  57.778 -2.6364  2.9796 -2.3463
   17SAPC   C11 2145   1.438   0.348  57.572 -0.3023  0.0363 -1.0155
   17SAPC  H11A 2146   1.373   0.264  57.606  2.5368 -1.4397  1.2023
   17SAPC  H11B 2147   1.540   0.308  57.555 -0.9634 -1.8669 -0.8187
   17SAPC     P 2148   1.395   0.492  57.345  0.6581 -0.1007  0.4915
   17SAPC   O13 2149   1.274   0.575  57.367  0.0470  0.2614  0.2012
   17SAPC   O14 2150   1.521   0.563  57.338  0.8840 -0.0067 -0.1126
   17SAPC   O12 2151   1.393   0.386  57.446  0.3585  0.6426  0.2380
   17SAPC   O11 2152   1.373   0.420  57.213 -0.1315 -0.1000  0.2473
   17SAPC    C1 2153   1.450   0.316  57.156  0.9528 -0.4770 -0.4850
   17SAPC    HA 2154   1.501   0.349  57.064 -0.7193  0.8806 -0.9685
   17SAPC    HB 2155   1.531   0.283  57.226  0.5838  1.7349  1.1108
   17SAPC    C2 2156   1.374   0.184  57.128  0.3513 -0.2069 -0.1257
   17SAPC    HS 2157   1.439   0.117  57.188  0.8459  0.7260  0.4131
   17SAPC   O21 2158   1.381   0.150  56.985  0.1002  0.3586 -1.0581
   17SAPC   C21 2159   1.505   0.134  56.936 -0.8363 -0.5403 -0.3159
   17SAPC   O22 2160   1.605   0.116  57.007  0.2150 -0.1918  0.3451
   17SAPC   C22 2161   1.502   0.164  56.788  0.0578  0.9951 -0.6267
   17SAPC   H2R 2162   1.427   0.243  56.764 -2.3766 -1.4499 -1.4776
   17SAPC   H2S 2163   1.600   0.206  56.755  0.3708  2.0286  1.4393
   17SAPC    C3 2164   1.228   0.186  57.183  0.1163 -0.3296 -0.4635
   17SAPC    HX 2165   1.165   0.242  57.110 -0.3896 -1.0732 -0.6141
   17SAPC    HY 2166   1.220   0.247  57.275  0.3366 -0.5624 -0.2897
   17SAPC   O31 2167   1.165   0.054  57.186  0.0757 -0.0333  0.6335
   17SAPC   C31 2168   1.035   0.038  57.178  0.0180  0.8646  0.0485
   17SAPC   O32 2169   0.951   0.129  57.192 -0.8943 -0.3772  0.0595
   17SAPC   C32 2170   1.010  -0.109  57.146 -0.4550  0.7536  0.3972
   17SAPC   H2X 2171   1.107  -0.161  57.131 -0.8927  0.6679 -2.8782
   17SAPC   H2Y 2172   0.964  -0.115  57.045  0.0723 -0.3840  0.2064
   17SAPC   C23 2173   1.445   0.048  56.695  0.0888 -0.7066  0.3140
   17SAPC   H3R 2174   1.373  -0.015  56.751 -1.0832 -3.1815 -3.5876
   17SAPC   H3S 2175   1.523  -0.027  56.667  0.0375 -0.9415  0.7896
   17SAPC   C24 2176   1.368   0.111  56.576  0.3913  0.7662 -0.5190
   17SAPC   H4R 2177   1.302   0.180  56.633 -0.8989  2.0487 -3.3761
   17SAPC   H4S 2178   1.294   0.042  56.531  0.9248  1.4090 -2.5102
   17SAPC   C25 2179   1.446   0.186  56.466 -0.3521 -0.0697 -0.3654
   17SAPC   H5R 2180   1.462   0.294  56.483 -2.4363  0.3518 -0.8400
   17SAPC   C26 2181   1.481   0.135  56.339  0.5682 -0.1901  0.7679
   17SAPC   H6R 2182   1.524   0.206  56.267 -1.1117  1.0153  0.8833
   17SAPC   C27 2183   1.468  -0.006  56.285 -0.5076 -0.2705  0.5797
   17SAPC   H7R 2184   1.525  -0.005  56.190 -1.3832 -2.0485 -0.0219
   17SAPC   H7S 2185   1.363  -0.028  56.256  0.6479 -3.6891 -1.6395
   17SAPC   C28 2186   1.516  -0.129  56.352  0.0444 -0.0774 -0.5786
   17SAPC   H8R 2187   1.444  -0.186  56.411  1.1554  0.5579  1.4667
   17SAPC   C29 2188   1.649  -0.174  56.337  0.8325  0.3918  0.6352
   17SAPC   H9R 2189   1.663  -0.274  56.380 -1.6002 -1.0890 -1.6694
   17SAPC  C210 2190   1.766  -0.122  56.271 -0.1208 -0.5109 -0.2787
   17SAPC  H10R 2191   1.733  -0.091  56.169 -0.3579  2.6428  0.6348
   17SAPC  H10S 2192   1.846  -0.199  56.263  0.6753 -0.0960  2.4339
   17SAPC  C211 2193   1.837  -0.002  56.328 -0.8608  0.3216 -0.6753
   17SAPC  H11R 2194   1.816   0.003  56.436  0.6763 -4.2996  0.0376
   17SAPC  C212 2195   1.934   0.079  56.274  0.0657  1.5742 -0.0836
   17SAPC  H12R 2196   1.982   0.157  56.335 -0.0010  1.4259  0.1598
   17SAPC  C213 2197   1.969   0.090  56.128  0.8768  0.0253  0.3220
   17SAPC  H13R 2198   2.068   0.140  56.115  1.9726 -1.3753  2.6345
   17SAPC  H13S 2199   1.890   0.145  56.072 -0.5286 -2.1989  0.0161
   17SAPC  C214 2200   2.000  -0.043  56.052  0.1733 -0.8578  0.2788
   17SAPC  H14R 2201   2.080  -0.106  56.093 -1.3320 -2.1114  1.4442
   17SAPC  C215 2202   1.922  -0.102  55.952 -0.9455 -0.0276  0.3510
   17SAPC  H15R 2203   1.975  -0.193  55.917 -1.4182 -0.7162  1.3735
   17SAPC  C216 2204   1.800  -0.047  55.884 -0.9424  0.2545  0.0975
   17SAPC  H16R 2205   1.766   0.052  55.923  0.3758  1.9117 -2.6472
   17SAPC  H16S 2206   1.714  -0.117  55.890  0.3532 -1.4842 -1.0945
   17SAPC  C217 2207   1.834  -0.021  55.737  0.3555  0.2980 -0.8796
   17SAPC  H17R 2208   1.841  -0.114  55.676 -1.3972 -0.7187  0.3635
   17SAPC  H17S 2209   1.930   0.034  55.735 -0.2524  1.5026  0.9009
   17SAPC  C218 2210   1.720   0.056  55.667  0.7194  0.5210 -0.5151
   17SAPC  H18R 2211   1.710   0.164  55.692 -1.1438 -0.1464  2.0649
   17SAPC  H18S 2212   1.633  -0.011  55.686  1.3543  0.2093  1.6084
   17SAPC  C219 2213   1.739   0.061  55.510  0.3220 -0.4887 -0.5666
   17SAPC  H19R 2214   1.819   0.135  55.487 -1.9038  2.0213 -0.8733
   17SAPC  H19S 2215   1.642   0.096  55.467  0.9082 -0.5351 -1.9662
   17SAPC  C220 2216   1.791  -0.076  55.437  0.6349 -0.3845 -0.3614
   17SAPC  H20R 2217   1.717  -0.152  55.468 -0.5312  1.0495  0.4865
   17SAPC  H20S 2218   1.899  -0.100  55.451  1.2236  0.9993 -2.1141
   17SAPC  H20T 2219   1.778  -0.060  55.328 -0.9479 -3.2319 -0.6944
   17SAPC   C33 2220   0.918  -0.181  57.249  0.3251  0.5198  0.1371
   17SAPC   H3X 2221   0.875  -0.269  57.197  1.9632 -0.6284  0.6475
   17SAPC   H3Y 2222   0.837  -0.110  57.278  0.6762  1.0931 -0.2681
   17SAPC   C34 2223   0.986  -0.224  57.374  0.0180  0.5572  0.4645
   17SAPC   H4X 2224   0.904  -0.247  57.446 -1.5104 -2.7807 -2.1031
   17SAPC   H4Y 2225   1.039  -0.135  57.414 -0.7720  1.1503  0.2256
   17SAPC   C35 2226   1.084  -0.341  57.361 -0.2739 -0.6568  0.5887
   17SAPC   H5X 2227   1.186  -0.318  57.323 -1.2413  1.5279 -0.8675
   17SAPC   H5Y 2228   1.044  -0.413  57.287 -0.2182  0.7000 -0.8038
   17SAPC   C36 2229   1.078  -0.420  57.488  0.0876  0.4305 -0.4621
   17SAPC   H6X 2230   0.978  -0.467  57.499  2.1206 -3.8161  2.8596
   17SAPC   H6Y 2231   1.094  -0.349  57.571  1.1239  1.2361 -1.3359
   17SAPC   C37 2232   1.177  -0.541  57.509  0.5169 -0.2871  0.1333
   17SAPC   H7X 2233   1.157  -0.568  57.614 -0.0398 -2.3798 -0.4661
   17SAPC   H7Y 2234   1.281  -0.501  57.501 -0.2083  2.0795  1.6158
   17SAPC   C38 2235   1.140  -0.669  57.418 -0.8954 -0.8260 -0.8630
   17SAPC   H8X 2236   1.151  -0.654  57.309  2.3097 -0.6378 -0.6051
   17SAPC   H8Y 2237   1.031  -0.661  57.435 -0.4179  2.2281  1.7575
   17SAPC   C39 2238   1.182  -0.812  57.460 -0.2572 -0.3898  0.3757
   17SAPC   H9X 2239   1.178  -0.894  57.385  3.9652  0.4406 -1.0473
   17SAPC   H9Y 2240   1.110  -0.836  57.541 -0.5927  0.7831  0.4393
   17SAPC  C310 2241   1.317  -0.827  57.523  0.3689  0.4457  0.1116
   17SAPC  H10X 2242   1.336  -0.929  57.565 -0.5731  0.7213  1.2751
   17SAPC  H10Y 2243   1.315  -0.753  57.606 -2.6935  0.8231 -0.2011
   17SAPC  C311 2244   1.441  -0.798  57.436 -0.9366 -0.2268 -0.0879
   17SAPC  H11X 2245   1.409  -0.725  57.359 -3.2275  0.0016  1.0044
   17SAPC  H11Y 2246   1.469  -0.886  57.374 -1.5054  0.2056 -0.9876
   17SAPC  C312 2247   1.568  -0.766  57.508  0.0563 -0.8075 -0.2967
   17SAPC  H12X 2248   1.575  -0.845  57.586  1.0337 -0.6550 -0.2177
   17SAPC  H12Y 2249   1.561  -0.670  57.565  0.1921 -0.3235 -1.0910
   17SAPC  C313 2250   1.696  -0.750  57.421 -0.2132 -0.2252 -1.0256
   17SAPC  H13X 2251   1.669  -0.681  57.339 -0.2068  0.9421 -0.0750
   17SAPC  H13Y 2252   1.731  -0.853  57.397  1.0375 -0.5239  1.6099
   17SAPC  C314 2253   1.826  -0.698  57.491  0.0864 -0.0725 -0.3177
   17SAPC  H14X 2254   1.846  -0.770  57.574  0.6159  0.6616  0.2056
   17SAPC  H14Y 2255   1.807  -0.607  57.552  0.4825  0.8877 -1.5899
   17SAPC  C315 2256   1.946  -0.684  57.404 -0.7673 -0.5646  0.2342
   17SAPC  H15X 2257   1.992  -0.780  57.373 -1.3949 -0.0101 -2.7233
   17SAPC  H15Y 2258   2.038  -0.645  57.453  0.0322 -1.3920 -0.5741
   17SAPC  C316 2259   1.916  -0.595  57.278 -0.0987  0.4865  0.6969
   17SAPC  H16X 2260   1.862  -0.507  57.317 -0.2563  0.9748 -0.5722
   17SAPC  H16Y 2261   1.842  -0.655  57.220 -1.5228  1.4577  1.4643
   17SAPC  C317 2262   2.036  -0.545  57.205 -0.9880  0.3643  0.5660
   17SAPC  H17X 2263   2.117  -0.619  57.217  1.6748  3.2255  1.6420
   17SAPC  H17Y 2264   2.062  -0.448  57.254 -0.9078  0.6378 -0.0103
   17SAPC  C318 2265   2.007  -0.508  57.056 -0.4791 -0.1879 -0.1189
   17SAPC  H18X 2266   1.930  -0.428  57.050  1.7051  2.0019 -0.3488
   17SAPC  H18Y 2267   2.105  -0.484  57.009  0.2330 -4.8646 -1.4976
   17SAPC  H18Z 2268   1.969  -0.600  57.007  1.2764 -0.0121 -1.9319
   18SAPC     N 2269   0.197   0.196  59.388  0.5233  0.5222  0.1592
   18SAPC   C12 2270   0.161   0.277  59.259 -0.1935  0.8227 -0.0688
   18SAPC  H12A 2271   0.106   0.214  59.191  2.4228  1.3683 -2.8989
   18SAPC  H12B 2272   0.258   0.300  59.218  0.2668 -2.2159 -0.9225
   18SAPC   C13 2273   0.298   0.090  59.351  0.4784 -0.1329  0.3772
   18SAPC  H13A 2274   0.364   0.061  59.431  1.5431  2.6672  0.6234
   18SAPC  H13B 2275   0.250   0.005  59.304 -2.4210 -0.2025  3.1544
   18SAPC  H13C 2276   0.369   0.126  59.278 -2.1658 -0.2224 -2.4753
   18SAPC   C14 2277   0.242   0.290  59.496 -0.3368 -0.8982  0.0278
   18SAPC  H14A 2278   0.274   0.247  59.590  1.7432 -1.6858 -0.9814
   18SAPC  H14B 2279   0.322   0.350  59.455 -1.5834 -0.3267 -1.6495
   18SAPC  H14C 2280   0.156   0.350  59.521  0.9382  0.7987  0.5283
   18SAPC   C15 2281   0.069   0.139  59.428 -0.2253  1.1810 -0.4555
   18SAPC  H15A 2282   0.013   0.079  59.358 -1.7975  0.1317  1.5594
   18SAPC  H15B 2283   0.085   0.087  59.522  0.8035  2.0505 -0.1335
   18SAPC  H15C 2284   0.005   0.225  59.447  1.2595  2.0657  0.7897
   18SAPC   C11 2285   0.073   0.399  59.278 -0.1563  0.2498 -0.3668
   18SAPC  H11A 2286   0.051   0.435  59.176 -4.0797  1.5151  0.7631
   18SAPC  H11B 2287   0.135   0.480  59.324  0.6544 -1.2682  1.3338
   18SAPC     P 2288  -0.182   0.372  59.286 -0.1044 -0.0794  0.3921
   18SAPC   O13 2289  -0.242   0.508  59.281  0.0695 -0.6631  0.3345
   18SAPC   O14 2290  -0.168   0.307  59.158 -0.6295 -0.8506 -0.6280
   18SAPC   O12 2291  -0.042   0.377  59.354  0.8448  0.5181  0.2070
   18SAPC   O11 2292  -0.259   0.276  59.380 -0.0101 -0.1595 -0.5913
   18SAPC    C1 2293  -0.373   0.209  59.333  1.2197 -0.3082  0.4066
   18SAPC    HA 2294  -0.470   0.260  59.353 -0.5174 -2.3501 -2.0841
   18SAPC    HB 2295  -0.372   0.199  59.223 -1.5584 -1.8818  0.4181
   18SAPC    C2 2296  -0.386   0.059  59.369  0.2248 -0.2751 -0.0661
   18SAPC    HS 2297  -0.461   0.012  59.302 -0.1668  1.7057 -1.0727
   18SAPC   O21 2298  -0.415   0.055  59.503 -0.2050  0.6396 -0.6684
   18SAPC   C21 2299  -0.530   0.111  59.542  0.5430  0.4665 -0.0410
   18SAPC   O22 2300  -0.627   0.126  59.464 -0.2773 -0.0660  0.4397
   18SAPC   C22 2301  -0.522   0.150  59.690  1.3180  0.6806 -0.2089
   18SAPC   H2R 2302  -0.525   0.261  59.699  2.5625  0.5828  1.9248
   18SAPC   H2S 2303  -0.604   0.104  59.750 -0.5136  1.1570 -2.2119
   18SAPC    C3 2304  -0.252  -0.019  59.352 -0.3151 -0.0077  0.2175
   18SAPC    HX 2305  -0.183   0.014  59.433 -0.0570 -3.2164  1.4553
   18SAPC    HY 2306  -0.207   0.013  59.255  0.7604  0.9704  1.0079
   18SAPC   O31 2307  -0.273  -0.162  59.368 -0.5712 -0.7785  0.0932
   18SAPC   C31 2308  -0.161  -0.238  59.357  0.1106  0.7201  0.4347
   18SAPC   O32 2309  -0.050  -0.199  59.350 -0.2520 -0.1499  1.0983
   18SAPC   C32 2310  -0.200  -0.385  59.385 -0.3794 -1.0462  0.0949
   18SAPC   H2X 2311  -0.293  -0.373  59.444  1.2717 -0.3500  2.7006
   18SAPC   H2Y 2312  -0.119  -0.408  59.456  0.8616  1.0142 -0.5747
   18SAPC   C23 2313  -0.380   0.142  59.765  0.8213 -0.2163  0.3036
   18SAPC   H3R 2314  -0.368   0.226  59.836 -1.4587 -0.6095  1.2590
   18SAPC   H3S 2315  -0.300   0.163  59.691  0.3664 -0.1287 -0.1731
   18SAPC   C24 2316  -0.365   0.004  59.839 -0.2424 -0.3125  0.7868
   18SAPC   H4R 2317  -0.443  -0.011  59.916  0.7759  0.3296  2.0002
   18SAPC   H4S 2318  -0.269   0.012  59.895  0.7515 -4.0480 -0.1072
   18SAPC   C25 2319  -0.363  -0.109  59.739 -0.3741 -0.3386  0.6995
   18SAPC   H5R 2320  -0.286  -0.104  59.660  0.4576  5.7162  1.4140
   18SAPC   C26 2321  -0.444  -0.218  59.741  0.0396  0.1741 -0.1362
   18SAPC   H6R 2322  -0.423  -0.300  59.671 -2.5392 -2.8570  2.2961
   18SAPC   C27 2323  -0.555  -0.252  59.837  0.2515 -0.5097  0.1872
   18SAPC   H7R 2324  -0.601  -0.348  59.805 -1.1467  0.1358  0.2269
   18SAPC   H7S 2325  -0.635  -0.176  59.831  1.2193  0.6884  1.7681
   18SAPC   C28 2326  -0.514  -0.258  59.981  0.0452  0.8244  0.2696
   18SAPC   H8R 2327  -0.531  -0.163  60.034  0.4698  1.5270 -0.8129
   18SAPC   C29 2328  -0.469  -0.368  60.051 -1.6592 -0.0363 -0.6303
   18SAPC   H9R 2329  -0.457  -0.362  60.160 -2.1788  0.6144 -0.5989
   18SAPC  C210 2330  -0.432  -0.510  60.010 -0.0254 -0.8714  0.3813
   18SAPC  H10R 2331  -0.324  -0.524  59.992 -0.4922 -1.3498 -2.4282
   18SAPC  H10S 2332  -0.482  -0.540  59.916  0.6201 -0.5424 -0.0647
   18SAPC  C211 2333  -0.482  -0.609  60.109 -0.2370  0.4258 -0.3378
   18SAPC  H11R 2334  -0.590  -0.630  60.110 -0.1232 -0.8153  3.3571
   18SAPC  C212 2335  -0.402  -0.685  60.199 -0.0139 -0.5053 -0.6406
   18SAPC  H12R 2336  -0.448  -0.761  60.264  2.6558 -2.8944 -1.3418
   18SAPC  C213 2337  -0.249  -0.692  60.188 -0.2748 -0.2808  0.6162
   18SAPC  H13R 2338  -0.212  -0.751  60.275  0.4285  0.4690  0.8346
   18SAPC  H13S 2339  -0.205  -0.592  60.209 -0.2342 -0.4216  1.2302
   18SAPC  C214 2340  -0.182  -0.745  60.054  0.9821  0.7953 -0.0534
   18SAPC  H14R 2341  -0.128  -0.666  60.001 -1.1752  2.3925  0.0199
   18SAPC  C215 2342  -0.178  -0.871  60.007  1.2688 -1.0982  0.4178
   18SAPC  H15R 2343  -0.141  -0.904  59.909 -0.5644  2.5886 -1.7427
   18SAPC  C216 2344  -0.236  -0.980  60.086  0.3156  0.0364  0.4033
   18SAPC  H16R 2345  -0.339  -1.001  60.048  1.0513 -0.6834 -1.2997
   18SAPC  H16S 2346  -0.231  -0.954  60.194  1.4580 -0.2232  0.4131
   18SAPC  C217 2347  -0.157  -1.107  60.078 -0.7838  0.0631 -0.0602
   18SAPC  H17R 2348  -0.161  -1.165  60.172 -0.8581 -1.7991 -1.1582
   18SAPC  H17S 2349  -0.052  -1.089  60.047 -1.9982  1.9436 -3.7695
   18SAPC  C218 2350  -0.206  -1.195  59.966  0.2880 -0.1831 -0.4589
   18SAPC  H18R 2351  -0.232  -1.124  59.884 -0.1245  2.0317  1.4696
   18SAPC  H18S 2352  -0.307  -1.239  59.981 -0.7935  1.7331 -1.6320
   18SAPC  C219 2353  -0.107  -1.306  59.921 -0.0256  0.4676  0.7981
   18SAPC  H19R 2354  -0.156  -1.357  59.835 -5.8978  4.4609  1.2155
   18SAPC  H19S 2355  -0.090  -1.369  60.011  1.0161  2.2672  1.9237
   18SAPC  C220 2356   0.037  -1.264  59.879  0.1590 -0.1757 -0.1486
   18SAPC  H20R 2357   0.075  -1.332  59.801  0.0440  0.9727 -1.2447
   18SAPC  H20S 2358   0.104  -1.286  59.965  0.0395 -2.1652 -0.5354
   18SAPC  H20T 2359   0.045  -1.155  59.859  0.4944  0.1985  1.7905
   18SAPC   C33 2360  -0.209  -0.479  59.266  0.3155 -0.4570  0.4406
   18SAPC   H3X 2361  -0.267  -0.434  59.183  3.1690 -1.9942 -2.5920
   18SAPC   H3Y 2362  -0.263  -0.569  59.302  1.3567 -1.2252  0.1031
   18SAPC   C34 2363  -0.068  -0.524  59.219  0.7725 -1.1549 -0.1857
   18SAPC   H4X 2364  -0.042  -0.625  59.257  0.2733 -1.4036 -0.4952
   18SAPC   H4Y 2365   0.005  -0.445  59.246 -0.8881  0.7286 -0.9623
   18SAPC   C35 2366  -0.060  -0.522  59.066 -0.1062 -0.3147  0.0438
   18SAPC   H5X 2367  -0.077  -0.417  59.031  1.5502 -0.4321 -1.2493
   18SAPC   H5Y 2368  -0.143  -0.584  59.025 -1.4403  2.1102 -1.1917
   18SAPC   C36 2369   0.074  -0.561  59.010  0.9681 -0.3277  0.4308
   18SAPC   H6X 2370   0.154  -0.511  59.068  1.4467  1.7812 -1.8501
   18SAPC   H6Y 2371   0.069  -0.538  58.901  1.0973 -1.7011  0.1219
   18SAPC   C37 2372   0.099  -0.707  59.001 -0.6581  0.8100 -0.0735
   18SAPC   H7X 2373   0.037  -0.770  58.934  1.4998  1.1813 -2.5565
   18SAPC   H7Y 2374   0.084  -0.753  59.101  2.3824  2.2507  1.1618
   18SAPC   C38 2375   0.243  -0.741  58.966 -0.4160 -0.4560 -0.9513
   18SAPC   H8X 2376   0.266  -0.844  58.999 -0.2227  0.2163  1.1755
   18SAPC   H8Y 2377   0.312  -0.683  59.030 -2.2191  0.8927 -0.1429
   18SAPC   C39 2378   0.275  -0.713  58.816 -0.8166 -0.3385 -0.0463
   18SAPC   H9X 2379   0.263  -0.604  58.796 -1.4042  0.0705  2.2783
   18SAPC   H9Y 2380   0.197  -0.761  58.753 -2.7893  1.1972  1.1177
   18SAPC  C310 2381   0.419  -0.737  58.788  0.0530  0.0883  0.0856
   18SAPC  H10X 2382   0.439  -0.841  58.820 -1.6688  0.1170  1.3456
   18SAPC  H10Y 2383   0.484  -0.669  58.848 -1.4151  1.1777  0.4752
   18SAPC  C311 2384   0.457  -0.721  58.640  0.7157  1.1671 -0.0588
   18SAPC  H11X 2385   0.567  -0.733  58.635  0.4270 -3.9993  0.9774
   18SAPC  H11Y 2386   0.418  -0.624  58.600 -0.7223  1.4477  1.8773
   18SAPC  C312 2387   0.390  -0.813  58.541 -0.0968  0.5477 -0.4236
   18SAPC  H12X 2388   0.285  -0.779  58.532 -0.8420 -1.3819  0.4676
   18SAPC  H12Y 2389   0.409  -0.913  58.587  2.3468 -0.3417 -2.9809
   18SAPC  C313 2390   0.442  -0.827  58.394  0.0793 -0.2697  0.0209
   18SAPC  H13X 2391   0.552  -0.829  58.404 -0.0595 -2.7999  2.4524
   18SAPC  H13Y 2392   0.393  -0.741  58.344 -0.8474 -0.5413  0.4361
   18SAPC  C314 2393   0.406  -0.947  58.318 -0.7913  0.1638 -0.6092
   18SAPC  H14X 2394   0.429  -1.040  58.374  1.5888 -0.4296 -2.4212
   18SAPC  H14Y 2395   0.482  -0.939  58.238 -1.1151  1.4667 -0.8025
   18SAPC  C315 2396   0.269  -0.963  58.264 -0.5628  0.4213 -0.0062
   18SAPC  H15X 2397   0.263  -1.040  58.185  3.2823 -1.1410  1.0173
   18SAPC  H15Y 2398   0.227  -0.864  58.235 -1.8379  0.1209  0.7136
   18SAPC  C316 2399   0.174  -1.008  58.382 -0.0987 -0.4325  0.4485
   18SAPC  H16X 2400   0.232  -1.020  58.476  0.1370  0.6096  0.4402
   18SAPC  H16Y 2401   0.144  -1.113  58.361 -1.9439 -0.3216  2.2214
   18SAPC  C317 2402   0.044  -0.931  58.402 -1.0995 -0.0423 -0.2896
   18SAPC  H17X 2403  -0.012  -0.956  58.309  3.0671 -4.4080 -2.0746
   18SAPC  H17Y 2404   0.054  -0.821  58.405 -1.1619 -0.0102  3.1989
   18SAPC  C318 2405  -0.023  -0.978  58.525 -0.6885  0.0210 -0.1215
   18SAPC  H18X 2406   0.038  -0.953  58.614  0.3588 -1.9827 -0.2179
   18SAPC  H18Y 2407  -0.027  -1.089  58.517  0.8724 -0.0459 -0.4374
   18SAPC  H18Z 2408  -0.125  -0.937  58.540 -1.5308 -1.3745 -1.6298
   19SAPC     N 2409   0.447   0.154  69.572 -0.5363  0.0837  0.8903
   19SAPC   C12 2410   0.529   0.175  69.692 -0.2052 -0.3864  0.5976
   19SAPC  H12A 2411   0.631   0.193  69.660 -0.4275 -0.8719 -0.4583
   19SAPC  H12B 2412   0.525   0.087  69.754 -2.2154 -0.0936  0.9488
   19SAPC   C13 2413   0.510   0.053  69.482  0.4756  0.6475  0.1917
   19SAPC  H13A 2414   0.451   0.042  69.392  1.1334  0.5321 -0.2300
   19SAPC  H13B 2415   0.611   0.085  69.460  0.5094  2.2458  2.3562
   19SAPC  H13C 2416   0.517  -0.042  69.532  0.6113  0.8561  0.5673
   19SAPC   C14 2417   0.315   0.110  69.619  0.5469  0.8216 -0.0764
   19SAPC  H14A 2418   0.243   0.103  69.539  2.0408  3.1397 -1.7538
   19SAPC  H14B 2419   0.311   0.018  69.676  0.3708  1.6379  1.2720
   19SAPC  H14C 2420   0.276   0.188  69.682 -2.5876 -0.1213 -0.6880
   19SAPC   C15 2421   0.433   0.277  69.498 -0.7032  0.5672 -0.2114
   19SAPC  H15A 2422   0.372   0.357  69.537 -1.2862 -0.5224  1.2172
   19SAPC  H15B 2423   0.528   0.316  69.464  0.2526 -0.0022  1.6376
   19SAPC  H15C 2424   0.370   0.263  69.411 -3.0998  0.1347  1.4865
   19SAPC   C11 2425   0.497   0.294  69.781 -0.7323  0.2232 -0.2012
   19SAPC  H11A 2426   0.478   0.388  69.726  0.7814  0.6964  0.0493
   19SAPC  H11B 2427   0.586   0.321  69.841 -0.8751 -2.6851  1.4867
   19SAPC     P 2428   0.375   0.272  70.005 -0.4060  0.0245  0.1449
   19SAPC   O13 2429   0.235   0.285  70.051  0.2077  0.0179  0.3595
   19SAPC   O14 2430   0.436   0.150  70.046  0.6415  0.5453 -1.3105
   19SAPC   O12 2431   0.375   0.281  69.850 -0.5317  0.5895 -0.2764
   19SAPC   O11 2432   0.454   0.402  70.060 -0.1971 -0.4763  0.2805
   19SAPC    C1 2433   0.552   0.383  70.164  0.9655 -0.1323  0.4115
   19SAPC    HA 2434   0.531   0.467  70.234 -1.7855 -0.9168  0.6494
   19SAPC    HB 2435   0.524   0.304  70.237 -1.0222  1.0643  1.0422
   19SAPC    C2 2436   0.691   0.359  70.104  0.4150  0.6900  0.6131
   19SAPC    HS 2437   0.677   0.285  70.022 -1.0653  1.5331  0.0599
   19SAPC   O21 2438   0.773   0.312  70.206 -0.1483  0.0599 -0.5308
   19SAPC   C21 2439   0.871   0.232  70.183  0.4702  0.0984  0.9019
   19SAPC   O22 2440   0.903   0.178  70.075 -0.5278 -0.4281  0.1685
   19SAPC   C22 2441   0.937   0.221  70.314 -0.0560  0.0877 -0.1559
   19SAPC   H2R 2442   1.010   0.306  70.312 -0.1172  0.1592  0.4833
   19SAPC   H2S 2443   0.869   0.227  70.402  2.9016 -0.8267  2.4146
   19SAPC    C3 2444   0.749   0.486  70.039 -0.1034 -0.6142  0.9689
   19SAPC    HX 2445   0.764   0.573  70.107  1.4044  0.4703 -0.6515
   19SAPC    HY 2446   0.670   0.512  69.965  0.6311 -0.2425  0.3035
   19SAPC   O31 2447   0.885   0.471  69.983 -0.5310 -0.0218  0.5083
   19SAPC   C31 2448   0.890   0.495  69.849  0.3955 -0.6929  0.2115
   19SAPC   O32 2449   0.790   0.518  69.777 -0.2845 -0.7777  0.2721
   19SAPC   C32 2450   1.030   0.473  69.802 -0.7908 -0.2876 -0.2242
   19SAPC   H2X 2451   1.039   0.396  69.723 -2.8608 -0.9842  0.1542
   19SAPC   H2Y 2452   1.089   0.429  69.885 -3.6349 -0.4903  1.8583
   19SAPC   C23 2453   1.010   0.082  70.339 -0.4817  0.2631  0.7539
   19SAPC   H3R 2454   1.119   0.096  70.320 -0.7600 -0.2061 -1.3981
   19SAPC   H3S 2455   0.982   0.005  70.265 -0.5074  1.4423 -0.5155
   19SAPC   C24 2456   0.990   0.023  70.475 -0.4511 -0.1103  0.6237
   19SAPC   H4R 2457   0.886  -0.012  70.495  0.0698 -0.2993  3.3330
   19SAPC   H4S 2458   1.018   0.114  70.533  2.0688 -1.6942  2.0272
   19SAPC   C25 2459   1.096  -0.087  70.488 -0.6404 -0.4623 -0.5206
   19SAPC   H5R 2460   1.087  -0.169  70.415  3.2229 -1.6755  0.1280
   19SAPC   C26 2461   1.220  -0.090  70.554 -0.6349  0.4457  0.5244
   19SAPC   H6R 2462   1.269  -0.188  70.544 -2.1809 -0.5840  2.4839
   19SAPC   C27 2463   1.280   0.001  70.653  0.5902  0.1745 -1.0056
   19SAPC   H7R 2464   1.224  -0.018  70.747  1.7185 -0.3688 -0.4139
   19SAPC   H7S 2465   1.261   0.105  70.620  0.8343  0.3919 -0.4853
   19SAPC   C28 2466   1.425  -0.020  70.697  0.7208  0.0373 -0.4896
   19SAPC   H8R 2467   1.464  -0.106  70.641  2.4815 -0.4163  1.2946
   19SAPC   C29 2468   1.504   0.049  70.784  0.2246 -0.5699 -0.2796
   19SAPC   H9R 2469   1.608   0.013  70.798  0.5784  0.1833 -0.8935
   19SAPC  C210 2470   1.469   0.166  70.870  0.1161 -0.1121 -0.2437
   19SAPC  H10R 2471   1.360   0.185  70.886  0.3445  0.4173  0.7261
   19SAPC  H10S 2472   1.507   0.256  70.819  0.2816  0.1837  0.3903
   19SAPC  C211 2473   1.515   0.159  71.015  0.1241 -0.1786 -0.7925
   19SAPC  H11R 2474   1.587   0.239  71.038 -0.8551  0.8026 -1.0214
   19SAPC  C212 2475   1.498   0.054  71.092  0.4129 -0.9601  0.6995
   19SAPC  H12R 2476   1.535   0.067  71.195  0.1097 -0.2867  0.7285
   19SAPC  C213 2477   1.406  -0.066  71.072 -0.6910 -0.0455 -0.2456
   19SAPC  H13R 2478   1.311  -0.044  71.019 -3.2291 -2.0166  3.0785
   19SAPC  H13S 2479   1.376  -0.091  71.176  1.7188 -0.3692  0.4211
   19SAPC  C214 2480   1.481  -0.173  71.003 -0.5326 -1.0031  0.7901
   19SAPC  H14R 2481   1.456  -0.187  70.897 -0.4875 -0.4431  0.7015
   19SAPC  C215 2482   1.562  -0.269  71.055 -0.2184  1.1910  0.2331
   19SAPC  H15R 2483   1.611  -0.337  70.984  0.9185  1.1727  1.0105
   19SAPC  C216 2484   1.599  -0.276  71.204 -0.1679 -0.5829 -0.2260
   19SAPC  H16R 2485   1.525  -0.219  71.264 -0.7517 -0.3754 -1.1229
   19SAPC  H16S 2486   1.696  -0.223  71.211 -0.3483 -0.4508  3.7010
   19SAPC  C217 2487   1.638  -0.405  71.272 -0.2283  0.1639 -0.0674
   19SAPC  H17R 2488   1.542  -0.461  71.277 -1.1553  1.6489 -0.5034
   19SAPC  H17S 2489   1.672  -0.397  71.378  1.8201 -2.3993 -0.4320
   19SAPC  C218 2490   1.750  -0.474  71.191  0.1417  0.8082  0.3556
   19SAPC  H18R 2491   1.829  -0.404  71.156 -0.0612 -0.2819 -2.5587
   19SAPC  H18S 2492   1.722  -0.539  71.105  4.0866 -0.4753 -0.1509
   19SAPC  C219 2493   1.822  -0.574  71.283 -0.7529 -0.4008  0.0657
   19SAPC  H19R 2494   1.755  -0.655  71.319 -0.3855  0.5158  3.1428
   19SAPC  H19S 2495   1.864  -0.519  71.371  2.7730  3.3061 -3.4884
   19SAPC  C220 2496   1.944  -0.626  71.221 -0.0779 -0.2669  0.8119
   19SAPC  H20R 2497   2.012  -0.700  71.269 -1.0231 -2.3962 -0.9214
   19SAPC  H20S 2498   1.994  -0.533  71.186 -0.2751 -0.8608 -1.1649
   19SAPC  H20T 2499   1.911  -0.676  71.127 -0.0551 -1.8304  1.6025
   19SAPC   C33 2500   1.090   0.608  69.754 -0.3519  0.0177  0.3247
   19SAPC   H3X 2501   1.025   0.665  69.685 -0.6463 -1.0408 -0.2749
   19SAPC   H3Y 2502   1.187   0.592  69.703 -0.1687  1.8567  0.0404
   19SAPC   C34 2503   1.129   0.698  69.873  0.5550 -0.1546  0.7651
   19SAPC   H4X 2504   1.045   0.713  69.943 -0.0941 -0.7001  0.1096
   19SAPC   H4Y 2505   1.149   0.804  69.844 -1.7645  0.6267  1.8154
   19SAPC   C35 2506   1.241   0.633  69.949 -0.2664 -0.0114  0.1244
   19SAPC   H5X 2507   1.337   0.687  69.935 -0.2013  0.0848  0.9226
   19SAPC   H5Y 2508   1.262   0.536  69.898 -2.0750 -0.1669 -0.4005
   19SAPC   C36 2509   1.207   0.610  70.101 -0.7680 -0.3847 -0.2473
   19SAPC   H6X 2510   1.105   0.567  70.116 -1.6820  0.8498 -2.4168
   19SAPC   H6Y 2511   1.216   0.703  70.162  3.5371 -1.8675  1.7711
   19SAPC   C37 2512   1.319   0.517  70.150  0.8956 -0.5930 -0.0932
   19SAPC   H7X 2513   1.413   0.574  70.166  0.0361  1.5619 -2.1193
   19SAPC   H7Y 2514   1.330   0.426  70.086  0.0972  0.7491 -2.2162
   19SAPC   C38 2515   1.284   0.453  70.286  0.5817  0.3368 -0.4272
   19SAPC   H8X 2516   1.211   0.369  70.282  0.1869  0.6793 -0.5498
   19SAPC   H8Y 2517   1.254   0.529  70.361 -4.9433  0.2836 -2.1162
   19SAPC   C39 2518   1.400   0.374  70.351  0.0655 -0.5640 -0.2830
   19SAPC   H9X 2519   1.395   0.398  70.460 -1.0947 -0.6367 -0.3122
   19SAPC   H9Y 2520   1.496   0.407  70.306 -1.9327  1.9237 -3.0512
   19SAPC  C310 2521   1.404   0.223  70.333  0.5652  0.7344 -0.3312
   19SAPC  H10X 2522   1.371   0.197  70.230  1.9569 -5.0372  0.3042
   19SAPC  H10Y 2523   1.331   0.169  70.397  0.5138 -0.1674 -1.1175
   19SAPC  C311 2524   1.540   0.163  70.368  0.1670 -0.2818 -0.1446
   19SAPC  H11X 2525   1.534   0.063  70.415  0.6585  0.3367  1.2899
   19SAPC  H11Y 2526   1.574   0.232  70.448  1.3196 -0.7219 -0.2345
   19SAPC  C312 2527   1.628   0.156  70.241  0.2073  0.3429 -0.2223
   19SAPC  H12X 2528   1.640   0.259  70.201 -1.8091  1.2824  1.4134
   19SAPC  H12Y 2529   1.576   0.090  70.168  2.5485 -0.9231 -0.8371
   19SAPC  C313 2530   1.760   0.096  70.276 -0.4453 -0.6936  0.1178
   19SAPC  H13X 2531   1.822   0.150  70.351 -0.7986  0.2358 -0.2586
   19SAPC  H13Y 2532   1.815   0.094  70.180 -0.5996 -3.8935 -0.0169
   19SAPC  C314 2533   1.752  -0.058  70.292 -1.0046 -0.1527 -0.5860
   19SAPC  H14X 2534   1.797  -0.103  70.201  0.8118  1.4288 -0.5218
   19SAPC  H14Y 2535   1.646  -0.091  70.295 -0.7989 -0.8973 -1.0925
   19SAPC  C315 2536   1.814  -0.099  70.427 -0.0754 -0.8103  0.7602
   19SAPC  H15X 2537   1.775  -0.023  70.499 -1.4884  0.0266 -0.7993
   19SAPC  H15Y 2538   1.922  -0.077  70.446  0.2250 -2.3207  0.9047
   19SAPC  C316 2539   1.795  -0.239  70.475 -0.1907  0.0144  0.7792
   19SAPC  H16X 2540   1.851  -0.303  70.403  0.1900  0.7834  0.3869
   19SAPC  H16Y 2541   1.686  -0.261  70.464 -0.5802  1.5440  1.3370
   19SAPC  C317 2542   1.827  -0.276  70.617 -0.8717  0.1504 -0.2594
   19SAPC  H17X 2543   1.937  -0.276  70.627 -0.7091 -0.3041 -1.7989
   19SAPC  H17Y 2544   1.801  -0.384  70.610 -2.5682  0.4908  0.1665
   19SAPC  C318 2545   1.744  -0.196  70.722 -0.0937 -0.1602 -0.6279
   19SAPC  H18X 2546   1.637  -0.228  70.723  0.5690 -2.5485  0.4075
   19SAPC  H18Y 2547   1.754  -0.086  70.710  0.7579  0.0429  1.5068
   19SAPC  H18Z 2548   1.791  -0.215  70.821  2.5810  3.1639 -1.0920
   20SAPC     N 2549   1.626   2.032  73.348  0.4160 -0.5434  0.1822
   20SAPC   C12 2550   1.506   1.953  73.313 -0.1073 -0.5391  0.2333
   20SAPC  H12A 2551   1.518   1.934  73.207  1.6606 -0.7645  0.4514
   20SAPC  H12B 2552   1.419   2.017  73.317  0.3369  0.3977 -2.6648
   20SAPC   C13 2553   1.629   2.045  73.496 -0.4684  0.2776  0.3068
   20SAPC  H13A 2554   1.716   2.101  73.528 -0.2033  0.3845 -0.5748
   20SAPC  H13B 2555   1.535   2.084  73.533 -1.7984 -2.1507 -0.3206
   20SAPC  H13C 2556   1.648   1.948  73.540  1.2420  0.8251  0.8492
   20SAPC   C14 2557   1.756   1.978  73.305 -0.7511  0.2938 -0.6738
   20SAPC  H14A 2558   1.826   2.029  73.369 -0.8958 -0.9326  0.4832
   20SAPC  H14B 2559   1.772   1.873  73.323  1.7059  0.3272 -2.1742
   20SAPC  H14C 2560   1.782   1.992  73.200  3.2109 -1.1504 -0.0641
   20SAPC   C15 2561   1.624   2.173  73.293 -0.2108  0.4070 -0.4409
   20SAPC  H15A 2562   1.702   2.232  73.339  0.5592 -1.3590  0.6047
   20SAPC  H15B 2563   1.637   2.174  73.186 -1.5037 -0.9674 -0.6471
   20SAPC  H15C 2564   1.532   2.223  73.321  0.0009  0.4226  0.2601
   20SAPC   C11 2565   1.488   1.813  73.371  0.1891  0.0611  0.4998
   20SAPC  H11A 2566   1.379   1.790  73.371  0.2992 -0.4745  0.9684
   20SAPC  H11B 2567   1.498   1.837  73.479 -0.2267  0.6326  0.4141
   20SAPC     P 2568   1.549   1.622  73.202 -0.0789 -0.2571 -0.1432
   20SAPC   O13 2569   1.680   1.572  73.159  0.6184 -0.0981 -1.2173
   20SAPC   O14 2570   1.441   1.530  73.237  0.3353  0.2374 -0.2931
   20SAPC   O12 2571   1.580   1.714  73.326 -0.1468 -0.7912  0.0197
   20SAPC   O11 2572   1.500   1.723  73.091 -0.2359  0.2787  0.1963
   20SAPC    C1 2573   1.392   1.708  73.004  0.3603  0.8454  0.1019
   20SAPC    HA 2574   1.308   1.652  73.052 -0.1653  0.4531 -1.2216
   20SAPC    HB 2575   1.354   1.805  72.965 -1.9892 -0.5831 -1.3952
   20SAPC    C2 2576   1.419   1.634  72.873  0.2351 -0.1454  0.2430
   20SAPC    HS 2577   1.455   1.531  72.894 -0.0224 -0.9688 -2.8678
   20SAPC   O21 2578   1.511   1.720  72.813  0.1714  0.2178  0.3731
   20SAPC   C21 2579   1.620   1.652  72.773  0.0629 -0.3016  0.1225
   20SAPC   O22 2580   1.642   1.532  72.797  0.4192  0.2541  0.3619
   20SAPC   C22 2581   1.713   1.748  72.699 -0.2188  0.8991 -0.0450
   20SAPC   H2R 2582   1.761   1.813  72.775 -0.7837  3.1537 -1.5148
   20SAPC   H2S 2583   1.783   1.688  72.638 -0.1579  2.3095 -1.4222
   20SAPC    C3 2584   1.288   1.631  72.789 -0.0484 -0.0914  0.1749
   20SAPC    HX 2585   1.238   1.730  72.795  1.0097  0.5175 -0.7791
   20SAPC    HY 2586   1.217   1.554  72.827 -0.6884 -0.4738 -1.6781
   20SAPC   O31 2587   1.329   1.611  72.653 -0.8085  0.5860 -0.4748
   20SAPC   C31 2588   1.321   1.486  72.614 -0.7858 -0.2725  0.3376
   20SAPC   O32 2589   1.312   1.388  72.690 -0.1851 -0.8154 -0.1303
   20SAPC   C32 2590   1.329   1.477  72.464  0.7283  0.9672 -0.0608
   20SAPC   H2X 2591   1.431   1.486  72.423  0.2693  2.5204 -0.9208
   20SAPC   H2Y 2592   1.281   1.563  72.414 -0.6640 -0.3941 -1.1793
   20SAPC   C23 2593   1.647   1.856  72.597  0.8128 -0.1956 -0.0577
   20SAPC   H3R 2594   1.633   1.953  72.648 -0.1867  0.0086 -0.6973
   20SAPC   H3S 2595   1.542   1.824  72.581  0.7730  0.5808 -1.5451
   20SAPC   C24 2596   1.739   1.861  72.470 -0.1576 -0.4203  0.7068
   20SAPC   H4R 2597   1.711   1.769  72.415  2.7350 -0.6725 -0.5104
   20SAPC   H4S 2598   1.845   1.847  72.500 -0.6066 -1.2835  2.0049
   20SAPC   C25 2599   1.729   1.984  72.385  0.0761 -0.0161 -0.2044
   20SAPC   H5R 2600   1.803   2.061  72.413  1.1019 -1.4310  1.1242
   20SAPC   C26 2601   1.660   2.004  72.267  0.0395 -0.1857  0.3671
   20SAPC   H6R 2602   1.670   2.103  72.221 -3.3661 -0.2856 -0.8838
   20SAPC   C27 2603   1.596   1.907  72.173  0.6913  0.0309 -0.2406
   20SAPC   H7R 2604   1.677   1.838  72.143  1.2960  0.4097  0.4870
   20SAPC   H7S 2605   1.561   1.951  72.077 -0.0238  1.7646  0.7549
   20SAPC   C28 2606   1.487   1.817  72.235  0.1072 -0.1480  0.3674
   20SAPC   H8R 2607   1.474   1.833  72.343  1.4053 -0.3890  0.5686
   20SAPC   C29 2608   1.408   1.732  72.166  0.1251  0.4804  0.5023
   20SAPC   H9R 2609   1.334   1.689  72.235 -0.0738 -0.0785 -0.0550
   20SAPC  C210 2610   1.396   1.705  72.015 -0.9590 -0.0552  0.2005
   20SAPC  H10R 2611   1.437   1.604  71.997  0.6451  0.5941  0.0323
   20SAPC  H10S 2612   1.462   1.782  71.970 -1.7939  1.6161  1.7139
   20SAPC  C211 2613   1.256   1.719  71.962  0.3641 -0.4861 -0.4015
   20SAPC  H11R 2614   1.197   1.808  71.988 -2.0555 -1.7735 -1.1631
   20SAPC  C212 2615   1.208   1.652  71.862  0.2797 -0.1420 -0.0662
   20SAPC  H12R 2616   1.111   1.697  71.837  0.5498  0.0116 -0.8867
   20SAPC  C213 2617   1.263   1.545  71.770 -0.0353  0.1399  0.0734
   20SAPC  H13R 2618   1.192   1.459  71.772  1.5927 -1.2804 -0.5269
   20SAPC  H13S 2619   1.366   1.514  71.796  1.2420  2.6166 -1.7052
   20SAPC  C214 2620   1.258   1.595  71.626  0.4310  0.7620  0.7376
   20SAPC  H14R 2621   1.157   1.608  71.585  1.5347  0.8836 -2.1454
   20SAPC  C215 2622   1.360   1.654  71.557  0.3537  0.5684 -0.5870
   20SAPC  H15R 2623   1.344   1.705  71.461 -0.1845 -0.1146 -0.8613
   20SAPC  C216 2624   1.494   1.671  71.613 -0.8164 -0.3016  0.2571
   20SAPC  H16R 2625   1.549   1.586  71.568 -0.3261 -0.2354  0.7261
   20SAPC  H16S 2626   1.495   1.672  71.725  0.0994  1.1824  0.2570
   20SAPC  C217 2627   1.551   1.807  71.565  0.2434  0.1429 -0.1233
   20SAPC  H17R 2628   1.510   1.844  71.468 -0.7153 -0.5195  0.0117
   20SAPC  H17S 2629   1.661   1.812  71.551  0.1870  4.9664 -0.7400
   20SAPC  C218 2630   1.527   1.904  71.684  0.2730 -0.2090  0.4005
   20SAPC  H18R 2631   1.603   1.904  71.765 -1.2525  0.2836  1.8905
   20SAPC  H18S 2632   1.441   1.862  71.740 -1.7245 -2.3054 -3.7347
   20SAPC  C219 2633   1.508   2.049  71.645  0.0947  0.1127 -0.2493
   20SAPC  H19R 2634   1.419   2.055  71.578  0.0664 -1.6213 -0.4133
   20SAPC  H19S 2635   1.602   2.087  71.599 -0.9989  2.1247 -0.9556
   20SAPC  C220 2636   1.495   2.151  71.761 -0.0244 -0.0348 -0.2147
   20SAPC  H20R 2637   1.584   2.149  71.827  0.3181 -0.8656 -0.6925
   20SAPC  H20S 2638   1.402   2.123  71.816  0.6404  0.1750  1.0273
   20SAPC  H20T 2639   1.476   2.250  71.716  1.8417  0.8081  0.7481
   20SAPC   C33 2640   1.261   1.351  72.405 -0.4470  0.4735 -0.1376
   20SAPC   H3X 2641   1.304   1.259  72.450  1.0963  0.2654 -1.9360
   20SAPC   H3Y 2642   1.290   1.334  72.299  1.4018 -4.7036  0.9195
   20SAPC   C34 2643   1.110   1.343  72.420  0.5626  0.6047  0.0355
   20SAPC   H4X 2644   1.093   1.342  72.529 -0.9720  1.2414 -0.1670
   20SAPC   H4Y 2645   1.069   1.245  72.388  0.0305  1.2419 -1.3102
   20SAPC   C35 2646   1.044   1.463  72.357  0.0509 -0.4966  0.8769
   20SAPC   H5X 2647   1.087   1.481  72.256  0.0394 -1.2533  0.7316
   20SAPC   H5Y 2648   1.055   1.554  72.420 -0.1014  0.3429 -0.2778
   20SAPC   C36 2649   0.891   1.445  72.327 -0.2181  0.5860 -0.2302
   20SAPC   H6X 2650   0.837   1.457  72.423  0.7863  0.1403  0.4069
   20SAPC   H6Y 2651   0.879   1.339  72.297  0.0908  0.7349 -0.9020
   20SAPC   C37 2652   0.840   1.552  72.226  0.5615 -0.1822  0.3324
   20SAPC   H7X 2653   0.890   1.553  72.127 -2.6795 -0.5868 -1.4666
   20SAPC   H7Y 2654   0.836   1.654  72.269 -3.3662  1.0833 -2.4678
   20SAPC   C38 2655   0.693   1.541  72.178 -0.4036  0.4478  0.4092
   20SAPC   H8X 2656   0.638   1.518  72.272  1.2090  0.9806  1.5366
   20SAPC   H8Y 2657   0.690   1.454  72.109  2.8658  0.7913 -0.3530
   20SAPC   C39 2658   0.632   1.670  72.125 -0.5707  0.5246  0.5615
   20SAPC   H9X 2659   0.641   1.751  72.200  1.4519 -0.3307  1.2940
   20SAPC   H9Y 2660   0.522   1.656  72.111 -0.4541  0.4360 -0.3873
   20SAPC  C310 2661   0.679   1.706  71.980 -1.1015  0.8366 -0.4283
   20SAPC  H10X 2662   0.697   1.616  71.917  0.0399 -0.1720  1.2484
   20SAPC  H10Y 2663   0.776   1.760  71.982 -0.8463  0.6000 -2.8275
   20SAPC  C311 2664   0.596   1.802  71.895  0.5906 -0.1439  0.0257
   20SAPC  H11X 2665   0.611   1.899  71.947  0.4895 -0.0588 -0.1083
   20SAPC  H11Y 2666   0.488   1.780  71.911  0.4432  0.2951 -0.3402
   20SAPC  C312 2667   0.635   1.816  71.747  0.2743 -0.1487  0.0763
   20SAPC  H12X 2668   0.623   1.722  71.688  1.5446 -0.8384  0.8611
   20SAPC  H12Y 2669   0.739   1.854  71.747  0.5353 -0.8162 -1.3140
   20SAPC  C313 2670   0.558   1.922  71.665  0.0395 -0.4942  0.0229
   20SAPC  H13X 2671   0.613   1.933  71.570 -0.1428 -0.9391 -0.1338
   20SAPC  H13Y 2672   0.565   2.017  71.723  0.3213 -0.5822  0.1379
   20SAPC  C314 2673   0.412   1.879  71.642 -0.6802  0.2990  0.3912
   20SAPC  H14X 2674   0.368   1.857  71.741 -1.3184  2.5519  0.6717
   20SAPC  H14Y 2675   0.405   1.790  71.576  1.2809 -0.2873  0.8955
   20SAPC  C315 2676   0.317   1.982  71.573  0.3512  0.1850 -0.3478
   20SAPC  H15X 2677   0.250   1.946  71.492  2.0034 -0.1142 -1.6343
   20SAPC  H15Y 2678   0.367   2.051  71.502 -1.7360 -1.0909 -3.2801
   20SAPC  C316 2679   0.236   2.053  71.676 -0.5560 -0.3403 -0.1273
   20SAPC  H16X 2680   0.304   2.129  71.719  0.5418 -0.0432 -2.2668
   20SAPC  H16Y 2681   0.202   1.986  71.758  0.4263 -0.7193 -0.0261
   20SAPC  C317 2682   0.114   2.115  71.603  0.1052  1.0922 -0.6449
   20SAPC  H17X 2683   0.063   2.176  71.681 -0.0271  1.9472 -1.3897
   20SAPC  H17Y 2684   0.031   2.044  71.583 -0.0275  0.9817  0.2476
   20SAPC  C318 2685   0.148   2.194  71.474 -0.2892 -0.4503 -0.2053
   20SAPC  H18X 2686   0.215   2.151  71.396 -0.1788 -0.5014 -0.0842
   20SAPC  H18Y 2687   0.173   2.299  71.498 -1.7238  0.3298 -1.9335
   20SAPC  H18Z 2688   0.052   2.209  71.420  0.3748  1.4037 -0.9543
   21SAPC     N 2689   1.358   1.406  73.666 -0.2519  0.1118  0.3453
   21SAPC   C12 2690   1.325   1.429  73.518  0.4993  0.4108  0.2175
   21SAPC  H12A 2691   1.289   1.340  73.468 -0.8669 -0.5277  2.7182
   21SAPC  H12B 2692   1.417   1.439  73.463  0.3254 -1.2003 -0.4300
   21SAPC   C13 2693   1.440   1.513  73.740 -0.3775  0.2075 -0.5612
   21SAPC  H13A 2694   1.449   1.485  73.844  2.4142  0.5390 -0.6267
   21SAPC  H13B 2695   1.545   1.522  73.717  0.2427 -2.4012  0.9232
   21SAPC  H13C 2696   1.395   1.610  73.726 -0.9976 -0.0904 -0.6644
   21SAPC   C14 2697   1.232   1.381  73.750 -0.0221 -0.9618  1.2065
   21SAPC  H14A 2698   1.261   1.359  73.852  3.1301  0.4213  0.7164
   21SAPC  H14B 2699   1.172   1.469  73.767  0.3603 -0.0453 -1.7183
   21SAPC  H14C 2700   1.171   1.310  73.695 -0.8111  1.1754 -0.8168
   21SAPC   C15 2701   1.423   1.274  73.680  0.0662 -0.3221  0.2500
   21SAPC  H15A 2702   1.528   1.269  73.653  0.3490 -0.4243  1.3005
   21SAPC  H15B 2703   1.419   1.236  73.781  1.4873  1.7347  1.1290
   21SAPC  H15C 2704   1.378   1.190  73.628  0.5675 -0.4493  0.0085
   21SAPC   C11 2705   1.244   1.563  73.495 -0.6107 -1.0456  0.3223
   21SAPC  H11A 2706   1.273   1.593  73.392  0.0945 -1.1518  0.4810
   21SAPC  H11B 2707   1.289   1.635  73.568  0.7019 -2.6344  1.1426
   21SAPC     P 2708   0.999   1.493  73.425 -0.0152 -0.3679 -0.2374
   21SAPC   O13 2709   0.980   1.353  73.456  0.7514 -0.0464 -0.4719
   21SAPC   O14 2710   0.885   1.584  73.423 -0.3251 -0.3839 -0.2372
   21SAPC   O12 2711   1.110   1.557  73.517 -0.1878 -0.7130 -0.3280
   21SAPC   O11 2712   1.061   1.502  73.276 -0.0222 -0.0190 -0.3581
   21SAPC    C1 2713   1.038   1.615  73.189 -0.6135  0.1000  0.4142
   21SAPC    HA 2714   0.995   1.704  73.240 -2.1517 -0.3723  0.0059
   21SAPC    HB 2715   1.137   1.657  73.162 -1.3945  1.6510 -0.1884
   21SAPC    C2 2716   0.939   1.588  73.067 -0.5583  0.2868 -0.5242
   21SAPC    HS 2717   0.837   1.574  73.108 -0.7454 -0.2333 -1.1556
   21SAPC   O21 2718   0.984   1.469  72.990 -0.3371 -0.2661 -0.1967
   21SAPC   C21 2719   0.884   1.394  72.947 -0.2411 -0.9684 -0.0906
   21SAPC   O22 2720   0.773   1.376  73.001 -0.2573  0.4920 -0.4891
   21SAPC   C22 2721   0.924   1.322  72.820 -0.4726 -0.0421  0.5954
   21SAPC   H2R 2722   0.928   1.383  72.727  0.1442 -2.1035 -0.8011
   21SAPC   H2S 2723   1.024   1.275  72.823 -0.3417 -0.7143 -4.6544
   21SAPC    C3 2724   0.947   1.714  72.978  0.9603 -0.9522  1.3252
   21SAPC    HX 2725   1.051   1.719  72.939  0.9972 -0.0888  1.5213
   21SAPC    HY 2726   0.926   1.811  73.028  0.1071 -0.3131 -0.1930
   21SAPC   O31 2727   0.871   1.687  72.857 -0.2379 -0.4623 -0.4133
   21SAPC   C31 2728   0.735   1.696  72.873  0.3617 -0.8956 -1.2470
   21SAPC   O32 2729   0.674   1.734  72.969  0.5334 -0.2266 -0.4791
   21SAPC   C32 2730   0.668   1.664  72.738 -0.7840 -0.6086 -0.1341
   21SAPC   H2X 2731   0.758   1.650  72.674  0.5087  4.1868  0.2449
   21SAPC   H2Y 2732   0.617   1.761  72.717  2.1626  0.9083 -0.7811
   21SAPC   C23 2733   0.829   1.206  72.793 -0.2039  0.2898 -0.0740
   21SAPC   H3R 2734   0.729   1.253  72.784 -0.2751  0.1655  0.0583
   21SAPC   H3S 2735   0.816   1.140  72.881 -1.6325 -1.1573 -1.3032
   21SAPC   C24 2736   0.871   1.116  72.678 -0.2639  0.1899  0.2456
   21SAPC   H4R 2737   0.871   1.185  72.591 -0.6376  1.0217  0.8932
   21SAPC   H4S 2738   0.792   1.040  72.658  1.1175 -0.6545 -2.6332
   21SAPC   C25 2739   1.011   1.060  72.700 -0.2661 -0.7695  0.5059
   21SAPC   H5R 2740   1.064   1.073  72.796  1.5079  0.6791 -0.5985
   21SAPC   C26 2741   1.088   0.997  72.604  0.5465  0.2511 -0.2118
   21SAPC   H6R 2742   1.184   0.965  72.648 -0.3550  0.3530  1.9567
   21SAPC   C27 2743   1.058   0.947  72.466  1.1295 -0.9276 -0.6998
   21SAPC   H7R 2744   0.969   1.000  72.423  3.6599  1.7922 -3.0179
   21SAPC   H7S 2745   1.014   0.850  72.499  1.2166 -0.1345  2.0045
   21SAPC   C28 2746   1.159   0.927  72.365 -0.1156 -0.7813  0.2670
   21SAPC   H8R 2747   1.236   0.866  72.413  0.4109 -0.0666  0.3465
   21SAPC   C29 2748   1.154   0.959  72.232  0.2477  0.6469  0.3564
   21SAPC   H9R 2749   1.239   0.935  72.166 -1.0833  0.7226 -1.4641
   21SAPC  C210 2750   1.039   1.029  72.154  0.1967 -0.3709  0.1206
   21SAPC  H10R 2751   0.976   1.074  72.234  2.9209 -0.8016  2.6948
   21SAPC  H10S 2752   0.983   0.963  72.085  0.5610  0.4409 -0.9962
   21SAPC  C211 2753   1.093   1.149  72.081  0.0770 -0.3994  0.2308
   21SAPC  H11R 2754   1.190   1.181  72.121 -0.7285 -1.2560  3.1258
   21SAPC  C212 2755   1.038   1.202  71.967 -1.0983 -0.7980  1.0164
   21SAPC  H12R 2756   1.098   1.279  71.915 -0.7035 -0.1070  2.4494
   21SAPC  C213 2757   0.909   1.184  71.885  0.4214 -0.5020 -0.1993
   21SAPC  H13R 2758   0.916   1.081  71.845  1.9229 -0.8550  0.8688
   21SAPC  H13S 2759   0.892   1.257  71.803  1.1170 -0.9319 -0.7316
   21SAPC  C214 2760   0.773   1.188  71.970 -0.1284  0.0492  0.3170
   21SAPC  H14R 2761   0.791   1.254  72.056  2.2320  2.4824 -1.8294
   21SAPC  C215 2762   0.655   1.148  71.918  0.0826 -0.6891 -0.4243
   21SAPC  H15R 2763   0.558   1.158  71.969 -0.6716 -1.7386 -1.5972
   21SAPC  C216 2764   0.637   1.109  71.772 -0.1113 -0.7377  0.1878
   21SAPC  H16R 2765   0.635   1.002  71.743  4.3210 -1.1045  0.5328
   21SAPC  H16S 2766   0.711   1.169  71.715 -0.0204  0.7044  1.7304
   21SAPC  C217 2767   0.509   1.181  71.727  0.9546  0.3388  0.3610
   21SAPC  H17R 2768   0.512   1.289  71.753 -0.2027  1.6360 -4.0284
   21SAPC  H17S 2769   0.425   1.134  71.782  0.3285  1.2942  0.2592
   21SAPC  C218 2770   0.470   1.179  71.579  0.3282  0.2685  0.1104
   21SAPC  H18R 2771   0.554   1.232  71.529  0.3661  1.3519  1.2651
   21SAPC  H18S 2772   0.382   1.246  71.570 -0.9431 -1.3391  0.0728
   21SAPC  C219 2773   0.456   1.035  71.521 -0.1963 -0.0794 -0.2464
   21SAPC  H19R 2774   0.372   0.989  71.577 -0.2263  2.4972  2.0496
   21SAPC  H19S 2775   0.545   0.971  71.542 -0.2649 -0.1072 -0.0368
   21SAPC  C220 2776   0.423   1.025  71.376  0.2848 -0.2782 -0.5473
   21SAPC  H20R 2777   0.430   0.915  71.358 -0.2329 -0.1324 -1.7139
   21SAPC  H20S 2778   0.484   1.088  71.307  2.4339  0.2081  1.6414
   21SAPC  H20T 2779   0.316   1.033  71.350  0.3423  2.9829 -0.0906
   21SAPC   C33 2780   0.573   1.546  72.738 -0.1502  0.4538  0.0400
   21SAPC   H3X 2781   0.493   1.561  72.813  0.6122  1.6783  0.6489
   21SAPC   H3Y 2782   0.637   1.458  72.763  1.4325  0.6071 -2.9579
   21SAPC   C34 2783   0.511   1.540  72.590  0.4976 -0.0769  0.7965
   21SAPC   H4X 2784   0.598   1.530  72.521  0.1330  1.1842  0.1270
   21SAPC   H4Y 2785   0.460   1.636  72.567  0.6920  0.0633  0.9496
   21SAPC   C35 2786   0.408   1.433  72.553 -0.6370  0.2039 -0.5454
   21SAPC   H5X 2787   0.309   1.462  72.593  0.2497  2.3066  0.2719
   21SAPC   H5Y 2788   0.441   1.337  72.598 -1.1936  0.3297  0.1380
   21SAPC   C36 2789   0.407   1.394  72.405  0.3177  0.3911  0.8263
   21SAPC   H6X 2790   0.351   1.299  72.389 -0.7930  1.2380 -0.5971
   21SAPC   H6Y 2791   0.510   1.379  72.367  1.0585  1.8564  2.1376
   21SAPC   C37 2792   0.337   1.494  72.315 -0.1804  0.1309 -1.6724
   21SAPC   H7X 2793   0.410   1.578  72.319  0.3401 -0.2759 -2.5021
   21SAPC   H7Y 2794   0.233   1.528  72.336 -0.7053 -1.0983 -2.1706
   21SAPC   C38 2795   0.332   1.444  72.167  0.3381 -0.6850  0.7280
   21SAPC   H8X 2796   0.289   1.342  72.179  0.3923 -0.4018  4.3630
   21SAPC   H8Y 2797   0.438   1.433  72.134  1.0742  0.7505  2.4533
   21SAPC   C39 2798   0.262   1.546  72.084  0.8067 -0.6632 -0.2533
   21SAPC   H9X 2799   0.296   1.650  72.098  0.2181 -0.2396 -1.7844
   21SAPC   H9Y 2800   0.156   1.545  72.115  0.8006 -0.3851 -0.2690
   21SAPC  C310 2801   0.276   1.508  71.936  0.3037 -0.1773 -0.0790
   21SAPC  H10X 2802   0.231   1.406  71.943 -0.2578 -0.0314 -1.3716
   21SAPC  H10Y 2803   0.381   1.502  71.902  1.0064 -1.8924  2.1095
   21SAPC  C311 2804   0.187   1.590  71.838 -0.0152  0.2922 -0.1244
   21SAPC  H11X 2805   0.234   1.684  71.803 -0.6317  0.9550  0.8010
   21SAPC  H11Y 2806   0.099   1.625  71.896  0.7989  0.3560  1.1000
   21SAPC  C312 2807   0.133   1.512  71.718  0.7244  0.6792  0.0187
   21SAPC  H12X 2808   0.075   1.425  71.756  0.4842  1.3796  1.2850
   21SAPC  H12Y 2809   0.221   1.468  71.665  0.8788  0.3815  0.5215
   21SAPC  C313 2810   0.056   1.617  71.636 -0.2055 -0.8656 -0.1241
   21SAPC  H13X 2811   0.109   1.712  71.618 -3.1949  0.7795 -0.9559
   21SAPC  H13Y 2812  -0.024   1.666  71.696  2.1207  4.7987 -1.0940
   21SAPC  C314 2813   0.007   1.573  71.498  0.3899  0.2835  0.1847
   21SAPC  H14X 2814  -0.061   1.656  71.470 -1.6224 -0.4699  2.4512
   21SAPC  H14Y 2815  -0.046   1.477  71.517  1.0479  0.1943  1.7863
   21SAPC  C315 2816   0.109   1.547  71.384 -0.2673 -0.1796  0.2275
   21SAPC  H15X 2817   0.195   1.485  71.418 -0.2888 -0.9585 -1.0534
   21SAPC  H15Y 2818   0.162   1.640  71.355 -2.4018  0.5515 -1.5487
   21SAPC  C316 2819   0.041   1.477  71.262  0.7256 -0.0582  0.9019
   21SAPC  H16X 2820  -0.027   1.542  71.202  0.1569  1.9153  3.4492
   21SAPC  H16Y 2821  -0.037   1.402  71.286 -0.1245  0.8616  1.0760
   21SAPC  C317 2822   0.132   1.399  71.172  0.2497  0.1312  0.2139
   21SAPC  H17X 2823   0.091   1.305  71.130 -0.0257 -0.9746  2.8247
   21SAPC  H17Y 2824   0.218   1.361  71.231  1.2332  1.6494 -0.1761
   21SAPC  C318 2825   0.195   1.484  71.056  0.1754  0.3365 -0.5323
   21SAPC  H18X 2826   0.273   1.553  71.095 -1.9697  1.2888  2.4586
   21SAPC  H18Y 2827   0.122   1.555  71.010 -0.2173  1.0026  1.0605
   21SAPC  H18Z 2828   0.241   1.417  70.980 -0.1068  0.9960 -1.2968
   22SAPC     N 2829   0.278   1.639  67.390 -0.8447 -0.3988  0.0753
   22SAPC   C12 2830   0.263   1.581  67.531 -0.2073  0.3424  0.1673
   22SAPC  H12A 2831   0.334   1.503  67.554 -1.2968 -0.4596  0.9334
   22SAPC  H12B 2832   0.169   1.528  67.531  0.9161 -1.8110  1.4829
   22SAPC   C13 2833   0.406   1.721  67.377 -0.0239  0.5341 -0.1254
   22SAPC  H13A 2834   0.418   1.759  67.276 -2.1618 -1.5731 -1.2504
   22SAPC  H13B 2835   0.405   1.793  67.458  6.5385  0.0352  0.9987
   22SAPC  H13C 2836   0.495   1.664  67.399  1.7629  3.3590  0.5836
   22SAPC   C14 2837   0.266   1.547  67.273  0.0951 -0.5380 -0.2422
   22SAPC  H14A 2838   0.263   1.600  67.179  1.1221  3.8949  1.9457
   22SAPC  H14B 2839   0.339   1.467  67.269 -1.9666 -2.5022 -0.3248
   22SAPC  H14C 2840   0.183   1.482  67.295 -0.4095 -0.3115 -1.4578
   22SAPC   C15 2841   0.170   1.741  67.364  0.0158  0.2476 -0.4134
   22SAPC  H15A 2842   0.192   1.837  67.407  0.7722  0.8483 -2.0750
   22SAPC  H15B 2843   0.137   1.749  67.262  0.3656 -1.8707 -0.7473
   22SAPC  H15C 2844   0.080   1.705  67.413 -0.9090  0.1169 -2.1247
   22SAPC   C11 2845   0.241   1.670  67.655  0.6710  0.1718  0.1550
   22SAPC  H11A 2846   0.138   1.711  67.644  0.2011 -1.1334 -0.4745
   22SAPC  H11B 2847   0.326   1.743  67.650  2.6593 -2.0859 -1.8235
   22SAPC     P 2848   0.369   1.542  67.845  0.0656  0.1668 -0.1393
   22SAPC   O13 2849   0.346   1.521  67.989  0.1417  0.8369  0.8850
   22SAPC   O14 2850   0.432   1.431  67.774 -0.3067  0.2447  0.2585
   22SAPC   O12 2851   0.240   1.590  67.773 -0.1137 -0.0254 -0.0412
   22SAPC   O11 2852   0.468   1.669  67.839  0.1367 -0.4624 -0.2789
   22SAPC    C1 2853   0.594   1.665  67.783  0.8294  0.2929  0.0772
   22SAPC    HA 2854   0.586   1.601  67.692  0.0501 -1.7882  1.5366
   22SAPC    HB 2855   0.632   1.760  67.740  0.0267 -0.1817 -1.8004
   22SAPC    C2 2856   0.691   1.634  67.895  0.3038  0.3426  0.1494
   22SAPC    HS 2857   0.666   1.532  67.930  1.2906  0.0029 -0.1017
   22SAPC   O21 2858   0.675   1.729  68.001  0.0330  0.8243  0.0698
   22SAPC   C21 2859   0.715   1.682  68.120  0.7159  0.3875  0.4061
   22SAPC   O22 2860   0.769   1.573  68.137 -0.0143  0.6974  0.1466
   22SAPC   C22 2861   0.694   1.782  68.232 -0.7022 -0.3321  0.7991
   22SAPC   H2R 2862   0.649   1.874  68.188  0.6895 -1.0974 -2.5308
   22SAPC   H2S 2863   0.619   1.736  68.300 -1.3006 -1.2600 -0.4621
   22SAPC    C3 2864   0.842   1.609  67.857 -0.0794  0.1948 -0.2187
   22SAPC    HX 2865   0.897   1.557  67.938 -0.2123 -2.0548 -1.4948
   22SAPC    HY 2866   0.901   1.703  67.859  1.5965 -0.8372  0.9525
   22SAPC   O31 2867   0.854   1.522  67.736  0.1538 -0.3892 -0.2845
   22SAPC   C31 2868   0.978   1.499  67.706 -0.0874  0.3238  0.8122
   22SAPC   O32 2869   1.077   1.553  67.746 -0.0309  0.2687  0.4222
   22SAPC   C32 2870   0.999   1.387  67.602  0.2101 -0.1364 -0.0726
   22SAPC   H2X 2871   0.922   1.408  67.524 -0.0946  3.0145  0.9306
   22SAPC   H2Y 2872   0.985   1.286  67.646  4.0523 -0.1910  1.3500
   22SAPC   C23 2873   0.835   1.812  68.293  0.0397  0.6986 -0.0899
   22SAPC   H3R 2874   0.909   1.729  68.294  0.5253  0.9880 -3.1552
   22SAPC   H3S 2875   0.814   1.831  68.400  3.3110 -1.5020  1.1128
   22SAPC   C24 2876   0.914   1.937  68.237  0.5425  0.4063  0.0580
   22SAPC   H4R 2877   0.978   1.980  68.316  2.5409 -1.5461 -0.3787
   22SAPC   H4S 2878   0.836   2.016  68.229  1.7454  1.7216  0.8069
   22SAPC   C25 2879   0.972   1.933  68.094 -0.1461  0.0424 -0.3867
   22SAPC   H5R 2880   0.902   1.959  68.013 -1.4976  2.0831  1.3268
   22SAPC   C26 2881   1.095   1.885  68.072 -1.0441  0.0478 -0.1452
   22SAPC   H6R 2882   1.120   1.877  67.966 -0.9332 -2.3074  0.0155
   22SAPC   C27 2883   1.195   1.836  68.182 -0.4384  0.2413 -0.9064
   22SAPC   H7R 2884   1.143   1.783  68.264  0.9465 -0.4853 -0.4776
   22SAPC   H7S 2885   1.241   1.925  68.229 -1.4756  2.3817 -3.6240
   22SAPC   C28 2886   1.295   1.751  68.108 -0.2519  0.6110  0.1444
   22SAPC   H8R 2887   1.301   1.762  67.999 -2.0320 -2.0108 -0.3171
   22SAPC   C29 2888   1.376   1.660  68.166 -0.0357 -0.5853 -0.1078
   22SAPC   H9R 2889   1.444   1.591  68.114  1.5571 -0.8435  2.1494
   22SAPC  C210 2890   1.412   1.647  68.309 -0.0921  0.1531 -0.9410
   22SAPC  H10R 2891   1.362   1.730  68.364  0.2857 -0.5669  0.5316
   22SAPC  H10S 2892   1.522   1.657  68.317 -0.2351  0.2339  2.0527
   22SAPC  C211 2893   1.359   1.505  68.348 -0.5090  0.8317  0.3699
   22SAPC  H11R 2894   1.296   1.452  68.275  0.9443  2.0163 -1.8683
   22SAPC  C212 2895   1.432   1.434  68.435  0.3694 -0.7215 -0.5112
   22SAPC  H12R 2896   1.393   1.331  68.443  0.0389 -0.7621 -2.2700
   22SAPC  C213 2897   1.533   1.484  68.528 -0.8775  0.0270  0.0589
   22SAPC  H13R 2898   1.530   1.425  68.622  0.3487 -1.9867 -1.1015
   22SAPC  H13S 2899   1.521   1.590  68.560  2.1476 -0.0102  1.6890
   22SAPC  C214 2900   1.670   1.459  68.468 -0.7250 -0.1770 -0.5155
   22SAPC  H14R 2901   1.693   1.531  68.388  1.3791  1.2242  1.1989
   22SAPC  C215 2902   1.773   1.388  68.516 -0.1326  0.3689 -0.0369
   22SAPC  H15R 2903   1.871   1.396  68.466 -0.1774  1.9802  0.0904
   22SAPC  C216 2904   1.779   1.274  68.620 -0.9633 -1.1115  0.3446
   22SAPC  H16R 2905   1.805   1.175  68.578 -1.3220 -0.9277 -0.3299
   22SAPC  H16S 2906   1.689   1.270  68.684 -0.9738 -2.4753  0.2674
   22SAPC  C217 2907   1.882   1.320  68.727 -0.3060 -0.1825 -0.4823
   22SAPC  H17R 2908   1.987   1.325  68.694 -0.8696  2.2428 -2.1368
   22SAPC  H17S 2909   1.874   1.227  68.788  3.0679 -1.2337 -1.4249
   22SAPC  C218 2910   1.831   1.445  68.796  0.1304 -0.2036 -0.0830
   22SAPC  H18R 2911   1.725   1.420  68.815  0.4270 -2.5980 -1.1883
   22SAPC  H18S 2912   1.855   1.532  68.731  2.0688  0.6205  1.6425
   22SAPC  C219 2913   1.913   1.481  68.917 -0.2412 -1.0241 -0.2684
   22SAPC  H19R 2914   1.917   1.395  68.987 -0.0920 -1.4576 -0.8051
   22SAPC  H19S 2915   1.860   1.560  68.975  0.4545 -0.8775  0.1812
   22SAPC  C220 2916   2.065   1.525  68.895 -0.4370  0.1858  0.0042
   22SAPC  H20R 2917   2.052   1.600  68.814  0.8107  1.8743  1.2868
   22SAPC  H20S 2918   2.117   1.443  68.843 -2.4032 -0.2965 -1.3003
   22SAPC  H20T 2919   2.120   1.585  68.971  2.9396 -0.8597 -1.4511
   22SAPC   C33 2920   1.136   1.393  67.534  0.0867  0.2303 -0.8675
   22SAPC   H3X 2921   1.210   1.359  67.608 -2.5854 -0.2784  1.7722
   22SAPC   H3Y 2922   1.156   1.501  67.515  1.5760  0.5177  1.8972
   22SAPC   C34 2923   1.149   1.325  67.394 -1.0800  0.1284  0.3391
   22SAPC   H4X 2924   1.085   1.393  67.334 -0.6843  2.3861  2.3359
   22SAPC   H4Y 2925   1.112   1.221  67.403 -1.1788  0.3368  6.0813
   22SAPC   C35 2926   1.292   1.342  67.341 -0.6652 -0.4739  0.5435
   22SAPC   H5X 2927   1.363   1.314  67.422  1.4605 -0.6400 -1.3087
   22SAPC   H5Y 2928   1.315   1.440  67.295 -2.7078  0.1332  0.6962
   22SAPC   C36 2929   1.333   1.232  67.239 -0.1213 -0.4457 -0.5467
   22SAPC   H6X 2930   1.265   1.222  67.151 -0.5793  0.0127 -0.2541
   22SAPC   H6Y 2931   1.302   1.140  67.293  0.6667 -2.4081 -3.2247
   22SAPC   C37 2932   1.474   1.232  67.179 -0.5462 -0.0321  0.0306
   22SAPC   H7X 2933   1.545   1.283  67.248 -0.8470 -1.2114  1.2468
   22SAPC   H7Y 2934   1.456   1.302  67.094 -3.2264  0.0799  0.5970
   22SAPC   C38 2935   1.522   1.102  67.134 -0.3898 -0.2448 -0.4972
   22SAPC   H8X 2936   1.628   1.125  67.109 -0.4705  1.2099  0.4026
   22SAPC   H8Y 2937   1.470   1.068  67.042 -1.0136 -1.2261  0.2031
   22SAPC   C39 2938   1.485   0.988  67.234  0.1391 -0.2166 -0.4532
   22SAPC   H9X 2939   1.375   0.972  67.234 -0.2387  0.9522  4.3070
   22SAPC   H9Y 2940   1.509   1.018  67.338 -4.2953  3.2294 -0.1638
   22SAPC  C310 2941   1.557   0.861  67.202 -0.0091  0.1229 -0.8064
   22SAPC  H10X 2942   1.667   0.878  67.191  0.1298 -0.1950  0.0276
   22SAPC  H10Y 2943   1.515   0.823  67.106  1.4929 -4.3217  0.0580
   22SAPC  C311 2944   1.542   0.763  67.314  0.5626  0.1193  0.3893
   22SAPC  H11X 2945   1.438   0.723  67.316 -0.2587  2.0707 -0.5263
   22SAPC  H11Y 2946   1.569   0.813  67.410 -0.2988  1.1414  0.1335
   22SAPC  C312 2947   1.637   0.645  67.312  0.8839  0.6252 -0.8552
   22SAPC  H12X 2948   1.742   0.678  67.295  1.6888 -0.4387  1.6529
   22SAPC  H12Y 2949   1.603   0.593  67.219 -0.8375 -0.6062  0.4016
   22SAPC  C313 2950   1.629   0.545  67.417 -0.6217  0.4481  0.7748
   22SAPC  H13X 2951   1.691   0.569  67.506  0.3649 -1.1319  0.5444
   22SAPC  H13Y 2952   1.676   0.452  67.379 -0.6591  1.3292 -1.6004
   22SAPC  C314 2953   1.490   0.507  67.469 -0.1210 -0.0440  0.3802
   22SAPC  H14X 2954   1.433   0.489  67.376 -2.6539  0.4481  1.7491
   22SAPC  H14Y 2955   1.446   0.591  67.527 -0.5262  0.0354 -0.0399
   22SAPC  C315 2956   1.491   0.379  67.550  0.0762 -0.4423 -0.7283
   22SAPC  H15X 2957   1.531   0.398  67.652  0.7141  0.5295 -1.1433
   22SAPC  H15Y 2958   1.560   0.301  67.511 -0.7578 -0.5611 -2.0342
   22SAPC  C316 2959   1.360   0.309  67.573  0.1172  0.8638  0.1201
   22SAPC  H16X 2960   1.362   0.199  67.562  1.1856  0.8562  0.1997
   22SAPC  H16Y 2961   1.289   0.335  67.492 -3.8017 -0.1377  2.9491
   22SAPC  C317 2962   1.293   0.354  67.700 -0.9384 -0.3621 -0.0835
   22SAPC  H17X 2963   1.324   0.319  67.801 -0.4075 -1.3261 -0.5698
   22SAPC  H17Y 2964   1.189   0.317  67.684 -0.9125 -0.6178  0.3209
   22SAPC  C318 2965   1.295   0.507  67.713 -0.0916  0.3177  0.2272
   22SAPC  H18X 2966   1.231   0.546  67.795 -0.8583 -0.3570 -0.0354
   22SAPC  H18Y 2967   1.271   0.548  67.613  1.3853 -1.5813 -0.9804
   22SAPC  H18Z 2968   1.398   0.537  67.741 -0.8162  1.2285  2.0837
   23SAPC     N 2969   0.024   0.884  73.953 -0.6866  0.5407  0.4176
   23SAPC   C12 2970   0.044   1.026  73.927 -0.1948 -0.3123  0.1646
   23SAPC  H12A 2971   0.068   1.081  74.017  0.7179  2.3657 -1.5921
   23SAPC  H12B 2972  -0.046   1.080  73.902  0.2214  1.0024  1.3423
   23SAPC   C13 2973  -0.083   0.862  74.049  0.6360 -0.2570 -0.0380
   23SAPC  H13A 2974  -0.183   0.888  74.015 -0.9931 -2.9548  2.2312
   23SAPC  H13B 2975  -0.090   0.760  74.082 -0.2331 -0.4931 -0.8841
   23SAPC  H13C 2976  -0.072   0.920  74.139 -0.6951 -1.4898  0.9735
   23SAPC   C14 2977   0.002   0.800  73.834  0.0423 -0.3913  0.2390
   23SAPC  H14A 2978   0.073   0.832  73.759 -0.2647  2.1418  0.9643
   23SAPC  H14B 2979   0.005   0.694  73.856  2.4043 -1.0508 -2.5589
   23SAPC  H14C 2980  -0.092   0.825  73.787 -0.7582 -2.8069  0.3896
   23SAPC   C15 2981   0.144   0.827  74.003 -0.2030 -0.2108 -0.1261
   23SAPC  H15A 2982   0.133   0.728  74.045  2.0391 -0.3795  0.2204
   23SAPC  H15B 2983   0.224   0.828  73.930 -0.4081  1.3297 -0.3507
   23SAPC  H15C 2984   0.187   0.883  74.085 -0.0076  3.0557 -2.2810
   23SAPC   C11 2985   0.166   1.068  73.833  0.3619  0.5827 -0.6008
   23SAPC  H11A 2986   0.269   1.035  73.859  0.1051 -2.9418 -3.2158
   23SAPC  H11B 2987   0.166   1.179  73.831  0.8847  0.5790 -1.7239
   23SAPC     P 2988   0.099   1.105  73.579  0.0666 -0.3874 -0.2516
   23SAPC   O13 2989  -0.046   1.134  73.605 -0.4915  0.1102  0.3299
   23SAPC   O14 2990   0.186   1.219  73.549 -0.2505  0.0452  0.4445
   23SAPC   O12 2991   0.157   1.018  73.698 -0.2075 -0.0763 -0.1040
   23SAPC   O11 2992   0.110   1.004  73.453  0.2417 -0.7925  0.1472
   23SAPC    C1 2993   0.240   0.941  73.459  0.3882  0.0204  0.2939
   23SAPC    HA 2994   0.320   1.007  73.500 -0.7798  0.7585  1.4322
   23SAPC    HB 2995   0.245   0.855  73.529  0.2464 -0.3111 -0.1019
   23SAPC    C2 2996   0.292   0.904  73.317  0.5297  0.1849 -0.9763
   23SAPC    HS 2997   0.400   0.878  73.314  0.1960 -1.2131 -1.2334
   23SAPC   O21 2998   0.269   1.013  73.230  0.3318 -0.0981 -0.1503
   23SAPC   C21 2999   0.363   1.110  73.227  0.1940  0.9283  0.1945
   23SAPC   O22 3000   0.462   1.111  73.299 -0.2501 -0.1037  0.8615
   23SAPC   C22 3001   0.336   1.225  73.131 -0.3505  0.3280  0.2467
   23SAPC   H2R 3002   0.240   1.205  73.077 -0.8781  2.0433  0.5060
   23SAPC   H2S 3003   0.325   1.319  73.189  2.5034 -0.0202  1.5155
   23SAPC    C3 3004   0.213   0.782  73.259  0.3648  0.4505  1.5796
   23SAPC    HX 3005   0.108   0.813  73.241  0.6534  0.3532 -0.4934
   23SAPC    HY 3006   0.212   0.691  73.323 -2.8035 -1.7149 -1.2175
   23SAPC   O31 3007   0.277   0.739  73.136  0.6348  0.1261  0.3557
   23SAPC   C31 3008   0.233   0.776  73.017  0.0523  0.5738  0.2108
   23SAPC   O32 3009   0.138   0.849  72.990 -0.0456 -0.1281  0.1181
   23SAPC   C32 3010   0.312   0.699  72.903 -0.1788  0.1424 -0.0426
   23SAPC   H2X 3011   0.324   0.773  72.820 -0.0414 -0.3894 -0.4957
   23SAPC   H2Y 3012   0.253   0.612  72.869  0.0047 -0.6211  1.5341
   23SAPC   C23 3013   0.442   1.241  73.028  0.4628 -0.5750  0.3479
   23SAPC   H3R 3014   0.543   1.268  73.065  0.7048 -1.0327  0.0282
   23SAPC   H3S 3015   0.413   1.338  72.982 -1.4038 -1.1017  0.3366
   23SAPC   C24 3016   0.457   1.133  72.920  0.0960  0.7019  0.3967
   23SAPC   H4R 3017   0.492   1.048  72.982 -0.6458  0.6860  0.7971
   23SAPC   H4S 3018   0.544   1.169  72.861  0.9208 -0.5225  0.8264
   23SAPC   C25 3019   0.332   1.105  72.846  0.4898  0.0380  0.7144
   23SAPC   H5R 3020   0.233   1.123  72.889 -0.8740 -0.9645 -1.7587
   23SAPC   C26 3021   0.324   1.054  72.715  0.1622 -1.1376 -0.3808
   23SAPC   H6R 3022   0.222   1.052  72.673 -0.2090 -2.8359  0.5197
   23SAPC   C27 3023   0.445   1.025  72.631  1.1318  0.6145  0.0518
   23SAPC   H7R 3024   0.532   0.983  72.687  1.6119  2.2165  0.5535
   23SAPC   H7S 3025   0.482   1.119  72.585  0.5243 -0.9419 -4.0897
   23SAPC   C28 3026   0.388   0.916  72.541 -0.8698 -0.4552  0.7617
   23SAPC   H8R 3027   0.331   0.837  72.592 -1.1914 -0.3800  0.5208
   23SAPC   C29 3028   0.398   0.926  72.405  0.8260  0.1174 -0.8439
   23SAPC   H9R 3029   0.347   0.842  72.357  0.4510 -1.0437  1.4870
   23SAPC  C210 3030   0.479   1.021  72.314 -0.1721  0.4675 -0.4746
   23SAPC  H10R 3031   0.513   1.109  72.374  0.8766  0.6934 -1.3607
   23SAPC  H10S 3032   0.434   1.046  72.215  0.0397  0.2710 -0.6215
   23SAPC  C211 3033   0.614   0.950  72.294  1.4339 -0.3555 -0.4487
   23SAPC  H11R 3034   0.696   0.998  72.350  0.1071 -0.6108  1.8145
   23SAPC  C212 3035   0.652   0.845  72.218  0.4684 -0.5588 -0.6733
   23SAPC  H12R 3036   0.755   0.807  72.228 -0.4156 -3.2950 -0.9593
   23SAPC  C213 3037   0.551   0.771  72.131 -0.3370  0.6591 -0.4123
   23SAPC  H13R 3038   0.471   0.754  72.206 -0.3351 -2.2388 -0.9465
   23SAPC  H13S 3039   0.573   0.664  72.111  0.3661  0.6481  0.3365
   23SAPC  C214 3040   0.500   0.835  72.002  0.0248  0.7596 -0.0114
   23SAPC  H14R 3041   0.452   0.933  72.014 -0.8650  0.1666  1.5164
   23SAPC  C215 3042   0.481   0.781  71.880 -0.0719 -0.0039  0.3297
   23SAPC  H15R 3043   0.442   0.842  71.798 -2.6903 -0.6831  0.9566
   23SAPC  C216 3044   0.534   0.650  71.833  0.5090 -0.5126  0.8912
   23SAPC  H16R 3045   0.463   0.575  71.874 -3.4809  2.8945  0.9077
   23SAPC  H16S 3046   0.637   0.621  71.864  0.9396  0.0362  0.0213
   23SAPC  C217 3047   0.500   0.651  71.678 -0.3429  0.4099  0.8005
   23SAPC  H17R 3048   0.576   0.582  71.636 -1.0925 -0.3036  0.5924
   23SAPC  H17S 3049   0.544   0.743  71.634  0.9234 -0.6788 -0.3187
   23SAPC  C218 3050   0.364   0.614  71.622  0.0521 -0.0642 -0.1347
   23SAPC  H18R 3051   0.291   0.697  71.608 -0.2549 -0.6402 -2.1498
   23SAPC  H18S 3052   0.317   0.540  71.690 -3.5923  1.1628 -1.1098
   23SAPC  C219 3053   0.381   0.558  71.471  0.2846  0.2139  0.0726
   23SAPC  H19R 3054   0.436   0.628  71.405 -2.1219  1.2241 -0.9771
   23SAPC  H19S 3055   0.274   0.550  71.442  0.5618 -0.5201 -0.7711
   23SAPC  C220 3056   0.431   0.417  71.451  0.2617 -0.1437 -0.3842
   23SAPC  H20R 3057   0.529   0.408  71.503 -0.4088 -1.6479  0.7098
   23SAPC  H20S 3058   0.422   0.379  71.347  1.1804 -0.5958 -0.3036
   23SAPC  H20T 3059   0.365   0.346  71.505  1.2221 -2.1912 -1.7672
   23SAPC   C33 3060   0.448   0.643  72.959 -0.0444  0.0917  1.3932
   23SAPC   H3X 3061   0.435   0.570  73.041  3.4431  2.1501  4.0621
   23SAPC   H3Y 3062   0.497   0.725  73.015  1.3104 -1.1150  2.0217
   23SAPC   C34 3063   0.532   0.583  72.847 -0.0992 -0.2786 -0.2865
   23SAPC   H4X 3064   0.619   0.526  72.886  2.0048  1.4188 -2.2342
   23SAPC   H4Y 3065   0.587   0.664  72.794  0.9400 -0.3216  0.6773
   23SAPC   C35 3066   0.463   0.491  72.746  0.1017  0.2508 -0.0867
   23SAPC   H5X 3067   0.369   0.532  72.703  0.6263  0.2778 -1.2317
   23SAPC   H5Y 3068   0.436   0.393  72.790  1.7908  1.1855  3.4454
   23SAPC   C36 3069   0.550   0.477  72.618 -0.2464 -0.3648  0.6857
   23SAPC   H6X 3070   0.649   0.438  72.650  0.8557  0.3598 -1.6065
   23SAPC   H6Y 3071   0.565   0.575  72.567  0.4745 -1.2022 -0.7653
   23SAPC   C37 3072   0.500   0.376  72.517 -0.2847  0.7406 -0.1105
   23SAPC   H7X 3073   0.410   0.420  72.470 -1.3218 -1.3835 -0.2071
   23SAPC   H7Y 3074   0.476   0.275  72.557 -1.7423  0.9371 -0.4514
   23SAPC   C38 3075   0.598   0.349  72.396  1.2315 -0.3648 -0.0900
   23SAPC   H8X 3076   0.670   0.276  72.439  4.1762  2.7499  0.6462
   23SAPC   H8Y 3077   0.650   0.445  72.379 -1.1674  1.3316  1.4296
   23SAPC   C39 3078   0.524   0.303  72.270 -0.7460  0.0716  0.7511
   23SAPC   H9X 3079   0.456   0.386  72.242  0.0476 -0.0807 -1.8847
   23SAPC   H9Y 3080   0.464   0.215  72.302  0.5745 -1.8848 -1.8054
   23SAPC  C310 3081   0.619   0.268  72.152 -0.1489 -0.5019 -0.3932
   23SAPC  H10X 3082   0.702   0.210  72.197 -0.2128  0.2837  0.7803
   23SAPC  H10Y 3083   0.669   0.357  72.108  0.5121 -0.9801 -0.6294
   23SAPC  C311 3084   0.548   0.195  72.035 -0.1773  0.2439 -0.0395
   23SAPC  H11X 3085   0.540   0.086  72.054  0.8419  0.2098  0.2681
   23SAPC  H11Y 3086   0.616   0.202  71.947  0.1623 -3.2827 -0.2174
   23SAPC  C312 3087   0.413   0.257  71.990 -0.0139 -0.7016 -0.2082
   23SAPC  H12X 3088   0.413   0.364  71.963 -0.1567  0.2550  3.1200
   23SAPC  H12Y 3089   0.357   0.247  72.086 -0.3061  1.7019 -0.0866
   23SAPC  C313 3090   0.350   0.162  71.896  0.0177  0.2838 -0.2518
   23SAPC  H13X 3091   0.248   0.192  71.865  1.1731  3.3201 -1.5153
   23SAPC  H13Y 3092   0.347   0.059  71.937  3.0346  0.0430 -0.3901
   23SAPC  C314 3093   0.425   0.145  71.759 -0.0738 -0.1208  0.0428
   23SAPC  H14X 3094   0.536   0.142  71.766 -0.0666  1.2937  1.2182
   23SAPC  H14Y 3095   0.390   0.240  71.712 -1.2870  0.5203  2.0931
   23SAPC  C315 3096   0.361   0.029  71.688 -0.1695 -0.0464 -0.4009
   23SAPC  H15X 3097   0.253   0.014  71.712  0.6985 -2.5783  2.5287
   23SAPC  H15Y 3098   0.413  -0.065  71.715  0.2923  0.1963 -0.4414
   23SAPC  C316 3099   0.372   0.038  71.537  0.0649  0.1596  0.2643
   23SAPC  H16X 3100   0.463  -0.015  71.502 -0.1116 -0.9171  1.3294
   23SAPC  H16Y 3101   0.400   0.140  71.505  0.1064 -0.1619 -0.7444
   23SAPC  C317 3102   0.253  -0.018  71.445 -0.4035 -0.1152 -0.0478
   23SAPC  H17X 3103   0.238  -0.124  71.474  0.5341 -0.2120  0.1371
   23SAPC  H17Y 3104   0.284  -0.020  71.339 -1.6246 -0.6207 -0.4043
   23SAPC  C318 3105   0.131   0.071  71.456  0.3310 -0.0823 -0.5917
   23SAPC  H18X 3106   0.149   0.178  71.432 -0.1911  0.1118 -0.1532
   23SAPC  H18Y 3107   0.094   0.067  71.561  0.6749  1.2626 -0.4108
   23SAPC  H18Z 3108   0.048   0.026  71.398  0.8126 -2.0403  0.1482
   24SAPC     N 3109   1.715   1.106  64.072 -0.0173  0.7368 -0.6962
   24SAPC   C12 3110   1.581   1.121  64.148 -0.1531 -0.0646  0.2682
   24SAPC  H12A 3111   1.582   1.057  64.235 -1.1378  1.9736  1.8654
   24SAPC  H12B 3112   1.508   1.090  64.074 -1.2418 -0.8407  1.6213
   24SAPC   C13 3113   1.716   0.962  64.027  0.7566 -0.0001  0.1310
   24SAPC  H13A 3114   1.652   0.948  63.941 -0.3023 -1.8830  1.1430
   24SAPC  H13B 3115   1.814   0.934  63.988  0.3244  0.4757 -1.3617
   24SAPC  H13C 3116   1.705   0.888  64.105 -0.5119  2.4605  2.4431
   24SAPC   C14 3117   1.712   1.190  63.953  0.4543 -1.0165 -0.0617
   24SAPC  H14A 3118   1.748   1.291  63.963 -1.4891 -0.0527 -2.0095
   24SAPC  H14B 3119   1.773   1.166  63.867 -0.6986 -0.1066 -1.1685
   24SAPC  H14C 3120   1.606   1.196  63.933  0.5975  0.6996 -0.4330
   24SAPC   C15 3121   1.831   1.127  64.157  0.3150 -0.0083 -0.1355
   24SAPC  H15A 3122   1.913   1.071  64.114 -0.0353  0.0447 -0.8851
   24SAPC  H15B 3123   1.861   1.231  64.161  0.1762 -0.0049  2.3616
   24SAPC  H15C 3124   1.819   1.093  64.258 -2.0441 -1.1773 -0.7592
   24SAPC   C11 3125   1.522   1.255  64.194  0.1167 -0.7655 -0.3134
   24SAPC  H11A 3126   1.610   1.297  64.247 -1.1963  2.0398 -0.1740
   24SAPC  H11B 3127   1.438   1.227  64.261 -1.5767  1.7942 -1.1943
   24SAPC     P 3128   1.351   1.285  64.006  0.3281 -0.4220  0.2497
   24SAPC   O13 3129   1.362   1.315  63.861 -0.0248 -0.7332 -0.6631
   24SAPC   O14 3130   1.335   1.138  64.030  0.3822 -0.3110 -0.5208
   24SAPC   O12 3131   1.481   1.345  64.089  0.4192 -0.7128 -0.0184
   24SAPC   O11 3132   1.219   1.363  64.061 -0.0399 -1.1936  0.0244
   24SAPC    C1 3133   1.224   1.468  64.159 -0.8297  0.4849  1.1599
   24SAPC    HA 3134   1.321   1.491  64.208 -0.9626  0.4160  1.4690
   24SAPC    HB 3135   1.204   1.563  64.106  0.5198  1.7862  2.8780
   24SAPC    C2 3136   1.119   1.439  64.258 -1.5365 -0.9091 -0.5490
   24SAPC    HS 3137   1.102   1.534  64.314  2.9479  1.0987 -2.0787
   24SAPC   O21 3138   1.152   1.324  64.342 -0.0381 -0.2335  0.7285
   24SAPC   C21 3139   1.258   1.339  64.415  0.6304 -0.1598  0.2815
   24SAPC   O22 3140   1.324   1.441  64.431 -0.1234 -0.5034 -0.0418
   24SAPC   C22 3141   1.287   1.206  64.485 -1.1887  0.3130  0.5754
   24SAPC   H2R 3142   1.396   1.191  64.471 -0.9572 -1.8467  3.7329
   24SAPC   H2S 3143   1.264   1.231  64.590 -1.1736  1.0921  0.4010
   24SAPC    C3 3144   0.983   1.402  64.206  1.0876 -0.7598 -0.1611
   24SAPC    HX 3145   1.009   1.310  64.149  2.3939 -0.8616  0.5523
   24SAPC    HY 3146   0.928   1.477  64.146  0.8445 -1.5049 -0.8946
   24SAPC   O31 3147   0.900   1.367  64.326 -0.5848  1.3400  0.3731
   24SAPC   C31 3148   0.850   1.238  64.325 -0.1021 -0.9355  0.1381
   24SAPC   O32 3149   0.866   1.158  64.236 -0.1342  0.8583 -0.3129
   24SAPC   C32 3150   0.764   1.215  64.445  0.0393 -0.0281  0.3998
   24SAPC   H2X 3151   0.687   1.294  64.456 -0.4603 -0.4937  0.2951
   24SAPC   H2Y 3152   0.841   1.237  64.522 -0.8085  2.8553  0.5641
   24SAPC   C23 3153   1.205   1.079  64.448  0.1030  0.2256  0.7348
   24SAPC   H3R 3154   1.238   1.043  64.348  4.1215  1.3630  1.4825
   24SAPC   H3S 3155   1.098   1.108  64.438 -0.3930 -0.8109  2.6342
   24SAPC   C24 3156   1.238   0.964  64.544 -0.1329 -0.0732  0.6588
   24SAPC   H4R 3157   1.206   0.969  64.650  0.9315  1.3697  0.9284
   24SAPC   H4S 3158   1.348   0.968  64.559 -0.3695  1.0667  2.2411
   24SAPC   C25 3159   1.211   0.831  64.481  0.3934 -0.2695  0.1064
   24SAPC   H5R 3160   1.239   0.821  64.375 -1.7774  3.0879 -0.9505
   24SAPC   C26 3161   1.134   0.735  64.531  0.2298 -0.5678  0.3251
   24SAPC   H6R 3162   1.114   0.652  64.462 -0.1087 -2.5407  2.6332
   24SAPC   C27 3163   1.079   0.731  64.672  0.0928  0.6746  0.4223
   24SAPC   H7R 3164   1.030   0.826  64.704  0.0062  0.9644 -0.5335
   24SAPC   H7S 3165   1.164   0.714  64.742  1.1311 -0.1540 -0.9759
   24SAPC   C28 3166   0.977   0.621  64.686  0.7217 -0.8926 -0.1258
   24SAPC   H8R 3167   0.949   0.566  64.594 -0.3642 -2.0638  0.8741
   24SAPC   C29 3168   0.944   0.574  64.803  1.2899 -1.2469  0.8209
   24SAPC   H9R 3169   0.860   0.503  64.795 -1.1815  1.4436  1.2024
   24SAPC  C210 3170   0.984   0.628  64.941 -0.0646  0.3457  0.6339
   24SAPC  H10R 3171   0.935   0.727  64.953  1.1861  0.9035  1.2681
   24SAPC  H10S 3172   1.091   0.654  64.943  0.1469 -0.4917  3.2549
   24SAPC  C211 3173   0.957   0.544  65.063  0.2521  1.0297  0.9088
   24SAPC  H11R 3174   0.862   0.574  65.109  0.0950  1.0997  0.5414
   24SAPC  C212 3175   1.036   0.471  65.146 -0.3573  0.6160  0.3553
   24SAPC  H12R 3176   0.998   0.420  65.237  1.5343 -2.6739 -0.5078
   24SAPC  C213 3177   1.181   0.451  65.132  0.3673 -0.0935 -0.8466
   24SAPC  H13R 3178   1.244   0.499  65.210 -2.1993  0.9335  0.7140
   24SAPC  H13S 3179   1.223   0.498  65.040 -0.8338  0.0755 -1.3273
   24SAPC  C214 3180   1.225   0.305  65.153  0.7579 -0.1617 -0.2056
   24SAPC  H14R 3181   1.292   0.301  65.240  1.7003 -2.4220 -0.9651
   24SAPC  C215 3182   1.183   0.189  65.098  0.8251  0.3182  0.7419
   24SAPC  H15R 3183   1.230   0.096  65.134  0.8912  1.7208  4.7941
   24SAPC  C216 3184   1.078   0.172  64.989 -1.0325  0.8199  0.6753
   24SAPC  H16R 3185   1.036   0.273  64.970 -3.3590 -0.0082  1.1197
   24SAPC  H16S 3186   0.991   0.116  65.030 -1.2805 -0.9862 -2.0695
   24SAPC  C217 3187   1.140   0.095  64.864 -0.1422  0.0658  0.9577
   24SAPC  H17R 3188   1.158  -0.013  64.881  1.5089 -0.1729 -1.6988
   24SAPC  H17S 3189   1.237   0.142  64.838 -0.3876  0.2216  0.2954
   24SAPC  C218 3190   1.040   0.117  64.739  0.3533  0.5364 -0.3584
   24SAPC  H18R 3191   0.941   0.085  64.779 -0.9910  0.4062 -3.5001
   24SAPC  H18S 3192   1.058   0.047  64.654 -2.0134  0.7114 -1.0605
   24SAPC  C219 3193   1.035   0.250  64.669  0.2110  0.1093 -0.2037
   24SAPC  H19R 3194   1.139   0.274  64.639 -0.2974  0.9909 -1.3127
   24SAPC  H19S 3195   1.017   0.330  64.744  1.7072 -0.7204  1.0980
   24SAPC  C220 3196   0.925   0.269  64.562 -0.3644 -0.3659  1.4424
   24SAPC  H20R 3197   0.929   0.185  64.489  2.3585 -0.1684  1.2440
   24SAPC  H20S 3198   0.944   0.364  64.508 -0.7554 -1.7453 -1.3176
   24SAPC  H20T 3199   0.827   0.283  64.613 -1.1358  0.0315 -0.0922
   24SAPC   C33 3200   0.694   1.084  64.468 -1.5226  0.4811 -0.3760
   24SAPC   H3X 3201   0.765   0.999  64.471  0.5888  2.1200 -1.2914
   24SAPC   H3Y 3202   0.625   1.065  64.383 -1.1425 -0.4301 -0.4930
   24SAPC   C34 3203   0.633   1.069  64.608 -0.1266 -0.4812 -0.1898
   24SAPC   H4X 3204   0.546   1.137  64.624  1.5631  1.2990  2.3075
   24SAPC   H4Y 3205   0.705   1.102  64.686  0.8466 -5.9372  1.6621
   24SAPC   C35 3206   0.564   0.930  64.640 -1.1170 -0.4319 -0.3578
   24SAPC   H5X 3207   0.636   0.846  64.631 -1.6837 -0.9399 -0.1773
   24SAPC   H5Y 3208   0.488   0.912  64.561  0.4143  0.4312 -2.1001
   24SAPC   C36 3209   0.517   0.905  64.789  0.1350 -0.2662 -0.3727
   24SAPC   H6X 3210   0.459   0.811  64.798  1.1588 -0.7702  1.6421
   24SAPC   H6Y 3211   0.448   0.989  64.813 -0.2121 -0.7074  0.1757
   24SAPC   C37 3212   0.625   0.894  64.895 -0.9036  0.2174  0.0213
   24SAPC   H7X 3213   0.686   0.986  64.899  1.7434 -1.4337  0.7417
   24SAPC   H7Y 3214   0.682   0.799  64.881 -4.1116 -1.9296  0.4421
   24SAPC   C38 3215   0.565   0.887  65.034 -0.0683 -0.2276  0.3970
   24SAPC   H8X 3216   0.458   0.860  65.024  0.1778 -0.6800 -1.5177
   24SAPC   H8Y 3217   0.573   0.986  65.084  0.5164 -0.5480  0.9387
   24SAPC   C39 3218   0.645   0.792  65.122 -0.2874 -0.6376  0.5669
   24SAPC   H9X 3219   0.706   0.723  65.060 -2.6862  0.2920 -3.1587
   24SAPC   H9Y 3220   0.570   0.738  65.183 -1.4341 -1.1255 -1.1959
   24SAPC  C310 3221   0.741   0.859  65.223  0.4600 -0.2605 -0.4860
   24SAPC  H10X 3222   0.689   0.943  65.274 -0.3810 -1.8387  1.3491
   24SAPC  H10Y 3223   0.832   0.895  65.171  1.6497 -0.7432  1.1916
   24SAPC  C311 3224   0.783   0.765  65.332 -0.1510  0.5408  0.2261
   24SAPC  H11X 3225   0.841   0.679  65.290 -1.6712  0.0892 -1.0018
   24SAPC  H11Y 3226   0.705   0.728  65.402  2.3040  0.2069  2.9922
   24SAPC  C312 3227   0.878   0.842  65.425 -0.3887 -0.0680  0.2097
   24SAPC  H12X 3228   0.832   0.935  65.463 -0.4827 -0.2105  0.4391
   24SAPC  H12Y 3229   0.973   0.875  65.378 -0.4694 -0.6691 -0.4045
   24SAPC  C313 3230   0.935   0.765  65.546  0.3714 -0.3820 -0.1620
   24SAPC  H13X 3231   1.018   0.699  65.510  1.0366  0.8897 -1.0421
   24SAPC  H13Y 3232   0.857   0.697  65.587  2.4277 -1.8346  1.6176
   24SAPC  C314 3233   1.008   0.850  65.653 -0.4732  0.5747  0.6114
   24SAPC  H14X 3234   1.099   0.876  65.595 -0.7367 -1.4136 -0.7642
   24SAPC  H14Y 3235   1.057   0.796  65.738  1.4685  4.5734  2.2829
   24SAPC  C315 3236   0.937   0.983  65.688  0.7028  0.0584  0.8238
   24SAPC  H15X 3237   0.928   1.050  65.600 -1.7068 -0.8302  0.3120
   24SAPC  H15Y 3238   1.011   1.017  65.763  1.4073  1.3486 -0.3952
   24SAPC  C316 3239   0.804   0.977  65.770 -0.7236  0.2235  0.0283
   24SAPC  H16X 3240   0.831   0.964  65.877 -2.5102 -1.6054  0.3051
   24SAPC  H16Y 3241   0.742   0.902  65.716  0.1216 -0.8292  0.4886
   24SAPC  C317 3242   0.722   1.105  65.764 -0.9061  0.8095  0.5496
   24SAPC  H17X 3243   0.693   1.124  65.659 -0.0785 -0.9020 -0.0232
   24SAPC  H17Y 3244   0.762   1.192  65.821  2.2505 -0.3638  0.3586
   24SAPC  C318 3245   0.588   1.081  65.837 -0.3089  0.1491  0.3281
   24SAPC  H18X 3246   0.605   1.054  65.944 -2.4727  0.8263  0.9061
   24SAPC  H18Y 3247   0.535   0.995  65.791 -0.8646  0.8491 -0.3585
   24SAPC  H18Z 3248   0.531   1.177  65.835 -1.3308 -0.4346 -2.0015
   25SAPC     N 3249   1.975   2.435  44.984  0.1496 -0.0536  0.2078
   25SAPC   C12 3250   1.953   2.345  45.107 -0.3788  0.1272  0.0679
   25SAPC  H12A 3251   1.868   2.385  45.160 -1.8948  0.3951 -2.4022
   25SAPC  H12B 3252   2.040   2.339  45.171 -0.8530 -1.2744  0.6222
   25SAPC   C13 3253   2.103   2.391  44.918 -0.1328 -0.1907  0.7519
   25SAPC  H13A 3254   2.191   2.425  44.971 -0.6885 -0.8594  2.1510
   25SAPC  H13B 3255   2.109   2.285  44.934 -0.8863 -0.0401  2.2265
   25SAPC  H13C 3256   2.107   2.412  44.812  2.0541 -1.1354  0.5981
   25SAPC   C14 3257   1.851   2.419  44.896 -0.9168 -0.4874 -0.3833
   25SAPC  H14A 3258   1.867   2.474  44.805  3.0215 -2.6416 -1.2443
   25SAPC  H14B 3259   1.841   2.315  44.869 -2.2623  0.1682 -2.6472
   25SAPC  H14C 3260   1.761   2.446  44.949  0.1614 -1.1931  1.9189
   25SAPC   C15 3261   1.989   2.571  45.037 -0.6167  0.1940  0.5569
   25SAPC  H15A 3262   2.001   2.636  44.952  0.4909 -4.4492 -3.3429
   25SAPC  H15B 3263   1.909   2.594  45.106  0.3002  1.1566  1.3238
   25SAPC  H15C 3264   2.074   2.582  45.103 -1.7656 -0.4752  2.2351
   25SAPC   C11 3265   1.934   2.192  45.095 -0.1694 -0.3216 -0.5826
   25SAPC  H11A 3266   1.857   2.160  45.022 -0.4786  1.1694 -0.9435
   25SAPC  H11B 3267   1.909   2.153  45.196 -0.1624  1.9140  0.3402
   25SAPC     P 3268   2.192   2.124  45.135  0.2983 -0.0923 -0.1793
   25SAPC   O13 3269   2.304   2.155  45.045  0.6751  0.3378 -0.6081
   25SAPC   O14 3270   2.171   2.215  45.247  0.2058  0.4470  0.4946
   25SAPC   O12 3271   2.058   2.133  45.050 -0.5495  0.0383 -0.6283
   25SAPC   O11 3272   2.195   1.969  45.181  0.5440 -0.1586  0.2313
   25SAPC    C1 3273   2.189   1.863  45.085 -0.0346  0.3513 -0.2702
   25SAPC    HA 3274   2.193   1.890  44.977 -0.9133 -1.8592 -0.9209
   25SAPC    HB 3275   2.282   1.806  45.104  0.9165  1.2419 -2.0076
   25SAPC    C2 3276   2.052   1.788  45.102  0.2681  0.6970  0.3710
   25SAPC    HS 3277   1.966   1.852  45.129  0.6398  1.0319  0.7911
   25SAPC   O21 3278   2.067   1.673  45.187 -0.2171 -0.0663  0.0716
   25SAPC   C21 3279   1.988   1.686  45.296  0.1184  0.2713 -0.5479
   25SAPC   O22 3280   1.887   1.751  45.303  0.6967  0.1843  0.1220
   25SAPC   C22 3281   2.034   1.581  45.403 -0.1853  0.5359  0.7625
   25SAPC   H2R 3282   1.993   1.481  45.375 -0.5642  0.3286  1.9842
   25SAPC   H2S 3283   2.145   1.573  45.401 -0.2343 -0.4245  1.0085
   25SAPC    C3 3284   2.011   1.722  44.962 -0.3055  0.1782 -0.0184
   25SAPC    HX 3285   2.083   1.640  44.941 -1.7864 -1.5167  1.2788
   25SAPC    HY 3286   2.020   1.802  44.886 -0.5442 -0.2415 -0.4880
   25SAPC   O31 3287   1.881   1.655  44.966  0.4012 -0.8348 -0.3643
   25SAPC   C31 3288   1.775   1.730  44.948 -0.8718 -0.3032  0.7916
   25SAPC   O32 3289   1.779   1.851  44.918 -0.4312  0.4782  0.6198
   25SAPC   C32 3290   1.649   1.648  44.961 -0.6413  0.7671  0.3715
   25SAPC   H2X 3291   1.684   1.551  45.003 -1.2774 -0.4194 -1.6877
   25SAPC   H2Y 3292   1.630   1.636  44.852  2.6553 -2.3508 -0.0553
   25SAPC   C23 3293   1.974   1.621  45.538 -0.1234  0.3766  0.0320
   25SAPC   H3R 3294   1.863   1.617  45.537 -0.1716  1.0810 -2.0901
   25SAPC   H3S 3295   2.003   1.727  45.548  1.8451  0.1763 -2.5504
   25SAPC   C24 3296   2.038   1.541  45.646  0.6091  0.2342 -0.2192
   25SAPC   H4R 3297   2.139   1.523  45.605  0.1718  2.3169 -2.4175
   25SAPC   H4S 3298   2.004   1.435  45.657  2.0789 -0.2842 -0.5304
   25SAPC   C25 3299   2.052   1.601  45.780 -0.1670 -0.7071  0.3172
   25SAPC   H5R 3300   2.122   1.685  45.776 -2.3448  1.1710 -0.3249
   25SAPC   C26 3301   1.992   1.562  45.894  0.1221 -0.1895  0.4846
   25SAPC   H6R 3302   2.031   1.599  45.989  2.5442  0.2068 -0.5895
   25SAPC   C27 3303   1.897   1.443  45.911 -0.8581 -0.0372  0.1678
   25SAPC   H7R 3304   1.964   1.359  45.939  2.9410  2.0176 -1.9254
   25SAPC   H7S 3305   1.850   1.411  45.816 -0.8743 -2.2054  0.8494
   25SAPC   C28 3306   1.790   1.465  46.013  0.0976 -0.1757  0.1154
   25SAPC   H8R 3307   1.712   1.532  45.975  2.6736  1.4804 -2.6441
   25SAPC   C29 3308   1.797   1.442  46.140  0.2756 -0.0249  0.3996
   25SAPC   H9R 3309   1.705   1.460  46.199  0.5794  0.4572  0.7277
   25SAPC  C210 3310   1.893   1.376  46.224  0.5756  0.4303  0.6877
   25SAPC  H10R 3311   1.981   1.361  46.158 -1.5550 -0.0172 -2.2705
   25SAPC  H10S 3312   1.862   1.274  46.254  3.5830 -0.9248 -0.4835
   25SAPC  C211 3313   1.937   1.441  46.356 -0.3459 -1.5381  0.4957
   25SAPC  H11R 3314   1.862   1.436  46.436  1.5803 -2.1091  2.3441
   25SAPC  C212 3315   2.049   1.512  46.385 -0.0489 -0.2007 -0.0059
   25SAPC  H12R 3316   2.067   1.530  46.492  0.8364  0.3137 -0.2236
   25SAPC  C213 3317   2.159   1.545  46.293  0.0632 -0.0828  0.2538
   25SAPC  H13R 3318   2.160   1.656  46.293 -3.9921  0.1167 -0.2120
   25SAPC  H13S 3319   2.153   1.508  46.189  0.4475 -0.8438  0.4990
   25SAPC  C214 3320   2.295   1.501  46.337  0.1444 -0.1675  0.0728
   25SAPC  H14R 3321   2.341   1.575  46.404  2.9991 -1.5104 -0.2629
   25SAPC  C215 3322   2.366   1.396  46.306 -0.9419  0.0290  0.0549
   25SAPC  H15R 3323   2.464   1.379  46.354 -0.5195 -0.9656 -1.1354
   25SAPC  C216 3324   2.321   1.288  46.218 -0.2804  0.3939  0.0030
   25SAPC  H16R 3325   2.302   1.341  46.122  0.6433  0.1374 -0.3345
   25SAPC  H16S 3326   2.225   1.242  46.251  0.0837 -0.8339 -0.6131
   25SAPC  C217 3327   2.427   1.181  46.173  0.5570 -0.2073  0.6217
   25SAPC  H17R 3328   2.387   1.103  46.104  1.7096 -0.8074  0.6038
   25SAPC  H17S 3329   2.458   1.127  46.265 -1.9839 -2.4527  0.3163
   25SAPC  C218 3330   2.542   1.237  46.093  0.1737  0.7683 -0.4613
   25SAPC  H18R 3331   2.554   1.333  46.147 -2.3168 -1.0643  3.8845
   25SAPC  H18S 3332   2.509   1.248  45.988  0.9859 -0.8047 -0.9252
   25SAPC  C219 3333   2.667   1.142  46.088  0.2167 -0.9921  0.4188
   25SAPC  H19R 3334   2.665   1.115  45.980  0.9330  0.3663  0.0402
   25SAPC  H19S 3335   2.645   1.053  46.150 -0.7428 -0.2918  1.1197
   25SAPC  C220 3336   2.813   1.187  46.110  0.0752  0.0918  0.0219
   25SAPC  H20R 3337   2.846   1.201  46.215  0.1448 -2.8079  0.4644
   25SAPC  H20S 3338   2.811   1.274  46.041 -4.7823 -1.2569 -1.9849
   25SAPC  H20T 3339   2.889   1.116  46.069 -0.0332  1.2026 -2.2813
   25SAPC   C33 3340   1.535   1.712  45.038 -0.2076 -0.5314  0.3641
   25SAPC   H3X 3341   1.533   1.815  44.996  1.1102 -1.0023 -0.9073
   25SAPC   H3Y 3342   1.553   1.719  45.148 -1.7171 -1.4364  0.6916
   25SAPC   C34 3343   1.397   1.655  45.013 -0.7288 -0.1350 -0.4927
   25SAPC   H4X 3344   1.363   1.645  44.907  2.2957  0.0516 -1.5884
   25SAPC   H4Y 3345   1.325   1.733  45.043  1.3542  2.2617 -1.3565
   25SAPC   C35 3346   1.380   1.530  45.099  0.1711  0.2975  0.3741
   25SAPC   H5X 3347   1.377   1.547  45.209  2.2563 -0.6164  0.6270
   25SAPC   H5Y 3348   1.472   1.467  45.087  1.9193  2.9109 -0.8595
   25SAPC   C36 3349   1.262   1.445  45.068 -0.1572 -0.1471 -0.0945
   25SAPC   H6X 3350   1.175   1.510  45.044  0.4241  0.9730  0.7565
   25SAPC   H6Y 3351   1.229   1.383  45.154  0.6552 -1.2487 -0.5534
   25SAPC   C37 3352   1.276   1.361  44.939 -0.2222  0.2206  0.7256
   25SAPC   H7X 3353   1.374   1.309  44.940 -0.1020  0.4389  0.6476
   25SAPC   H7Y 3354   1.280   1.426  44.848 -1.2293 -0.8939 -0.1472
   25SAPC   C38 3355   1.165   1.249  44.924  0.2410  0.2496 -0.4575
   25SAPC   H8X 3356   1.177   1.208  44.822 -2.4914 -0.6731 -0.4988
   25SAPC   H8Y 3357   1.062   1.289  44.913  1.1145  3.2183  0.9604
   25SAPC   C39 3358   1.171   1.131  45.040  0.4960  0.4665 -0.0308
   25SAPC   H9X 3359   1.092   1.060  45.008  1.2114  1.0098 -3.2981
   25SAPC   H9Y 3360   1.138   1.188  45.130 -1.3572  1.0813 -1.0461
   25SAPC  C310 3361   1.307   1.057  45.047 -0.2513 -0.0967 -0.0429
   25SAPC  H10X 3362   1.296   0.972  45.118 -1.4515  0.3989  0.3881
   25SAPC  H10Y 3363   1.379   1.127  45.095  2.5339 -1.1617 -2.3440
   25SAPC  C311 3364   1.356   0.996  44.914  0.0167 -0.0071  0.5455
   25SAPC  H11X 3365   1.327   1.064  44.831  1.3063 -0.5820 -0.4182
   25SAPC  H11Y 3366   1.291   0.906  44.909 -0.5248  0.3570  0.9440
   25SAPC  C312 3367   1.504   0.961  44.910  0.6016 -0.2584 -1.0782
   25SAPC  H12X 3368   1.564   1.051  44.936 -1.2956  1.1870 -1.4773
   25SAPC  H12Y 3369   1.532   0.934  44.806  1.0535 -2.5677 -0.4133
   25SAPC  C313 3370   1.552   0.866  45.024  0.2932 -0.5694 -0.4749
   25SAPC  H13X 3371   1.500   0.771  45.000  0.5431 -0.3859 -1.8410
   25SAPC  H13Y 3372   1.508   0.893  45.122 -0.3867 -3.4939  0.1183
   25SAPC  C314 3373   1.704   0.835  45.023 -0.1674 -0.5668 -0.4230
   25SAPC  H14X 3374   1.753   0.935  45.016  0.3330 -0.8349 -0.7765
   25SAPC  H14Y 3375   1.738   0.794  44.925 -0.1971  0.5172 -0.9092
   25SAPC  C315 3376   1.743   0.724  45.124 -0.0730  0.3977  0.3070
   25SAPC  H15X 3377   1.705   0.628  45.084 -1.3449  1.4432 -1.0705
   25SAPC  H15Y 3378   1.683   0.759  45.211 -2.0899 -0.1200 -0.8289
   25SAPC  C316 3379   1.890   0.712  45.171  0.4687 -0.5901  0.0476
   25SAPC  H16X 3380   1.946   0.643  45.105 -0.9326 -0.4655 -1.3338
   25SAPC  H16Y 3381   1.903   0.674  45.274 -0.3088  0.1589  0.4368
   25SAPC  C317 3382   1.949   0.851  45.173  0.0654  0.3797 -0.4809
   25SAPC  H17X 3383   1.869   0.923  45.201 -0.3339  0.3520 -1.5236
   25SAPC  H17Y 3384   1.990   0.876  45.073 -0.9221  1.6880 -0.5891
   25SAPC  C318 3385   2.067   0.868  45.277 -0.1729 -0.4961 -0.4078
   25SAPC  H18X 3386   2.137   0.950  45.250 -1.8447  1.3128  0.4744
   25SAPC  H18Y 3387   2.126   0.774  45.280  1.6271  0.4862 -2.1718
   25SAPC  H18Z 3388   2.023   0.901  45.373  2.1726  1.7826  0.0172
   26SAPC     N 3389   2.150   0.994  47.524 -0.6861  0.6408 -0.3735
   26SAPC   C12 3390   2.301   1.002  47.529 -0.1813 -0.7140 -0.5270
   26SAPC  H12A 3391   2.346   0.920  47.476 -0.3120 -1.9315  1.1720
   26SAPC  H12B 3392   2.324   0.984  47.633 -0.6727 -2.6009 -0.7066
   26SAPC   C13 3393   2.073   1.106  47.582 -0.1224  0.1979 -0.0387
   26SAPC  H13A 3394   2.117   1.133  47.677 -0.3411 -1.3535  0.5391
   26SAPC  H13B 3395   2.096   1.192  47.521 -3.2296  1.6443  0.5991
   26SAPC  H13C 3396   1.966   1.097  47.569 -0.1797  2.6039 -1.8633
   26SAPC   C14 3397   2.104   0.978  47.372  0.2905  0.5064  1.1425
   26SAPC  H14A 3398   2.119   1.077  47.332 -2.7168  1.1400  1.3994
   26SAPC  H14B 3399   2.168   0.900  47.335  0.6556  1.2660  0.1423
   26SAPC  H14C 3400   2.005   0.936  47.373  0.0753  1.0067  1.2278
   26SAPC   C15 3401   2.112   0.880  47.603 -0.0281 -0.8338  0.4565
   26SAPC  H15A 3402   2.157   0.886  47.700  0.2407  2.6756  0.2654
   26SAPC  H15B 3403   2.004   0.886  47.608 -0.0110  2.7119 -0.4038
   26SAPC  H15C 3404   2.145   0.795  47.545 -0.8695 -2.2350  1.9439
   26SAPC   C11 3405   2.352   1.144  47.491 -0.1806 -0.3929  0.9436
   26SAPC  H11A 3406   2.463   1.138  47.493  0.0230  1.1307 -1.7169
   26SAPC  H11B 3407   2.330   1.228  47.560 -0.7982  0.2616 -0.0239
   26SAPC     P 3408   2.384   1.137  47.230  0.4131  0.5179  0.2695
   26SAPC   O13 3409   2.466   1.239  47.171 -1.0092  0.2043  0.3335
   26SAPC   O14 3410   2.445   1.009  47.251  0.1532  0.5132  0.0174
   26SAPC   O12 3411   2.313   1.192  47.359  0.3021 -0.2401 -0.2111
   26SAPC   O11 3412   2.258   1.107  47.140  0.3965 -0.0566  0.1122
   26SAPC    C1 3413   2.163   1.217  47.121 -0.4668 -0.4736 -0.5673
   26SAPC    HA 3414   2.108   1.228  47.217  0.9898 -0.7206  0.3237
   26SAPC    HB 3415   2.213   1.314  47.106  1.8807 -1.3354  1.1104
   26SAPC    C2 3416   2.067   1.190  47.010 -0.5459 -0.7896  1.6378
   26SAPC    HS 3417   2.028   1.086  47.019 -1.7005 -0.8252 -2.1124
   26SAPC   O21 3418   2.144   1.205  46.888 -0.1792  0.1695  0.2262
   26SAPC   C21 3419   2.205   1.092  46.844  0.8029  0.7805 -0.6061
   26SAPC   O22 3420   2.167   0.979  46.884  0.1793  0.4684  0.3646
   26SAPC   C22 3421   2.300   1.122  46.721 -0.2915 -0.1157 -0.1015
   26SAPC   H2R 3422   2.396   1.168  46.752 -1.3232  1.5967  0.7048
   26SAPC   H2S 3423   2.341   1.025  46.687  0.4245  0.8932 -2.3043
   26SAPC    C3 3424   1.944   1.289  47.013 -0.2390  0.2746  0.0409
   26SAPC    HX 3425   1.988   1.391  47.009 -0.4187  0.5282  2.7232
   26SAPC    HY 3426   1.887   1.284  47.109 -1.0918 -0.5766 -0.4982
   26SAPC   O31 3427   1.862   1.253  46.907  0.2989  0.1069 -0.0534
   26SAPC   C31 3428   1.744   1.308  46.908  0.4813  0.2891 -0.2934
   26SAPC   O32 3429   1.675   1.349  46.998 -0.4210  0.0951  0.3411
   26SAPC   C32 3430   1.678   1.273  46.773  0.1583 -0.0668 -0.5404
   26SAPC   H2X 3431   1.602   1.349  46.746  1.2258  1.6229  0.9536
   26SAPC   H2Y 3432   1.616   1.182  46.787 -0.8557  0.2208 -2.8376
   26SAPC   C23 3433   2.240   1.196  46.596  0.0464 -0.0756 -0.0211
   26SAPC   H3R 3434   2.328   1.228  46.535  0.2336  0.2797  0.4183
   26SAPC   H3S 3435   2.209   1.300  46.620  4.0537  1.1890  0.3888
   26SAPC   C24 3436   2.145   1.114  46.515 -0.5082 -0.5090  0.2823
   26SAPC   H4R 3437   2.114   1.187  46.438  1.9513 -0.0803 -0.4050
   26SAPC   H4S 3438   2.051   1.104  46.573  0.2175 -0.2082  1.5612
   26SAPC   C25 3439   2.181   0.980  46.451 -1.0102 -0.2052  0.2056
   26SAPC   H5R 3440   2.283   0.972  46.409 -0.9219  4.5198 -0.9698
   26SAPC   C26 3441   2.106   0.872  46.439  0.4994 -0.5356  0.5313
   26SAPC   H6R 3442   2.152   0.778  46.405 -0.5140 -1.2429  1.0437
   26SAPC   C27 3443   1.957   0.873  46.467  0.3646 -0.2382 -1.7434
   26SAPC   H7R 3444   1.917   0.974  46.443  1.9390  0.6953 -0.5859
   26SAPC   H7S 3445   1.953   0.866  46.577  0.0602  3.1841 -1.4185
   26SAPC   C28 3446   1.875   0.765  46.403  0.1480 -0.6668  0.3714
   26SAPC   H8R 3447   1.850   0.683  46.472 -2.1942  1.0616  1.7354
   26SAPC   C29 3448   1.826   0.770  46.274 -0.0052 -0.4817  0.0506
   26SAPC   H9R 3449   1.757   0.693  46.239 -0.1700 -0.1190 -0.4392
   26SAPC  C210 3450   1.845   0.887  46.172 -1.1018  0.3794  0.1602
   26SAPC  H10R 3451   1.866   0.844  46.071 -0.1815  2.2792 -0.5217
   26SAPC  H10S 3452   1.925   0.950  46.216 -0.4696  0.3408 -0.8930
   26SAPC  C211 3453   1.726   0.976  46.159 -0.5258  0.4028 -0.2192
   26SAPC  H11R 3454   1.692   1.003  46.260  2.4222 -0.1458  1.0131
   26SAPC  C212 3455   1.650   1.019  46.057 -0.0830  0.0303 -0.8824
   26SAPC  H12R 3456   1.562   1.083  46.068 -1.2759 -1.7424  0.2649
   26SAPC  C213 3457   1.683   1.002  45.912 -0.1209 -0.1327 -0.2565
   26SAPC  H13R 3458   1.590   1.042  45.866  0.3419  1.7190  0.3340
   26SAPC  H13S 3459   1.681   0.892  45.902 -2.8962 -0.2261  0.6054
   26SAPC  C214 3460   1.803   1.068  45.856 -0.7968  0.1878 -0.0731
   26SAPC  H14R 3461   1.820   1.169  45.895  1.7964  0.4634 -1.6698
   26SAPC  C215 3462   1.888   1.026  45.760 -0.2278  0.7380  0.0069
   26SAPC  H15R 3463   1.972   1.080  45.714  1.3713 -1.6412 -0.0547
   26SAPC  C216 3464   1.876   0.896  45.681 -0.6455 -0.5202 -0.4337
   26SAPC  H16R 3465   1.901   0.918  45.576  1.5498  3.7311  0.7516
   26SAPC  H16S 3466   1.778   0.845  45.674  0.3054 -2.4176 -0.6000
   26SAPC  C217 3467   1.971   0.790  45.750  0.0518  0.9217 -0.0250
   26SAPC  H17R 3468   1.937   0.764  45.853  0.3832  0.8619  0.0715
   26SAPC  H17S 3469   2.078   0.818  45.762 -0.0467  0.3540  3.3504
   26SAPC  C218 3470   1.971   0.654  45.686 -0.0600 -1.1240 -0.7204
   26SAPC  H18R 3471   1.864   0.628  45.669 -1.0109  0.6558  1.9058
   26SAPC  H18S 3472   1.989   0.575  45.763 -0.2749  0.4697  1.0464
   26SAPC  C219 3473   2.073   0.647  45.574  0.9513 -0.1592 -0.1192
   26SAPC  H19R 3474   2.072   0.744  45.520  0.1532  2.7137  4.4501
   26SAPC  H19S 3475   2.046   0.566  45.503  2.4601 -1.7035  0.9940
   26SAPC  C220 3476   2.214   0.624  45.619  0.7826 -0.3336 -0.0031
   26SAPC  H20R 3477   2.289   0.631  45.537  1.5210  2.2097  0.7758
   26SAPC  H20S 3478   2.226   0.525  45.669 -1.4567 -0.8740 -0.4605
   26SAPC  H20T 3479   2.249   0.701  45.692 -0.6763 -1.7029  2.2687
   26SAPC   C33 3480   1.771   1.245  46.648 -0.2393 -0.2681 -0.3468
   26SAPC   H3X 3481   1.848   1.169  46.670 -0.0727 -0.2738 -0.9360
   26SAPC   H3Y 3482   1.821   1.339  46.616 -0.3301 -0.1455 -0.1299
   26SAPC   C34 3483   1.680   1.182  46.539  1.0922 -0.8691  1.3593
   26SAPC   H4X 3484   1.619   1.096  46.573  1.0748 -0.3832  2.5920
   26SAPC   H4Y 3485   1.754   1.143  46.465  1.6241 -0.6380  1.7607
   26SAPC   C35 3486   1.582   1.288  46.478  0.5322 -0.2559  0.1817
   26SAPC   H5X 3487   1.643   1.368  46.431  1.6245 -0.5337  1.0828
   26SAPC   H5Y 3488   1.527   1.326  46.567 -1.5556 -2.0080 -0.2781
   26SAPC   C36 3489   1.485   1.226  46.374  1.0683  0.0826 -0.0655
   26SAPC   H6X 3490   1.404   1.176  46.431 -1.4688  1.5738 -2.1200
   26SAPC   H6Y 3491   1.525   1.156  46.298 -0.1050 -1.4237  0.6438
   26SAPC   C37 3492   1.428   1.333  46.282  0.0484  0.1534 -0.0062
   26SAPC   H7X 3493   1.508   1.369  46.214 -0.0631  2.3287  0.9424
   26SAPC   H7Y 3494   1.392   1.426  46.331 -0.2252  2.3807 -3.9747
   26SAPC   C38 3495   1.316   1.254  46.203  0.0172 -0.5963 -0.1952
   26SAPC   H8X 3496   1.229   1.239  46.270  0.3510 -4.9093 -0.4445
   26SAPC   H8Y 3497   1.350   1.151  46.177  1.6217 -0.1808  0.1294
   26SAPC   C39 3498   1.282   1.331  46.075  0.4879 -0.1078 -0.4852
   26SAPC   H9X 3499   1.266   1.437  46.104  0.0460 -0.1546 -0.5576
   26SAPC   H9Y 3500   1.184   1.295  46.040  0.2577  0.6852 -0.6796
   26SAPC  C310 3501   1.393   1.332  45.971 -0.4273  0.3356  0.0136
   26SAPC  H10X 3502   1.417   1.223  45.961 -1.2744  0.3208 -2.7011
   26SAPC  H10Y 3503   1.484   1.378  46.015 -0.5827  3.0097 -2.2652
   26SAPC  C311 3504   1.361   1.400  45.837 -0.5803 -0.4609 -0.4887
   26SAPC  H11X 3505   1.359   1.509  45.861  1.7825 -0.9932  2.6468
   26SAPC  H11Y 3506   1.256   1.391  45.801 -0.0487  0.1253 -2.3093
   26SAPC  C312 3507   1.469   1.382  45.729  0.0851  0.1320 -0.4244
   26SAPC  H12X 3508   1.459   1.276  45.698  3.1559 -0.0546 -1.0509
   26SAPC  H12Y 3509   1.568   1.377  45.779  0.3353 -1.3822 -1.0135
   26SAPC  C313 3510   1.465   1.468  45.607  0.9833  0.0968  0.8462
   26SAPC  H13X 3511   1.412   1.565  45.622  0.0736 -0.2865  0.2390
   26SAPC  H13Y 3512   1.405   1.415  45.530  0.2957  2.3364 -0.2441
   26SAPC  C314 3513   1.599   1.500  45.551  0.7526  0.5689 -0.3399
   26SAPC  H14X 3514   1.661   1.554  45.625 -0.1187  2.1438 -0.7039
   26SAPC  H14Y 3515   1.589   1.557  45.456  1.4182  0.9281 -0.1999
   26SAPC  C315 3516   1.678   1.373  45.518 -0.1793  0.2497 -0.0575
   26SAPC  H15X 3517   1.654   1.293  45.592 -2.4698  0.1439 -0.8422
   26SAPC  H15Y 3518   1.786   1.395  45.526 -0.3415  0.7618  0.8541
   26SAPC  C316 3519   1.642   1.310  45.384 -0.2414  0.3340  0.2574
   26SAPC  H16X 3520   1.660   1.377  45.298 -0.7594  0.0647 -0.0635
   26SAPC  H16Y 3521   1.531   1.307  45.387 -0.2228 -0.7819  2.9601
   26SAPC  C317 3522   1.705   1.173  45.350 -0.6917 -0.5535  0.5090
   26SAPC  H17X 3523   1.706   1.170  45.239 -2.2130 -1.7212  0.4843
   26SAPC  H17Y 3524   1.658   1.085  45.398 -0.3068  0.7504  3.4830
   26SAPC  C318 3525   1.847   1.153  45.386 -0.3004  0.0848 -0.5793
   26SAPC  H18X 3526   1.900   1.249  45.365 -0.5206  0.2510 -0.3839
   26SAPC  H18Y 3527   1.894   1.070  45.330  0.8101 -1.3719  2.3152
   26SAPC  H18Z 3528   1.871   1.143  45.494 -1.1251  0.8383 -0.3066
   27SAPC     N 3529   0.694   0.075  51.966  1.6824  0.3764 -0.3642
   27SAPC   C12 3530   0.811   0.037  52.056 -0.1543 -0.3642 -0.4227
   27SAPC  H12A 3531   0.847   0.133  52.091 -2.0903  0.7792 -1.4010
   27SAPC  H12B 3532   0.885  -0.012  51.996  1.0856 -0.7683  1.3537
   27SAPC   C13 3533   0.590   0.143  52.041  0.5382  0.1051 -0.1964
   27SAPC  H13A 3534   0.496   0.145  51.988  0.0132  0.7336  0.7268
   27SAPC  H13B 3535   0.564   0.066  52.113  0.8224  0.4756  0.3070
   27SAPC  H13C 3536   0.600   0.243  52.079  0.8074  0.2860 -0.7369
   27SAPC   C14 3537   0.744   0.165  51.855 -0.9593  0.2812 -0.3175
   27SAPC  H14A 3538   0.814   0.239  51.889  0.2283 -2.0530  2.8245
   27SAPC  H14B 3539   0.801   0.101  51.788 -0.3773  2.0558 -1.5832
   27SAPC  H14C 3540   0.670   0.216  51.796 -1.0663  0.9149  0.3559
   27SAPC   C15 3541   0.633  -0.038  51.891  0.3880  0.5456  0.3707
   27SAPC  H15A 3542   0.696  -0.122  51.868  0.3961  1.1905 -2.2882
   27SAPC  H15B 3543   0.559  -0.082  51.956 -0.2512 -0.5324 -1.0267
   27SAPC  H15C 3544   0.586   0.004  51.803 -0.1172  0.5143  0.6230
   27SAPC   C11 3545   0.778  -0.057  52.178  0.0190 -0.7709  0.2759
   27SAPC  H11A 3546   0.700  -0.006  52.238  0.1832 -0.9283  0.6288
   27SAPC  H11B 3547   0.869  -0.059  52.243 -0.1933 -1.0778  0.5692
   27SAPC     P 3548   0.626  -0.276  52.208 -0.0684  0.0642  0.0238
   27SAPC   O13 3549   0.624  -0.400  52.126  0.5445  0.1471 -0.6234
   27SAPC   O14 3550   0.664  -0.282  52.354  0.9422  0.0235 -0.7633
   27SAPC   O12 3551   0.733  -0.186  52.126 -1.1063 -0.8283 -0.4387
   27SAPC   O11 3552   0.485  -0.195  52.187 -0.0008  0.1956 -0.5888
   27SAPC    C1 3553   0.380  -0.194  52.279  0.2798  0.6258 -0.5357
   27SAPC    HA 3554   0.423  -0.178  52.381 -0.4346 -2.8231  0.4405
   27SAPC    HB 3555   0.320  -0.101  52.264  0.0018  1.1424  2.7927
   27SAPC    C2 3556   0.302  -0.316  52.284 -0.0377 -0.6385  0.3782
   27SAPC    HS 3557   0.374  -0.396  52.308  1.8114  1.3621  1.8541
   27SAPC   O21 3558   0.243  -0.325  52.156  0.2819 -0.3878  0.3582
   27SAPC   C21 3559   0.201  -0.452  52.122 -0.9861  0.7266 -0.4423
   27SAPC   O22 3560   0.208  -0.550  52.197  0.5355  0.0742  0.2708
   27SAPC   C22 3561   0.121  -0.451  52.002  0.2004  0.0367  0.5138
   27SAPC   H2R 3562   0.149  -0.361  51.945 -0.2963 -0.4439 -0.5226
   27SAPC   H2S 3563   0.147  -0.541  51.942 -1.4387 -0.6104  0.6975
   27SAPC    C3 3564   0.202  -0.327  52.399  0.5923  0.2396 -0.0599
   27SAPC    HX 3565   0.261  -0.330  52.493  2.1785  4.2369 -0.6944
   27SAPC    HY 3566   0.146  -0.423  52.397 -2.2360  1.7586  0.9608
   27SAPC   O31 3567   0.097  -0.220  52.404 -0.3266 -0.2987  0.7612
   27SAPC   C31 3568   0.076  -0.167  52.524  0.2931  0.0352  0.5174
   27SAPC   O32 3569   0.147  -0.176  52.625 -0.5766  0.0786 -0.0962
   27SAPC   C32 3570  -0.043  -0.072  52.513 -0.4802 -0.1612  0.5651
   27SAPC   H2X 3571  -0.105  -0.124  52.436  0.0279 -0.4192  0.3293
   27SAPC   H2Y 3572  -0.009   0.025  52.473 -0.7698  0.1021  0.9537
   27SAPC   C23 3573  -0.037  -0.461  52.018 -0.2072 -0.7200  0.6157
   27SAPC   H3R 3574  -0.060  -0.569  52.014 -5.2964  0.1238  0.1829
   27SAPC   H3S 3575  -0.090  -0.419  51.929 -0.4934  1.8846  1.9091
   27SAPC   C24 3576  -0.092  -0.387  52.146 -0.9525 -0.1341  0.5214
   27SAPC   H4R 3577  -0.040  -0.426  52.236  0.1761  0.1897  0.0259
   27SAPC   H4S 3578  -0.195  -0.427  52.161 -1.8253  2.3556  1.7251
   27SAPC   C25 3579  -0.091  -0.238  52.127  0.4278 -0.5264  0.7604
   27SAPC   H5R 3580  -0.002  -0.182  52.160  0.2751  0.3754 -0.3003
   27SAPC   C26 3581  -0.192  -0.167  52.070  0.1041  0.3010  0.0128
   27SAPC   H6R 3582  -0.162  -0.061  52.060  0.4043  0.2843  0.6574
   27SAPC   C27 3583  -0.316  -0.223  52.007  0.0524 -0.4752  0.3482
   27SAPC   H7R 3584  -0.341  -0.330  52.025 -0.3017 -0.3316  0.7190
   27SAPC   H7S 3585  -0.285  -0.226  51.900  0.4759 -0.2494  0.4595
   27SAPC   C28 3586  -0.441  -0.135  52.034 -0.2567  0.2062 -0.3745
   27SAPC   H8R 3587  -0.458  -0.136  52.143 -1.2880  2.3800 -0.4674
   27SAPC   C29 3588  -0.514  -0.058  51.949  0.9742  1.1835  0.0172
   27SAPC   H9R 3589  -0.597   0.003  51.987  1.7779  1.0088  2.1833
   27SAPC  C210 3590  -0.481  -0.033  51.805  0.4569 -0.2700 -0.5059
   27SAPC  H10R 3591  -0.376   0.001  51.791  0.7154 -2.0665 -4.0730
   27SAPC  H10S 3592  -0.540   0.057  51.778  2.9538  0.7840 -2.8844
   27SAPC  C211 3593  -0.522  -0.134  51.702  0.0960  0.5390  0.1883
   27SAPC  H11R 3594  -0.511  -0.235  51.743  2.1541  0.7480  0.2977
   27SAPC  C212 3595  -0.549  -0.114  51.570 -0.4534  0.1198  1.0702
   27SAPC  H12R 3596  -0.569  -0.201  51.506 -0.1111  0.5747  0.3272
   27SAPC  C213 3597  -0.550   0.021  51.497 -0.3943 -0.1956 -0.1489
   27SAPC  H13R 3598  -0.463   0.043  51.431  0.0043 -0.6697  0.2120
   27SAPC  H13S 3599  -0.557   0.095  51.580 -1.7470 -0.8149  0.3194
   27SAPC  C214 3600  -0.685   0.029  51.433 -1.2334  0.8354 -0.1066
   27SAPC  H14R 3601  -0.745   0.088  51.505 -0.2430 -0.1674  1.6230
   27SAPC  C215 3602  -0.735   0.005  51.313  0.0902 -0.0238  0.3056
   27SAPC  H15R 3603  -0.843   0.010  51.290  0.2038  0.4568 -0.1404
   27SAPC  C216 3604  -0.648  -0.028  51.197 -0.6569 -0.2860 -0.6978
   27SAPC  H16R 3605  -0.691  -0.119  51.149  0.3994  0.2294 -2.6964
   27SAPC  H16S 3606  -0.543  -0.040  51.230 -0.6957 -2.8347 -1.2970
   27SAPC  C217 3607  -0.648   0.078  51.093 -0.2530  0.0035 -0.0945
   27SAPC  H17R 3608  -0.632   0.181  51.131 -2.3948  0.2583  0.2299
   27SAPC  H17S 3609  -0.754   0.080  51.060 -0.7869  2.5817  1.5574
   27SAPC  C218 3610  -0.540   0.059  50.980  0.0478  0.0991 -0.5655
   27SAPC  H18R 3611  -0.574  -0.025  50.917 -3.5563 -0.7343  2.1872
   27SAPC  H18S 3612  -0.448   0.037  51.038 -1.7556 -4.5164  1.0177
   27SAPC  C219 3613  -0.514   0.183  50.886 -0.8026  0.3875 -0.7971
   27SAPC  H19R 3614  -0.613   0.198  50.837 -2.2340 -0.9670  1.4691
   27SAPC  H19S 3615  -0.432   0.159  50.816  2.2016  2.6189  1.6751
   27SAPC  C220 3616  -0.462   0.298  50.975 -0.0027  0.2431  0.3375
   27SAPC  H20R 3617  -0.545   0.332  51.040 -0.2772 -3.3465  2.0928
   27SAPC  H20S 3618  -0.425   0.386  50.919  2.5685 -0.2729  1.0932
   27SAPC  H20T 3619  -0.380   0.267  51.043 -0.8337 -0.3794  1.0839
   27SAPC   C33 3620  -0.118  -0.050  52.647 -0.0696 -0.1068  0.2704
   27SAPC   H3X 3621  -0.068   0.032  52.702  0.0049  2.6460 -3.4592
   27SAPC   H3Y 3622  -0.101  -0.140  52.710 -0.5028  0.2652  0.9327
   27SAPC   C34 3623  -0.272  -0.020  52.627  0.0466  0.3653 -0.0176
   27SAPC   H4X 3624  -0.308  -0.105  52.565  3.2741 -2.2651  1.3696
   27SAPC   H4Y 3625  -0.293   0.075  52.574  3.2601  0.3695 -1.5083
   27SAPC   C35 3626  -0.351  -0.024  52.756 -0.5385  0.1806  0.4926
   27SAPC   H5X 3627  -0.344  -0.124  52.803 -0.4232 -0.1626 -0.2414
   27SAPC   H5Y 3628  -0.460  -0.015  52.741 -0.5305 -0.2451  0.1639
   27SAPC   C36 3629  -0.288   0.077  52.860 -0.4222  0.2754 -0.2346
   27SAPC   H6X 3630  -0.275   0.183  52.831  0.2682  0.1664 -0.3376
   27SAPC   H6Y 3631  -0.196   0.028  52.900 -0.4265 -0.2329 -0.8418
   27SAPC   C37 3632  -0.389   0.101  52.983  0.1818 -0.6545 -0.3918
   27SAPC   H7X 3633  -0.331   0.101  53.078 -0.2359  2.3629 -0.0388
   27SAPC   H7Y 3634  -0.458   0.014  52.980  0.6964 -1.0855  0.1189
   27SAPC   C38 3635  -0.475   0.215  52.968 -0.0220 -0.1023  0.7878
   27SAPC   H8X 3636  -0.575   0.217  53.018 -0.6132  1.2471 -0.4003
   27SAPC   H8Y 3637  -0.497   0.222  52.860  2.9645 -4.2626 -0.3534
   27SAPC   C39 3638  -0.409   0.352  53.012 -0.0635 -0.3322 -0.3772
   27SAPC   H9X 3639  -0.432   0.429  52.936  0.1551  0.9690  0.8341
   27SAPC   H9Y 3640  -0.300   0.350  52.995  0.1336  1.1954  0.5268
   27SAPC  C310 3641  -0.450   0.403  53.152  0.3849  1.1443 -0.5404
   27SAPC  H10X 3642  -0.560   0.389  53.163  0.4876 -0.1504 -0.9379
   27SAPC  H10Y 3643  -0.412   0.503  53.181  2.1200  0.6123 -0.8616
   27SAPC  C311 3644  -0.399   0.310  53.262  0.2871  0.4337  0.2688
   27SAPC  H11X 3645  -0.293   0.279  53.255 -0.6473 -2.7519 -1.6217
   27SAPC  H11Y 3646  -0.458   0.217  53.250 -0.7788  1.1714 -0.3567
   27SAPC  C312 3647  -0.426   0.379  53.401  1.4656 -1.0914  0.5740
   27SAPC  H12X 3648  -0.536   0.378  53.410  1.5221 -0.7907  1.4750
   27SAPC  H12Y 3649  -0.377   0.478  53.393 -0.7687 -0.0438 -0.9909
   27SAPC  C313 3650  -0.378   0.330  53.532  0.3507  0.6560 -0.3014
   27SAPC  H13X 3651  -0.373   0.409  53.610 -2.2260 -0.4140  1.0566
   27SAPC  H13Y 3652  -0.278   0.282  53.529  0.9225  1.2820  3.4538
   27SAPC  C314 3653  -0.455   0.209  53.594 -0.0771 -0.1887  0.1640
   27SAPC  H14X 3654  -0.482   0.132  53.518 -0.3286 -0.9431  0.9833
   27SAPC  H14Y 3655  -0.545   0.266  53.625 -1.2849 -1.2949 -1.1383
   27SAPC  C315 3656  -0.374   0.155  53.716  0.6633 -0.3472  0.1141
   27SAPC  H15X 3657  -0.380   0.242  53.785 -2.8429  0.1995 -0.6779
   27SAPC  H15Y 3658  -0.267   0.134  53.693  1.0091  1.1824  0.2223
   27SAPC  C316 3659  -0.456   0.045  53.782  0.2901 -0.4517  0.1226
   27SAPC  H16X 3660  -0.486  -0.039  53.715 -1.0284  0.8679 -0.9988
   27SAPC  H16Y 3661  -0.556   0.087  53.806  1.3045  2.8479 -0.9734
   27SAPC  C317 3662  -0.397  -0.019  53.907  0.1409 -0.3266  1.1072
   27SAPC  H17X 3663  -0.386   0.049  53.993  2.1452  1.4995 -0.4706
   27SAPC  H17Y 3664  -0.292  -0.048  53.882 -0.5354 -0.5479 -1.8560
   27SAPC  C318 3665  -0.477  -0.139  53.954  0.1365 -0.3252  0.2883
   27SAPC  H18X 3666  -0.481  -0.205  53.865  1.5848 -1.6670  1.1841
   27SAPC  H18Y 3667  -0.580  -0.107  53.982  0.3418  3.0883 -2.2143
   27SAPC  H18Z 3668  -0.430  -0.203  54.031 -3.0063 -2.7255  0.3954
   28SAPC     N 3669   1.055   1.386  52.059  0.2151  0.4057 -1.0455
   28SAPC   C12 3670   1.111   1.422  51.919 -0.1476  0.4661 -0.4924
   28SAPC  H12A 3671   1.105   1.329  51.864 -1.1554  0.2253 -0.0091
   28SAPC  H12B 3672   1.216   1.447  51.924  0.0321 -0.4015  0.3176
   28SAPC   C13 3673   1.112   1.257  52.104  0.4759  0.3919 -0.7635
   28SAPC  H13A 3674   1.063   1.181  52.045  0.2445 -0.3520  0.3523
   28SAPC  H13B 3675   1.219   1.255  52.089  0.2369  0.3541 -2.6273
   28SAPC  H13C 3676   1.086   1.236  52.207  0.4104  0.9137 -0.6692
   28SAPC   C14 3677   1.057   1.490  52.167 -0.8183 -0.1334 -0.6499
   28SAPC  H14A 3678   1.008   1.467  52.260  0.1539 -2.3747 -0.6253
   28SAPC  H14B 3679   1.163   1.503  52.185 -0.5249 -0.1382 -2.2146
   28SAPC  H14C 3680   1.012   1.584  52.139 -0.6704  0.1087 -0.0888
   28SAPC   C15 3681   0.904   1.375  52.032 -0.2868  0.6093  0.3491
   28SAPC  H15A 3682   0.846   1.353  52.120 -0.6477  2.1552  0.5206
   28SAPC  H15B 3683   0.866   1.471  52.002  0.8151  0.2651 -2.4817
   28SAPC  H15C 3684   0.887   1.306  51.951 -0.3563 -0.5829  1.3455
   28SAPC   C11 3685   1.027   1.515  51.833  0.1749  0.1332 -0.7254
   28SAPC  H11A 3686   1.102   1.552  51.760 -0.7782  2.3415 -0.6754
   28SAPC  H11B 3687   1.009   1.610  51.888  0.1205 -0.1607 -0.2257
   28SAPC     P 3688   0.779   1.521  51.735 -0.4317 -0.1309  0.0349
   28SAPC   O13 3689   0.681   1.476  51.829  0.5259 -0.5751  0.6494
   28SAPC   O14 3690   0.806   1.665  51.732 -0.9378 -0.4865 -0.3644
   28SAPC   O12 3691   0.919   1.455  51.768 -0.0341  0.0938  0.2398
   28SAPC   O11 3692   0.749   1.462  51.590 -0.3710  0.3298  0.3199
   28SAPC    C1 3693   0.816   1.511  51.477  1.0720 -0.5387  0.1969
   28SAPC    HA 3694   0.906   1.569  51.505  0.6604  0.5913 -0.7633
   28SAPC    HB 3695   0.853   1.427  51.415  1.0778 -0.5126  0.1627
   28SAPC    C2 3696   0.720   1.614  51.400 -1.1119 -0.2097  0.4052
   28SAPC    HS 3697   0.693   1.684  51.482  0.4167 -1.7463  2.3258
   28SAPC   O21 3698   0.595   1.560  51.351  0.7896  0.1986 -0.7240
   28SAPC   C21 3699   0.611   1.452  51.278  0.0721 -0.1616  0.4625
   28SAPC   O22 3700   0.715   1.410  51.231  0.2054 -0.0909 -0.1759
   28SAPC   C22 3701   0.470   1.390  51.263 -0.2741  0.1478 -0.1034
   28SAPC   H2R 3702   0.477   1.308  51.338  1.7041 -0.5524 -0.9692
   28SAPC   H2S 3703   0.391   1.464  51.286  1.1063  3.2862 -4.1893
   28SAPC    C3 3704   0.800   1.687  51.282 -1.6037 -0.0644  0.2508
   28SAPC    HX 3705   0.869   1.613  51.235 -1.7758  0.9521 -1.6871
   28SAPC    HY 3706   0.871   1.758  51.330  0.2656 -0.0551 -2.3088
   28SAPC   O31 3707   0.716   1.760  51.194 -0.4361 -0.3014  0.3118
   28SAPC   C31 3708   0.712   1.895  51.202  0.0469  0.5080  0.2991
   28SAPC   O32 3709   0.786   1.960  51.279  0.5811 -0.8648 -0.3791
   28SAPC   C32 3710   0.626   1.945  51.091  0.4111 -0.5748  0.6677
   28SAPC   H2X 3711   0.596   2.047  51.123 -2.9810 -0.3612 -2.6347
   28SAPC   H2Y 3712   0.527   1.895  51.095  0.6963 -1.8310 -3.3359
   28SAPC   C23 3713   0.444   1.338  51.123 -0.5561  0.5147 -0.8185
   28SAPC   H3R 3714   0.372   1.254  51.123 -0.2174  0.2236 -1.2984
   28SAPC   H3S 3715   0.533   1.290  51.079 -0.6748 -0.6785  0.1941
   28SAPC   C24 3716   0.383   1.454  51.033  0.4709  0.8604 -0.1352
   28SAPC   H4R 3717   0.294   1.491  51.087  1.5268  2.1818  0.7644
   28SAPC   H4S 3718   0.461   1.533  51.039 -0.6640  2.1463 -1.4279
   28SAPC   C25 3719   0.340   1.432  50.890 -0.2419  0.6993  0.0490
   28SAPC   H5R 3720   0.352   1.329  50.854 -1.6876  0.0600  1.2594
   28SAPC   C26 3721   0.299   1.531  50.804  0.0689  1.3809  0.7782
   28SAPC   H6R 3722   0.281   1.497  50.701  2.0110 -0.5146  0.9936
   28SAPC   C27 3723   0.295   1.677  50.850 -0.5800  1.1359  0.0079
   28SAPC   H7R 3724   0.306   1.748  50.765 -2.1198  2.1799  0.6375
   28SAPC   H7S 3725   0.373   1.705  50.924 -1.5204  1.2236  0.9839
   28SAPC   C28 3726   0.160   1.705  50.917  0.4248 -0.4317 -0.1699
   28SAPC   H8R 3727   0.078   1.673  50.850  1.7635 -0.5477 -1.8073
   28SAPC   C29 3728   0.117   1.746  51.038 -0.4757  0.2771 -1.0072
   28SAPC   H9R 3729   0.017   1.793  51.045 -0.1122  0.8482  1.7405
   28SAPC  C210 3730   0.218   1.787  51.145  1.3806  0.4969  0.0711
   28SAPC  H10R 3731   0.274   1.868  51.095 -0.7053  1.8846 -0.1466
   28SAPC  H10S 3732   0.285   1.698  51.150 -1.4551 -1.7479  2.5994
   28SAPC  C211 3733   0.169   1.826  51.279  0.3708 -0.7438 -0.7192
   28SAPC  H11R 3734   0.140   1.932  51.291  0.8341 -0.7784  0.9303
   28SAPC  C212 3735   0.157   1.739  51.387  0.1358  0.6338 -0.1346
   28SAPC  H12R 3736   0.111   1.792  51.472  0.2985  1.1466 -0.3613
   28SAPC  C213 3737   0.186   1.596  51.402 -0.1075 -0.1430  0.1920
   28SAPC  H13R 3738   0.267   1.556  51.467 -3.4180 -0.7056  4.3491
   28SAPC  H13S 3739   0.207   1.564  51.298 -1.2496  1.1668 -0.4766
   28SAPC  C214 3740   0.073   1.528  51.471  0.8949 -0.5848 -0.2378
   28SAPC  H14R 3741  -0.016   1.590  51.490  0.7410 -0.7386 -0.4489
   28SAPC  C215 3742   0.057   1.399  51.500  0.1709 -0.1456  1.2417
   28SAPC  H15R 3743  -0.034   1.376  51.557 -1.6430  3.3915  0.0414
   28SAPC  C216 3744   0.145   1.286  51.467  0.1361  0.1306  1.1423
   28SAPC  H16R 3745   0.202   1.256  51.558 -1.1425 -3.3578  0.9075
   28SAPC  H16S 3746   0.224   1.324  51.399 -0.1473  0.0033  0.7457
   28SAPC  C217 3747   0.082   1.166  51.397 -0.6749  0.2366 -0.5448
   28SAPC  H17R 3748  -0.020   1.145  51.436 -0.8250  1.8248 -0.0580
   28SAPC  H17S 3749   0.154   1.082  51.404 -0.4174  0.5861  1.4064
   28SAPC  C218 3750   0.063   1.188  51.254  0.7136 -0.2350  0.3044
   28SAPC  H18R 3751   0.156   1.210  51.198  0.4678 -0.8094 -0.3460
   28SAPC  H18S 3752  -0.002   1.278  51.243  0.3622 -0.4144  0.8754
   28SAPC  C219 3753  -0.006   1.063  51.198 -0.9148  0.3501  0.6597
   28SAPC  H19R 3754  -0.081   1.015  51.264 -0.0345 -0.9935  0.7158
   28SAPC  H19S 3755   0.069   0.982  51.197 -0.6093  0.5949  2.3017
   28SAPC  C220 3756  -0.065   1.084  51.057  1.1422 -0.1807 -0.2008
   28SAPC  H20R 3757   0.016   1.091  50.981  1.7289 -2.7500  0.0894
   28SAPC  H20S 3758  -0.135   1.170  51.062 -0.9824 -1.8632  0.5665
   28SAPC  H20T 3759  -0.118   0.989  51.040  0.2722 -0.2534  2.3976
   28SAPC   C33 3760   0.676   1.934  50.950 -0.7198 -0.1114  0.4385
   28SAPC   H3X 3761   0.609   1.989  50.881  1.1287  0.2915 -1.1384
   28SAPC   H3Y 3762   0.667   1.833  50.904 -0.8940  0.9244 -1.9371
   28SAPC   C34 3763   0.817   1.988  50.918  1.4689 -0.1608  0.0867
   28SAPC   H4X 3764   0.890   1.953  50.994 -0.2174  0.7574  2.2314
   28SAPC   H4Y 3765   0.809   2.098  50.924  0.4832 -0.2304  0.2789
   28SAPC   C35 3766   0.853   1.946  50.773 -0.0874 -0.4254  0.4612
   28SAPC   H5X 3767   0.762   1.927  50.712  0.3075  1.5114 -0.8046
   28SAPC   H5Y 3768   0.900   1.845  50.767 -0.3996 -0.4847 -1.8396
   28SAPC   C36 3769   0.946   2.050  50.699  0.0388 -0.2553  0.1209
   28SAPC   H6X 3770   1.038   2.085  50.752  0.7454  1.1990 -1.9314
   28SAPC   H6Y 3771   0.884   2.138  50.673  0.8881  0.7776  1.4458
   28SAPC   C37 3772   1.002   1.986  50.565  0.4172  0.1294 -0.2214
   28SAPC   H7X 3773   0.925   1.928  50.510 -0.2346  1.9973 -1.3910
   28SAPC   H7Y 3774   1.063   1.904  50.610 -0.5791 -0.2279  0.5180
   28SAPC   C38 3775   1.058   2.090  50.469  0.3863  0.4779  0.5274
   28SAPC   H8X 3776   1.138   2.143  50.525 -0.7833  2.0104  0.8155
   28SAPC   H8Y 3777   0.969   2.153  50.450 -1.4169 -2.3324 -0.9985
   28SAPC   C39 3778   1.124   2.040  50.341  0.7417 -0.2633  0.2508
   28SAPC   H9X 3779   1.058   1.990  50.267 -0.1530  1.3003 -0.0339
   28SAPC   H9Y 3780   1.196   1.968  50.387  1.7399  0.9038  0.5756
   28SAPC  C310 3781   1.194   2.151  50.263 -0.5839  0.1177 -0.1984
   28SAPC  H10X 3782   1.303   2.160  50.279 -0.1787 -2.8130 -0.6997
   28SAPC  H10Y 3783   1.150   2.246  50.299 -5.8903 -2.0823 -0.0008
   28SAPC  C311 3784   1.176   2.133  50.110  0.2279 -0.4812 -0.0124
   28SAPC  H11X 3785   1.185   2.029  50.073 -0.9915  0.1046 -2.1391
   28SAPC  H11Y 3786   1.241   2.198  50.048  0.6846 -2.2781 -1.4984
   28SAPC  C312 3787   1.031   2.179  50.064 -0.6044 -0.1513 -0.3027
   28SAPC  H12X 3788   1.011   2.285  50.090 -0.9912 -0.4212  0.5381
   28SAPC  H12Y 3789   0.962   2.122  50.130  2.4524 -1.1277  2.3592
   28SAPC  C313 3790   1.031   2.156  49.914  0.5841 -0.2916 -0.4052
   28SAPC  H13X 3791   0.938   2.096  49.907  1.4123 -1.6140 -0.5092
   28SAPC  H13Y 3792   1.109   2.090  49.871 -0.1309 -2.3546  1.2994
   28SAPC  C314 3793   1.035   2.291  49.838 -0.4422  0.3925  0.7918
   28SAPC  H14X 3794   1.130   2.349  49.835 -0.2464  0.0500  0.1561
   28SAPC  H14Y 3795   0.981   2.364  49.902 -0.1123  2.1527 -0.8621
   28SAPC  C315 3796   0.988   2.275  49.691  0.5158  0.8353  0.0225
   28SAPC  H15X 3797   0.977   2.380  49.655 -0.1173  0.4260 -1.0235
   28SAPC  H15Y 3798   0.889   2.224  49.688  1.6872 -1.9909  3.0757
   28SAPC  C316 3799   1.089   2.193  49.601  0.4811 -0.4858  0.5570
   28SAPC  H16X 3800   1.036   2.141  49.519  0.4408  2.7731 -1.6998
   28SAPC  H16Y 3801   1.148   2.113  49.651 -0.8176 -1.3517  0.7329
   28SAPC  C317 3802   1.191   2.280  49.524 -0.8190  0.0979 -0.5378
   28SAPC  H17X 3803   1.245   2.194  49.479  0.3908  0.1850  0.6934
   28SAPC  H17Y 3804   1.263   2.330  49.593 -0.7454 -0.6326 -0.0808
   28SAPC  C318 3805   1.131   2.359  49.415 -0.3993  0.6164 -0.3448
   28SAPC  H18X 3806   1.054   2.312  49.350 -0.9027 -0.8057  1.1973
   28SAPC  H18Y 3807   1.211   2.406  49.354 -1.1870  1.2261 -0.9246
   28SAPC  H18Z 3808   1.094   2.458  49.449  0.1756  0.0488  2.1583
   29SAPC     N 3809   0.061   0.221  42.557 -0.1302 -0.1000 -0.4204
   29SAPC   C12 3810   0.204   0.281  42.526  0.7088 -0.1889  0.0068
   29SAPC  H12A 3811   0.192   0.380  42.485  1.0913 -0.3267 -0.4447
   29SAPC  H12B 3812   0.246   0.215  42.451 -0.4784 -0.2632 -0.6187
   29SAPC   C13 3813   0.081   0.085  42.620 -0.7224 -0.4325  0.2839
   29SAPC  H13A 3814   0.127   0.023  42.544  1.6756  1.2972  0.2182
   29SAPC  H13B 3815   0.149   0.089  42.704 -0.3766 -1.5027  0.0804
   29SAPC  H13C 3816  -0.011   0.039  42.654 -0.6689 -1.4010 -0.8123
   29SAPC   C14 3817  -0.022   0.306  42.640 -0.0835 -0.3886 -0.5465
   29SAPC  H14A 3818  -0.123   0.268  42.640 -0.6329  1.0155 -1.3696
   29SAPC  H14B 3819   0.013   0.312  42.742 -1.7105 -0.7447  0.0526
   29SAPC  H14C 3820  -0.029   0.405  42.597  1.8288  0.3766  0.7154
   29SAPC   C15 3821  -0.006   0.192  42.418 -0.1425 -0.0381 -1.4622
   29SAPC  H15A 3822   0.041   0.112  42.364  1.7216  1.5701 -2.3570
   29SAPC  H15B 3823  -0.109   0.166  42.434  0.0315 -0.7612 -1.4867
   29SAPC  H15C 3824  -0.002   0.275  42.349 -3.5682  0.0941 -1.6718
   29SAPC   C11 3825   0.310   0.283  42.647  0.5779 -0.0254 -0.7034
   29SAPC  H11A 3826   0.253   0.331  42.729 -1.7352 -1.4687 -1.3634
   29SAPC  H11B 3827   0.397   0.346  42.617  0.6214  0.3889  0.2452
   29SAPC     P 3828   0.406   0.111  42.813  0.2478  0.1140  0.0090
   29SAPC   O13 3829   0.290   0.082  42.895 -0.2319 -0.1351 -0.1313
   29SAPC   O14 3830   0.495  -0.007  42.794 -0.2182  0.3872 -0.0171
   29SAPC   O12 3831   0.349   0.147  42.675  0.2155  0.2228  0.5069
   29SAPC   O11 3832   0.483   0.243  42.855 -0.1904  0.2062  0.5770
   29SAPC    C1 3833   0.615   0.270  42.791  0.1366  0.1247 -0.4709
   29SAPC    HA 3834   0.626   0.220  42.693 -1.7091  0.1184 -0.7050
   29SAPC    HB 3835   0.631   0.378  42.768  2.3930 -0.1116 -0.2542
   29SAPC    C2 3836   0.730   0.232  42.895  0.6640 -0.0100  0.0256
   29SAPC    HS 3837   0.823   0.277  42.853  0.6864 -1.7522 -2.0052
   29SAPC   O21 3838   0.752   0.090  42.919  0.1486  0.7949  0.6152
   29SAPC   C21 3839   0.793   0.028  42.809  0.2581 -0.3131  0.3946
   29SAPC   O22 3840   0.828   0.083  42.702  0.2168 -0.0935 -0.1238
   29SAPC   C22 3841   0.780  -0.115  42.838  0.9132  0.8175  0.8293
   29SAPC   H2R 3842   0.788  -0.137  42.947  0.2297 -2.1784  0.3508
   29SAPC   H2S 3843   0.679  -0.150  42.810  0.9646 -1.5213  3.1713
   29SAPC    C3 3844   0.698   0.298  43.024 -0.4127 -0.2860 -0.3066
   29SAPC    HX 3845   0.607   0.255  43.070  0.8568 -2.5429  0.2402
   29SAPC    HY 3846   0.670   0.404  43.006 -2.4416 -0.7701 -0.2738
   29SAPC   O31 3847   0.810   0.302  43.108 -0.2835  0.5256 -0.0705
   29SAPC   C31 3848   0.811   0.195  43.190  0.1363 -0.7913  0.5724
   29SAPC   O32 3849   0.721   0.126  43.213  0.4735 -0.0741 -0.3528
   29SAPC   C32 3850   0.948   0.175  43.245 -0.4423  0.4856 -0.2237
   29SAPC   H2X 3851   0.981   0.261  43.307  1.2484  2.0385 -3.0469
   29SAPC   H2Y 3852   1.014   0.173  43.156 -0.3900  1.1987 -0.2094
   29SAPC   C23 3853   0.892  -0.199  42.761 -0.0479 -0.2473 -0.1939
   29SAPC   H3R 3854   0.987  -0.141  42.772 -0.3589  0.6249 -1.7887
   29SAPC   H3S 3855   0.861  -0.196  42.655  0.8015 -0.9763 -0.4780
   29SAPC   C24 3856   0.910  -0.352  42.806 -0.5679 -0.2705 -0.4150
   29SAPC   H4R 3857   0.971  -0.405  42.730 -1.3632  0.6263 -1.7358
   29SAPC   H4S 3858   0.815  -0.410  42.802  0.9221 -2.8580 -0.1246
   29SAPC   C25 3859   0.972  -0.370  42.948  0.1903 -0.1200 -0.1951
   29SAPC   H5R 3860   1.018  -0.278  42.988 -0.0009 -0.0736 -0.0779
   29SAPC   C26 3861   0.962  -0.471  43.037 -0.6349  0.0812 -0.3354
   29SAPC   H6R 3862   1.017  -0.466  43.132 -1.6523  0.7738  0.2430
   29SAPC   C27 3863   0.908  -0.604  43.009  0.3914  0.5012 -0.7819
   29SAPC   H7R 3864   0.824  -0.583  42.940  0.5234  1.8808 -0.5534
   29SAPC   H7S 3865   0.854  -0.635  43.101 -0.6481 -0.7353 -1.7717
   29SAPC   C28 3866   0.996  -0.714  42.956  0.4318  0.3291  0.4645
   29SAPC   H8R 3867   1.004  -0.722  42.847  1.7640 -1.8355  0.6691
   29SAPC   C29 3868   1.032  -0.819  43.031 -0.6981  0.0749  0.5059
   29SAPC   H9R 3869   1.104  -0.887  42.982  0.4218  0.5522  1.4696
   29SAPC  C210 3870   1.013  -0.848  43.177  0.3849 -0.4873 -0.1481
   29SAPC  H10R 3871   1.103  -0.906  43.205  1.8002  1.2370 -0.8912
   29SAPC  H10S 3872   0.931  -0.921  43.186  0.4362 -0.4580  0.5558
   29SAPC  C211 3873   1.009  -0.737  43.280 -0.2924 -0.5034 -0.4084
   29SAPC  H11R 3874   1.100  -0.675  43.270  0.2256 -0.9250  1.2625
   29SAPC  C212 3875   0.933  -0.716  43.389  0.1391  0.4707  0.2227
   29SAPC  H12R 3876   0.942  -0.625  43.450 -0.4867  0.5064  0.2656
   29SAPC  C213 3877   0.813  -0.804  43.414  0.3217 -0.0019 -0.1074
   29SAPC  H13R 3878   0.823  -0.848  43.516 -1.1191 -2.0900 -0.8260
   29SAPC  H13S 3879   0.800  -0.892  43.348  0.5292  0.2224 -0.4569
   29SAPC  C214 3880   0.682  -0.722  43.411  0.1700  0.3810 -0.0307
   29SAPC  H14R 3881   0.672  -0.663  43.319  0.2820 -0.0076 -0.2939
   29SAPC  C215 3882   0.574  -0.727  43.492 -0.1620  0.4692 -0.6730
   29SAPC  H15R 3883   0.483  -0.673  43.461  1.5795  3.0775 -1.5851
   29SAPC  C216 3884   0.569  -0.807  43.623  0.2374 -0.2950 -0.4136
   29SAPC  H16R 3885   0.507  -0.751  43.696  0.3754  1.5721 -1.6749
   29SAPC  H16S 3886   0.668  -0.820  43.670  0.4729  0.5884 -0.6534
   29SAPC  C217 3887   0.507  -0.948  43.601 -0.2228 -0.3077  0.6319
   29SAPC  H17R 3888   0.508  -1.011  43.693 -3.0181 -1.1338  0.1845
   29SAPC  H17S 3889   0.569  -1.009  43.532 -0.1137  0.2489  0.2337
   29SAPC  C218 3890   0.363  -0.934  43.540  0.0512 -0.3930  0.0920
   29SAPC  H18R 3891   0.367  -0.879  43.444  0.8320  1.2775  1.0309
   29SAPC  H18S 3892   0.294  -0.877  43.607 -1.2716 -0.4698 -1.1589
   29SAPC  C219 3893   0.305  -1.074  43.514 -0.2947 -0.0133  0.0100
   29SAPC  H19R 3894   0.333  -1.131  43.605 -0.3301 -0.9025 -0.5231
   29SAPC  H19S 3895   0.356  -1.110  43.422  1.0306  2.3799 -0.2821
   29SAPC  C220 3896   0.155  -1.087  43.515  0.3618 -0.7073  0.5826
   29SAPC  H20R 3897   0.133  -1.175  43.452 -1.7895  0.5716 -0.5779
   29SAPC  H20S 3898   0.112  -0.995  43.469 -1.8560 -2.0422 -0.1725
   29SAPC  H20T 3899   0.116  -1.108  43.617 -0.9153 -3.5649 -0.3938
   29SAPC   C33 3900   0.963   0.061  43.347 -0.2340  0.4260 -0.5055
   29SAPC   H3X 3901   0.963  -0.036  43.292 -2.6333 -1.5732  2.6415
   29SAPC   H3Y 3902   0.873   0.048  43.412 -1.7318 -0.2673 -2.5983
   29SAPC   C34 3903   1.090   0.078  43.442 -0.7720 -0.6776 -0.0374
   29SAPC   H4X 3904   1.077   0.177  43.491  1.2233 -0.1718 -0.4099
   29SAPC   H4Y 3905   1.169   0.099  43.367 -0.4715  2.1090  0.9297
   29SAPC   C35 3906   1.116  -0.024  43.552  0.4131  0.6093  0.1386
   29SAPC   H5X 3907   1.102  -0.122  43.500  2.0320  0.8159 -0.7498
   29SAPC   H5Y 3908   1.053  -0.010  43.642 -0.1107  0.5071 -0.2048
   29SAPC   C36 3909   1.261  -0.024  43.606 -0.7658  0.1983 -0.1131
   29SAPC   H6X 3910   1.315   0.073  43.595  1.2713 -1.0738 -2.3113
   29SAPC   H6Y 3911   1.317  -0.100  43.548  0.9890  0.8110  0.7089
   29SAPC   C37 3912   1.281  -0.069  43.754  0.6874  0.0553 -0.6284
   29SAPC   H7X 3913   1.388  -0.063  43.782  0.4033  0.9011  0.3225
   29SAPC   H7Y 3914   1.235  -0.170  43.759  0.4407  0.1759 -0.4208
   29SAPC   C38 3915   1.209   0.017  43.861 -0.9858  0.1571  0.5904
   29SAPC   H8X 3916   1.100   0.034  43.845 -0.6366  2.1522  0.0194
   29SAPC   H8Y 3917   1.248   0.120  43.843 -0.2575 -0.3045 -0.6216
   29SAPC   C39 3918   1.240  -0.025  44.001 -0.3979 -0.0226 -0.8349
   29SAPC   H9X 3919   1.348  -0.005  44.021 -0.4181  0.4088 -1.1296
   29SAPC   H9Y 3920   1.219  -0.134  44.001 -1.5841  0.1298  1.8938
   29SAPC  C310 3921   1.150   0.037  44.117 -0.2296 -0.3919  0.2893
   29SAPC  H10X 3922   1.047   0.001  44.100  0.4656 -1.6627 -1.5482
   29SAPC  H10Y 3923   1.141   0.147  44.106 -0.7027 -0.3512  1.0212
   29SAPC  C311 3924   1.182  -0.003  44.255  0.1954 -0.0333  0.2656
   29SAPC  H11X 3925   1.172  -0.113  44.267 -0.1589 -0.1545 -1.0154
   29SAPC  H11Y 3926   1.110   0.036  44.330 -0.5376 -0.9445  0.0537
   29SAPC  C312 3927   1.314   0.044  44.314 -0.1702  0.7934  0.3401
   29SAPC  H12X 3928   1.403   0.009  44.258 -0.7410  1.6703 -1.1752
   29SAPC  H12Y 3929   1.315   0.009  44.419  3.3736  0.5924  0.3515
   29SAPC  C313 3930   1.325   0.200  44.311 -0.4951  0.1244 -0.5782
   29SAPC  H13X 3931   1.247   0.251  44.372 -1.1951 -1.6436  0.0519
   29SAPC  H13Y 3932   1.335   0.250  44.212  0.4811 -0.2261 -0.6740
   29SAPC  C314 3933   1.451   0.246  44.390 -0.0882 -0.2350  0.5670
   29SAPC  H14X 3934   1.536   0.206  44.331 -0.5709 -0.1260 -0.2187
   29SAPC  H14Y 3935   1.449   0.203  44.493  2.9283 -1.5421  0.1930
   29SAPC  C315 3936   1.472   0.403  44.390  0.3586 -0.2731  0.3453
   29SAPC  H15X 3937   1.542   0.414  44.476  0.9555 -2.9809  0.2924
   29SAPC  H15Y 3938   1.377   0.460  44.399 -0.3242 -1.5606  2.0651
   29SAPC  C316 3939   1.537   0.462  44.257 -0.6818  0.1860 -0.0580
   29SAPC  H16X 3940   1.457   0.452  44.180 -0.6194 -0.6822 -0.0232
   29SAPC  H16Y 3941   1.631   0.407  44.239 -0.1342  0.5011  1.6066
   29SAPC  C317 3942   1.566   0.613  44.271 -1.0925  0.4727 -0.8139
   29SAPC  H17X 3943   1.609   0.640  44.370 -2.0584  0.1623 -0.2981
   29SAPC  H17Y 3944   1.468   0.665  44.267 -2.1741 -1.4302 -0.1517
   29SAPC  C318 3945   1.644   0.672  44.150  0.1426 -0.1068 -0.0582
   29SAPC  H18X 3946   1.747   0.630  44.145 -0.4338 -1.6345  0.3616
   29SAPC  H18Y 3947   1.642   0.781  44.172 -2.9497  0.0950 -0.8926
   29SAPC  H18Z 3948   1.588   0.648  44.058 -0.4688  0.2292  0.2231
   30SAPC     N 3949   0.536   2.617  42.426 -0.3971  0.1536  1.0425
   30SAPC   C12 3950   0.582   2.547  42.296  0.0194  0.2816  0.1923
   30SAPC  H12A 3951   0.583   2.619  42.216 -0.7966  0.6152  0.4767
   30SAPC  H12B 3952   0.526   2.456  42.281  0.9073 -0.0986 -0.9509
   30SAPC   C13 3953   0.543   2.526  42.545  0.0073  0.0992  0.3346
   30SAPC  H13A 3954   0.475   2.443  42.528 -1.5742  1.7438 -1.8523
   30SAPC  H13B 3955   0.644   2.492  42.562 -1.0423 -2.1947  2.7210
   30SAPC  H13C 3956   0.524   2.586  42.633  1.0851  1.2879 -0.2103
   30SAPC   C14 3957   0.620   2.729  42.456  0.1151  0.1455  0.1679
   30SAPC  H14A 3958   0.615   2.798  42.374  1.3010  0.5391  0.4092
   30SAPC  H14B 3959   0.587   2.783  42.543  0.0267 -0.8266  0.7495
   30SAPC  H14C 3960   0.717   2.682  42.464 -0.2747 -0.5080  1.3167
   30SAPC   C15 3961   0.397   2.666  42.410  0.1582  0.5001  0.0462
   30SAPC  H15A 3962   0.323   2.587  42.403 -0.0920  0.5611  1.6655
   30SAPC  H15B 3963   0.369   2.725  42.496  0.2216 -0.0070  0.4090
   30SAPC  H15C 3964   0.393   2.733  42.325  2.0140 -0.7906 -1.1277
   30SAPC   C11 3965   0.731   2.493  42.290  0.6351 -1.0198 -0.6613
   30SAPC  H11A 3966   0.740   2.451  42.187  0.0310  2.5315 -2.2973
   30SAPC  H11B 3967   0.735   2.405  42.357 -0.3283  0.1784  1.0363
   30SAPC     P 3968   0.970   2.598  42.282 -0.1281  0.0679 -0.4825
   30SAPC   O13 3969   0.997   2.611  42.140 -0.3382 -0.5072  0.2168
   30SAPC   O14 3970   1.047   2.697  42.366 -0.3311 -0.2320  0.0036
   30SAPC   O12 3971   0.824   2.599  42.328  0.0654 -0.1434  0.3844
   30SAPC   O11 3972   1.021   2.459  42.333 -0.4912 -0.7238 -0.2069
   30SAPC    C1 3973   1.112   2.435  42.438  0.2601 -0.3181  0.0746
   30SAPC    HA 3974   1.167   2.525  42.472 -1.5387  0.8364  0.1178
   30SAPC    HB 3975   1.053   2.414  42.530 -0.4353 -3.2683 -0.9389
   30SAPC    C2 3976   1.200   2.312  42.405  0.2961  0.3723  0.1790
   30SAPC    HS 3977   1.227   2.326  42.298 -2.2510  1.1244 -0.4261
   30SAPC   O21 3978   1.118   2.194  42.409  0.2363  0.2191  0.5563
   30SAPC   C21 3979   1.174   2.091  42.359 -0.6687  0.9374  0.0681
   30SAPC   O22 3980   1.284   2.071  42.305 -0.3777 -0.5704 -0.5672
   30SAPC   C22 3981   1.077   1.984  42.400  0.2604  0.2863 -0.1281
   30SAPC   H2R 3982   1.132   1.890  42.421 -2.1511 -0.6332  2.7938
   30SAPC   H2S 3983   1.024   2.007  42.495 -1.8565 -2.2396 -0.5667
   30SAPC    C3 3984   1.324   2.306  42.496 -0.8492 -0.5289  0.4585
   30SAPC    HX 3985   1.354   2.413  42.503 -0.2497 -0.5689 -1.0773
   30SAPC    HY 3986   1.398   2.248  42.436 -2.7658 -1.0618 -1.5036
   30SAPC   O31 3987   1.307   2.260  42.631  0.2643  0.2529 -0.1036
   30SAPC   C31 3988   1.395   2.175  42.688 -0.5194 -0.7710  0.8076
   30SAPC   O32 3989   1.505   2.153  42.639 -0.1456 -0.2643  0.3188
   30SAPC   C32 3990   1.345   2.145  42.829  0.0690 -0.8909 -0.3110
   30SAPC   H2X 3991   1.235   2.148  42.841  0.1254 -2.0292  0.6235
   30SAPC   H2Y 3992   1.395   2.223  42.889 -0.7228  0.3898 -1.2713
   30SAPC   C23 3993   0.989   1.942  42.282  0.0857  0.4538 -0.3629
   30SAPC   H3R 3994   0.949   1.839  42.296  2.4811 -0.8278 -2.1104
   30SAPC   H3S 3995   1.043   1.933  42.185 -2.0215 -2.5467 -1.4082
   30SAPC   C24 3996   0.869   2.045  42.266  0.0401  0.6793  0.4226
   30SAPC   H4R 3997   0.834   2.090  42.362 -1.1152  1.9620 -0.5631
   30SAPC   H4S 3998   0.794   1.977  42.221  0.1598  1.0062 -0.2770
   30SAPC   C25 3999   0.891   2.163  42.172  0.4634  1.1273  0.1165
   30SAPC   H5R 4000   0.969   2.234  42.202  1.1876 -0.2223  1.5454
   30SAPC   C26 4001   0.820   2.204  42.065  0.5233  0.3042  0.4754
   30SAPC   H6R 4002   0.847   2.301  42.021 -1.8856  1.5777  1.5897
   30SAPC   C27 4003   0.695   2.137  42.012  0.5900  0.3388  0.4874
   30SAPC   H7R 4004   0.713   2.039  41.963 -0.8481  0.7842 -0.9979
   30SAPC   H7S 4005   0.661   2.199  41.927  0.0588  2.7331  2.3443
   30SAPC   C28 4006   0.581   2.113  42.111 -0.4582 -0.4236  0.4392
   30SAPC   H8R 4007   0.575   2.182  42.197  3.0940 -0.6995  1.0522
   30SAPC   C29 4008   0.497   2.014  42.124  0.4118  0.5690  0.0624
   30SAPC   H9R 4009   0.419   2.006  42.201  0.0922 -2.7911 -0.4660
   30SAPC  C210 4010   0.472   1.904  42.022 -0.4723  0.7305 -0.0514
   30SAPC  H10R 4011   0.454   1.936  41.917 -0.9579  0.1768 -0.1457
   30SAPC  H10S 4012   0.383   1.849  42.061  1.9900 -2.1098  2.0892
   30SAPC  C211 4013   0.583   1.797  42.029  0.7441 -0.7392 -0.6156
   30SAPC  H11R 4014   0.675   1.841  42.069  0.6903 -0.0969 -1.1823
   30SAPC  C212 4015   0.570   1.666  41.988  0.2278 -0.2258 -0.0567
   30SAPC  H12R 4016   0.647   1.588  41.994  1.0249  0.4375 -1.1622
   30SAPC  C213 4017   0.441   1.591  41.957  0.3618 -0.1202 -0.3837
   30SAPC  H13R 4018   0.353   1.655  41.980 -0.5063 -1.4521  0.1443
   30SAPC  H13S 4019   0.425   1.507  42.028  1.3878  0.7410  0.9081
   30SAPC  C214 4020   0.437   1.535  41.821  0.8617 -0.9706 -0.7260
   30SAPC  H14R 4021   0.378   1.592  41.748  1.7014  1.8295  0.6283
   30SAPC  C215 4022   0.496   1.427  41.774  0.1586  0.4475 -0.0367
   30SAPC  H15R 4023   0.490   1.415  41.665  0.0349  0.2953 -0.0117
   30SAPC  C216 4024   0.590   1.334  41.846 -0.4133  0.2437 -0.6925
   30SAPC  H16R 4025   0.537   1.236  41.847 -1.5937  0.8209 -2.1908
   30SAPC  H16S 4026   0.605   1.374  41.949  0.9811  1.0186 -1.1728
   30SAPC  C217 4027   0.728   1.310  41.779  0.0780 -0.3766  0.2179
   30SAPC  H17R 4028   0.714   1.271  41.676  1.3520  1.6357 -0.7734
   30SAPC  H17S 4029   0.774   1.227  41.838 -1.2470 -0.8860  0.5656
   30SAPC  C218 4030   0.818   1.435  41.777  0.6099  0.4064 -0.1125
   30SAPC  H18R 4031   0.814   1.485  41.876 -1.3828  0.0203  0.0648
   30SAPC  H18S 4032   0.784   1.509  41.702  0.0941  1.0108  0.6950
   30SAPC  C219 4033   0.962   1.398  41.729 -0.5373  0.1538 -1.3046
   30SAPC  H19R 4034   1.002   1.329  41.807  0.8892  3.2425  0.9157
   30SAPC  H19S 4035   1.021   1.491  41.742 -3.2463  1.8863 -0.4626
   30SAPC  C220 4036   0.968   1.345  41.585  0.1439  0.1574  0.1099
   30SAPC  H20R 4037   0.923   1.415  41.511 -0.8088 -0.5294  0.0300
   30SAPC  H20S 4038   0.910   1.252  41.575  1.8038 -0.8048 -1.0528
   30SAPC  H20T 4039   1.072   1.332  41.547  0.7358  2.8762  0.5296
   30SAPC   C33 4040   1.406   2.017  42.869  0.2968 -0.1320 -0.7991
   30SAPC   H3X 4041   1.517   2.017  42.860  0.7588 -0.7708  3.1721
   30SAPC   H3Y 4042   1.349   1.934  42.823 -0.0596  0.0327 -0.6499
   30SAPC   C34 4043   1.388   1.987  43.019 -0.1018 -0.3511  0.7295
   30SAPC   H4X 4044   1.283   2.011  43.046 -0.3236 -0.2840 -0.1540
   30SAPC   H4Y 4045   1.441   2.057  43.087  2.3996  0.6108 -2.0093
   30SAPC   C35 4046   1.429   1.849  43.081  0.1890 -0.0634 -0.4412
   30SAPC   H5X 4047   1.374   1.760  43.044  2.1532 -1.1959 -0.7955
   30SAPC   H5Y 4048   1.418   1.864  43.190 -1.9223  0.2367 -0.6459
   30SAPC   C36 4049   1.581   1.823  43.054  0.1439 -0.8036  0.0042
   30SAPC   H6X 4050   1.637   1.918  43.067 -0.3755 -0.3058 -1.2487
   30SAPC   H6Y 4051   1.587   1.802  42.945  1.5843 -0.5720  0.0156
   30SAPC   C37 4052   1.635   1.704  43.135  0.3278  0.4381  0.4709
   30SAPC   H7X 4053   1.552   1.672  43.202 -0.1806  1.1622  0.1970
   30SAPC   H7Y 4054   1.726   1.738  43.189  0.0319 -0.4195  1.5588
   30SAPC   C38 4055   1.663   1.580  43.049 -0.4912 -1.2019  0.0173
   30SAPC   H8X 4056   1.736   1.628  42.980 -0.1884  0.3587  1.3709
   30SAPC   H8Y 4057   1.576   1.561  42.984  0.5757  1.3730 -2.3949
   30SAPC   C39 4058   1.714   1.460  43.120 -0.6707 -0.0417 -0.7522
   30SAPC   H9X 4059   1.655   1.440  43.211 -0.4642 -0.6063 -0.7417
   30SAPC   H9Y 4060   1.820   1.478  43.148 -0.9841 -2.0185  2.0562
   30SAPC  C310 4061   1.723   1.339  43.025 -0.3785  0.8670 -0.9176
   30SAPC  H10X 4062   1.767   1.367  42.927  0.9295  2.1104 -0.0168
   30SAPC  H10Y 4063   1.618   1.305  43.013 -0.5490  0.1317  1.8288
   30SAPC  C311 4064   1.790   1.214  43.089 -0.0737 -0.3274  0.2844
   30SAPC  H11X 4065   1.897   1.244  43.093  0.6659 -1.9848 -3.1594
   30SAPC  H11Y 4066   1.784   1.137  43.010 -1.4803  0.7121 -0.6702
   30SAPC  C312 4067   1.734   1.173  43.219  0.4277  0.6978  0.1055
   30SAPC  H12X 4068   1.623   1.169  43.215  0.3612 -0.8750  1.9712
   30SAPC  H12Y 4069   1.761   1.248  43.297  1.8987  1.7840 -1.3815
   30SAPC  C313 4070   1.781   1.039  43.263  0.8204  0.0848  0.2823
   30SAPC  H13X 4071   1.892   1.046  43.269  0.7614  1.1207  0.1742
   30SAPC  H13Y 4072   1.735   0.958  43.202 -2.1004  2.2879 -0.6687
   30SAPC  C314 4073   1.734   1.008  43.411 -0.4604  0.5321  0.3410
   30SAPC  H14X 4074   1.624   0.993  43.415 -0.5229  1.1286  0.9440
   30SAPC  H14Y 4075   1.754   1.097  43.475 -0.1394  0.8584 -0.2034
   30SAPC  C315 4076   1.793   0.871  43.466 -0.1844 -0.1999 -0.0893
   30SAPC  H15X 4077   1.896   0.896  43.497  0.0650 -0.1915 -0.9033
   30SAPC  H15Y 4078   1.803   0.790  43.391  0.1008 -0.3826  0.1452
   30SAPC  C316 4079   1.723   0.826  43.591 -0.1739  0.2354 -0.1243
   30SAPC  H16X 4080   1.618   0.796  43.571 -0.3913  1.6940 -1.3082
   30SAPC  H16Y 4081   1.728   0.898  43.675  1.9212 -0.5185  0.4503
   30SAPC  C317 4082   1.789   0.698  43.642 -0.0409 -0.2585 -0.5827
   30SAPC  H17X 4083   1.893   0.727  43.671  0.3649 -0.9912 -1.2601
   30SAPC  H17Y 4084   1.802   0.621  43.564  0.9087  1.9780 -2.7946
   30SAPC  C318 4085   1.703   0.655  43.758 -0.4123 -0.0113  0.3877
   30SAPC  H18X 4086   1.603   0.616  43.730 -1.1275  0.5607  2.0032
   30SAPC  H18Y 4087   1.687   0.746  43.819 -1.0103  0.1420  0.0158
   30SAPC  H18Z 4088   1.763   0.581  43.816 -0.7338  0.0699  0.8324
   31SAPC     N 4089   0.618   0.714  37.736  0.1096  0.5767  0.1473
   31SAPC   C12 4090   0.671   0.608  37.824  0.8987 -0.0267  0.2547
   31SAPC  H12A 4091   0.720   0.536  37.761  0.3655 -0.5656  0.4438
   31SAPC  H12B 4092   0.583   0.561  37.864  0.6701 -0.0892 -0.3193
   31SAPC   C13 4093   0.512   0.656  37.649  0.7724 -0.0825  0.3158
   31SAPC  H13A 4094   0.432   0.606  37.703 -0.1569 -0.0871 -0.9953
   31SAPC  H13B 4095   0.465   0.728  37.584 -2.6572 -0.8576  1.6675
   31SAPC  H13C 4096   0.561   0.597  37.573  2.0522  2.6942 -1.1659
   31SAPC   C14 4097   0.565   0.826  37.815 -0.0479 -0.2295  0.2934
   31SAPC  H14A 4098   0.639   0.870  37.880 -0.1606 -1.1274  1.0526
   31SAPC  H14B 4099   0.526   0.905  37.753  1.2967 -0.0987 -0.4052
   31SAPC  H14C 4100   0.486   0.791  37.880 -1.1061 -0.0466 -0.8590
   31SAPC   C15 4101   0.727   0.773  37.651  0.4321 -0.8140  0.0994
   31SAPC  H15A 4102   0.776   0.699  37.590 -1.3822 -0.5021 -1.9063
   31SAPC  H15B 4103   0.682   0.845  37.583 -0.4376 -0.6031  0.8742
   31SAPC  H15C 4104   0.799   0.831  37.707 -0.0127  1.1911 -1.2627
   31SAPC   C11 4105   0.760   0.650  37.945  0.6472  0.0364  0.0626
   31SAPC  H11A 4106   0.837   0.721  37.907  1.7419  0.9875  3.6546
   31SAPC  H11B 4107   0.811   0.555  37.972 -0.8166 -1.7264 -2.8084
   31SAPC     P 4108   0.584   0.629  38.139  0.0411 -0.4277 -0.3435
   31SAPC   O13 4109   0.531   0.708  38.259  0.1560  0.0915  0.1931
   31SAPC   O14 4110   0.486   0.567  38.049  0.0164  0.4202 -0.2186
   31SAPC   O12 4111   0.679   0.715  38.050  0.7137  0.1751  0.1537
   31SAPC   O11 4112   0.683   0.517  38.195 -0.1527  0.1980  0.2590
   31SAPC    C1 4113   0.790   0.547  38.278  0.9803  0.1037 -0.1129
   31SAPC    HA 4114   0.876   0.487  38.242 -0.4165 -1.1141 -1.5927
   31SAPC    HB 4115   0.822   0.651  38.256 -1.8663  1.0025 -0.4600
   31SAPC    C2 4116   0.752   0.523  38.425 -0.0976  0.1636  0.1720
   31SAPC    HS 4117   0.672   0.595  38.451 -2.0282 -0.9601 -2.1972
   31SAPC   O21 4118   0.873   0.520  38.512  0.0305  0.3399  0.2325
   31SAPC   C21 4119   0.923   0.641  38.545  0.4527 -0.3621  0.3406
   31SAPC   O22 4120   0.879   0.752  38.518 -0.1482  0.2205 -0.0230
   31SAPC   C22 4121   1.057   0.613  38.625  0.7261  0.0439 -0.7132
   31SAPC   H2R 4122   1.084   0.505  38.622  0.4023 -0.0534 -0.2667
   31SAPC   H2S 4123   1.134   0.684  38.588  0.2776  1.8124  1.5028
   31SAPC    C3 4124   0.680   0.389  38.442  0.9160 -0.3920  0.0236
   31SAPC    HX 4125   0.750   0.321  38.388 -0.6896 -2.5145  0.4629
   31SAPC    HY 4126   0.584   0.384  38.386  1.0980  1.2039 -0.4768
   31SAPC   O31 4127   0.661   0.349  38.579 -0.2677  0.1278  0.8421
   31SAPC   C31 4128   0.552   0.395  38.634  0.2085 -0.3458  0.4924
   31SAPC   O32 4129   0.458   0.449  38.578  0.4022 -0.0869 -0.1230
   31SAPC   C32 4130   0.558   0.367  38.784  0.3221 -0.2143 -0.8731
   31SAPC   H2X 4131   0.519   0.264  38.791 -0.6523  0.2432  1.4091
   31SAPC   H2Y 4132   0.498   0.444  38.838 -0.2049 -0.1376 -1.5593
   31SAPC   C23 4133   1.030   0.630  38.779 -0.1832 -0.1204  0.2395
   31SAPC   H3R 4134   0.945   0.565  38.806  1.5302 -2.5342  0.1083
   31SAPC   H3S 4135   1.008   0.737  38.800  0.3196 -0.1456  0.9216
   31SAPC   C24 4136   1.153   0.589  38.858 -0.4324 -0.7255  0.0515
   31SAPC   H4R 4137   1.243   0.628  38.806 -0.4395  0.3229  0.7888
   31SAPC   H4S 4138   1.157   0.478  38.851 -1.2142 -0.9561  2.3468
   31SAPC   C25 4139   1.151   0.634  39.007 -0.2741 -0.1573  0.6628
   31SAPC   H5R 4140   1.127   0.545  39.068  2.6631 -1.6897 -0.2490
   31SAPC   C26 4141   1.166   0.756  39.061 -0.0814  0.5920  0.3834
   31SAPC   H6R 4142   1.150   0.764  39.169  2.1262  1.2410  0.7078
   31SAPC   C27 4143   1.187   0.891  38.989 -0.4993  0.1366 -0.0646
   31SAPC   H7R 4144   1.213   0.870  38.883 -0.2700 -0.4956  0.1133
   31SAPC   H7S 4145   1.272   0.930  39.049 -1.1121 -0.6692  1.3750
   31SAPC   C28 4146   1.060   0.974  39.000 -0.0079  0.3553  0.4666
   31SAPC   H8R 4147   1.030   0.992  39.105  0.0701  1.2743  0.3338
   31SAPC   C29 4148   0.988   1.028  38.903 -0.7755 -0.4071 -0.1733
   31SAPC   H9R 4149   0.892   1.075  38.930 -0.9796 -1.1904  0.5092
   31SAPC  C210 4150   1.003   1.033  38.752  0.0727 -0.0850  0.1626
   31SAPC  H10R 4151   0.908   0.989  38.715  0.3677 -0.4326 -0.2002
   31SAPC  H10S 4152   1.083   0.958  38.729 -0.4028 -1.0515  1.5380
   31SAPC  C211 4153   1.030   1.171  38.689  0.0561  0.6681  0.3077
   31SAPC  H11R 4154   1.051   1.252  38.760 -0.0146  1.2425 -0.3243
   31SAPC  C212 4155   1.026   1.187  38.559  0.4229  0.5312 -0.0831
   31SAPC  H12R 4156   1.039   1.284  38.509 -2.5763  0.0861 -1.9633
   31SAPC  C213 4157   0.989   1.084  38.462  0.0115  0.5610 -0.6247
   31SAPC  H13R 4158   0.899   1.041  38.512 -0.2972  1.7269 -0.1329
   31SAPC  H13S 4159   1.066   1.003  38.462  2.5675  2.8163 -2.4243
   31SAPC  C214 4160   0.967   1.120  38.320 -0.6858  0.3538  0.1551
   31SAPC  H14R 4161   0.862   1.106  38.291 -0.6323 -2.1051  0.9229
   31SAPC  C215 4162   1.050   1.172  38.227 -0.2512 -0.1794  0.2864
   31SAPC  H15R 4163   1.010   1.197  38.128  1.6246  1.1698 -0.1739
   31SAPC  C216 4164   1.199   1.200  38.242  0.8260 -0.4568  0.3757
   31SAPC  H16R 4165   1.252   1.103  38.254  0.6870 -0.8880 -2.0318
   31SAPC  H16S 4166   1.216   1.257  38.336  0.9470 -0.1663  0.1774
   31SAPC  C217 4167   1.277   1.276  38.128  0.8743 -0.6843 -0.5301
   31SAPC  H17R 4168   1.282   1.226  38.029  2.8068 -0.4398 -0.5982
   31SAPC  H17S 4169   1.386   1.285  38.150  0.9711  1.8705 -1.7387
   31SAPC  C218 4170   1.218   1.422  38.112 -1.2899  0.2199  0.3044
   31SAPC  H18R 4171   1.222   1.467  38.213  2.0964 -2.7333  1.6864
   31SAPC  H18S 4172   1.113   1.411  38.076 -0.9830  0.3238 -0.6583
   31SAPC  C219 4173   1.308   1.502  38.006  0.5525 -0.5171 -0.6420
   31SAPC  H19R 4174   1.298   1.450  37.908 -1.7224  0.6976 -1.1375
   31SAPC  H19S 4175   1.414   1.495  38.037  0.2189  0.1097  0.6941
   31SAPC  C220 4176   1.263   1.646  37.980  0.3693  0.2206 -0.3449
   31SAPC  H20R 4177   1.157   1.640  37.947  0.2705  2.4378 -0.5711
   31SAPC  H20S 4178   1.339   1.680  37.907  4.4414 -3.9679  1.4701
   31SAPC  H20T 4179   1.261   1.707  38.073  0.9232  2.7747 -1.9179
   31SAPC   C33 4180   0.699   0.374  38.850  0.4961  0.3023  0.6102
   31SAPC   H3X 4181   0.758   0.460  38.812  1.9230 -1.5034 -1.5542
   31SAPC   H3Y 4182   0.748   0.283  38.810 -1.2548  0.8036 -3.0469
   31SAPC   C34 4183   0.696   0.370  38.997  0.7848  0.3704 -0.0949
   31SAPC   H4X 4184   0.655   0.281  39.048  1.1513  0.0666 -0.3308
   31SAPC   H4Y 4185   0.634   0.452  39.040 -0.3195 -0.3618 -0.2577
   31SAPC   C35 4186   0.827   0.389  39.052  0.7238  0.7414 -0.4094
   31SAPC   H5X 4187   0.817   0.412  39.160 -2.4660  1.2524 -0.7308
   31SAPC   H5Y 4188   0.873   0.480  39.008  0.2797  2.0140  1.6199
   31SAPC   C36 4189   0.938   0.277  39.044  0.5378  0.3118 -0.7042
   31SAPC   H6X 4190   1.026   0.300  39.107 -0.4872 -1.9655  1.7638
   31SAPC   H6Y 4191   0.971   0.260  38.939 -0.3958 -1.6599 -0.7408
   31SAPC   C37 4192   0.875   0.134  39.097  1.1372 -0.6293  0.3519
   31SAPC   H7X 4193   0.824   0.084  39.012 -2.4314  1.2053  1.2410
   31SAPC   H7Y 4194   0.794   0.173  39.162  0.4932 -1.7224  0.2353
   31SAPC   C38 4195   0.973   0.052  39.174 -0.4699 -0.1265 -0.2335
   31SAPC   H8X 4196   1.065   0.053  39.113  1.4045 -0.2680  2.3973
   31SAPC   H8Y 4197   0.940  -0.052  39.196  1.3906 -0.2865  2.2261
   31SAPC   C39 4198   1.011   0.105  39.317  0.6899  0.3735  0.8589
   31SAPC   H9X 4199   0.919   0.129  39.376  0.8865  2.7495  0.3369
   31SAPC   H9Y 4200   1.058   0.203  39.295 -0.0076  0.8636  1.4735
   31SAPC  C310 4201   1.091   0.007  39.408  0.2243 -0.6828  0.1630
   31SAPC  H10X 4202   1.192   0.052  39.419 -0.2264  0.3245  0.3386
   31SAPC  H10Y 4203   1.110  -0.085  39.349  0.0468  0.9229 -2.5720
   31SAPC  C311 4204   1.032  -0.016  39.548 -0.0899 -0.3330 -0.4887
   31SAPC  H11X 4205   0.974  -0.111  39.541  0.3324 -0.5232 -1.4987
   31SAPC  H11Y 4206   0.953   0.057  39.574 -0.4636 -1.2182  0.9598
   31SAPC  C312 4207   1.133  -0.042  39.656  0.2600  0.6305 -0.2747
   31SAPC  H12X 4208   1.169   0.059  39.686 -1.3267  0.5658  2.0874
   31SAPC  H12Y 4209   1.216  -0.107  39.619  1.5807  1.1384  1.6581
   31SAPC  C313 4210   1.060  -0.098  39.784 -0.1698 -0.0587 -0.0508
   31SAPC  H13X 4211   1.024  -0.199  39.757 -0.7508  0.5185 -1.5949
   31SAPC  H13Y 4212   0.982  -0.028  39.820 -0.7038 -0.6060 -0.1465
   31SAPC  C314 4213   1.155  -0.111  39.903  0.1578 -0.3242 -0.1044
   31SAPC  H14X 4214   1.212  -0.018  39.923 -0.2139 -0.6625  3.0060
   31SAPC  H14Y 4215   1.221  -0.200  39.896 -0.7159 -1.2138  2.0100
   31SAPC  C315 4216   1.083  -0.162  40.030  0.0894  0.1588  0.0042
   31SAPC  H15X 4217   1.001  -0.101  40.074 -0.8166 -0.4458 -0.8088
   31SAPC  H15Y 4218   1.171  -0.167  40.099  0.1035  0.0941 -0.0197
   31SAPC  C316 4219   1.028  -0.303  40.015 -0.2295  0.1139  0.4104
   31SAPC  H16X 4220   1.091  -0.360  39.943 -1.0849 -0.1528 -0.1533
   31SAPC  H16Y 4221   0.940  -0.287  39.948 -0.4547  1.9703  1.1161
   31SAPC  C317 4222   1.009  -0.383  40.141  0.6971  0.5685 -0.5360
   31SAPC  H17X 4223   1.106  -0.389  40.195  0.6316 -0.5293 -0.5353
   31SAPC  H17Y 4224   0.987  -0.485  40.104  0.9822  1.3053 -2.9135
   31SAPC  C318 4225   0.900  -0.325  40.237 -0.0895 -0.2501  0.5127
   31SAPC  H18X 4226   0.811  -0.314  40.172  1.5861 -0.1814 -1.8888
   31SAPC  H18Y 4227   0.938  -0.229  40.276  0.1145  0.7951 -2.0920
   31SAPC  H18Z 4228   0.871  -0.396  40.318 -1.7661  0.4793  0.5881
   32SAPC     N 4229   2.388   2.071  46.544  0.1258  0.3656  0.0185
   32SAPC   C12 4230   2.279   1.961  46.564 -0.1908 -0.3638 -0.1964
   32SAPC  H12A 4231   2.217   1.982  46.649 -0.0794 -1.2265  0.1025
   32SAPC  H12B 4232   2.325   1.866  46.585  0.5433 -0.7653 -3.0752
   32SAPC   C13 4233   2.484   2.034  46.429  0.9039 -0.6799 -0.6683
   32SAPC  H13A 4234   2.428   2.037  46.337 -1.3083  0.3657  0.6222
   32SAPC  H13B 4235   2.576   2.091  46.428  0.9513 -0.6319  1.5293
   32SAPC  H13C 4236   2.518   1.933  46.448  1.7267 -0.0617  1.4743
   32SAPC   C14 4237   2.315   2.203  46.508  0.2945 -0.0058 -0.6397
   32SAPC  H14A 4238   2.270   2.241  46.599  4.5040  0.2782  1.5649
   32SAPC  H14B 4239   2.376   2.287  46.477 -0.2980  0.4298 -0.6588
   32SAPC  H14C 4240   2.246   2.184  46.427  0.9514  0.2439 -1.2753
   32SAPC   C15 4241   2.452   2.072  46.669  0.5837  0.4766 -0.3290
   32SAPC  H15A 4242   2.496   1.977  46.694  1.1359  1.6561  3.9855
   32SAPC  H15B 4243   2.526   2.150  46.678  1.1169  0.1229 -1.4595
   32SAPC  H15C 4244   2.384   2.092  46.750  0.3872  2.1781 -0.8731
   32SAPC   C11 4245   2.176   1.933  46.454 -0.0212  0.3689  0.4900
   32SAPC  H11A 4246   2.124   1.835  46.458  2.4177 -1.0521 -0.4291
   32SAPC  H11B 4247   2.242   1.927  46.365 -3.2011  0.6584 -2.0806
   32SAPC     P 4248   1.975   2.070  46.552  0.3573  0.3151  0.2986
   32SAPC   O13 4249   2.033   2.062  46.690  0.1494  0.3723 -0.3784
   32SAPC   O14 4250   1.894   2.189  46.503  0.0684  0.0462 -0.2400
   32SAPC   O12 4251   2.086   2.038  46.446 -0.5807 -0.0564 -0.6707
   32SAPC   O11 4252   1.875   1.946  46.536 -0.2814 -0.0077 -0.2590
   32SAPC    C1 4253   1.833   1.900  46.407 -0.3817 -0.0550  0.0391
   32SAPC    HA 4254   1.886   1.960  46.329 -2.9004  0.5407 -1.3126
   32SAPC    HB 4255   1.855   1.793  46.391 -1.9588 -0.4299  0.2127
   32SAPC    C2 4256   1.682   1.906  46.384 -0.2362 -0.3302  0.5555
   32SAPC    HS 4257   1.657   2.011  46.358 -1.8645 -0.8702 -0.2219
   32SAPC   O21 4258   1.602   1.895  46.501  0.2960 -0.1416  0.7266
   32SAPC   C21 4259   1.594   1.778  46.557  0.3178  0.4460 -0.5406
   32SAPC   O22 4260   1.646   1.672  46.525 -0.3872  0.1954  0.7380
   32SAPC   C22 4261   1.512   1.799  46.678  0.2250 -0.2454  0.6573
   32SAPC   H2R 4262   1.585   1.835  46.754  2.4784 -0.0716 -1.4296
   32SAPC   H2S 4263   1.438   1.880  46.663 -1.5015 -1.7111  1.0101
   32SAPC    C3 4264   1.633   1.818  46.264 -0.0700 -0.1090 -0.6277
   32SAPC    HX 4265   1.659   1.713  46.291 -0.4256 -0.3835 -1.3340
   32SAPC    HY 4266   1.688   1.859  46.176 -0.4711  3.8782  0.7837
   32SAPC   O31 4267   1.490   1.815  46.245  0.3001  0.1627 -0.3246
   32SAPC   C31 4268   1.431   1.927  46.199 -0.4137 -0.5699 -0.1718
   32SAPC   O32 4269   1.487   2.032  46.170 -0.3311  0.6624 -0.3894
   32SAPC   C32 4270   1.276   1.920  46.213 -0.2708 -0.0901 -0.1026
   32SAPC   H2X 4271   1.243   1.917  46.319 -1.5150 -2.7829 -0.4808
   32SAPC   H2Y 4272   1.256   1.818  46.173  0.5425 -1.0239  1.7533
   32SAPC   C23 4273   1.434   1.669  46.711  0.0983 -0.6659  0.3117
   32SAPC   H3R 4274   1.386   1.680  46.811  0.2497  1.6635  0.1827
   32SAPC   H3S 4275   1.497   1.578  46.710  1.9922  0.5565  1.5290
   32SAPC   C24 4276   1.319   1.643  46.607  0.7757  0.3396 -0.0578
   32SAPC   H4R 4277   1.366   1.616  46.510 -0.5304  1.9842 -1.2197
   32SAPC   H4S 4278   1.259   1.736  46.616 -0.7312 -0.7495  2.6240
   32SAPC   C25 4279   1.231   1.519  46.653 -0.2882  0.3893  0.3934
   32SAPC   H5R 4280   1.274   1.473  46.743  2.4342 -0.6473 -1.3078
   32SAPC   C26 4281   1.138   1.446  46.580 -0.2148  0.0102  0.3546
   32SAPC   H6R 4282   1.087   1.365  46.635  1.6456 -1.2477  0.3455
   32SAPC   C27 4283   1.097   1.474  46.433 -0.0969 -0.2944  0.2330
   32SAPC   H7R 4284   1.010   1.408  46.411 -1.8630  1.3465  1.9052
   32SAPC   H7S 4285   1.189   1.451  46.374 -0.7392  1.7805 -1.6921
   32SAPC   C28 4286   1.060   1.609  46.385  0.2572  0.1294 -0.9433
   32SAPC   H8R 4287   1.076   1.683  46.465 -0.3331  1.1255 -1.7150
   32SAPC   C29 4288   1.013   1.653  46.268  0.9827 -0.8079 -0.3056
   32SAPC   H9R 4289   0.987   1.758  46.249 -0.2482 -1.1895 -0.7869
   32SAPC  C210 4290   0.989   1.569  46.144 -0.1426 -0.1831 -0.4612
   32SAPC  H10R 4291   0.880   1.576  46.128 -0.1589 -1.7584 -1.2201
   32SAPC  H10S 4292   1.022   1.463  46.153 -0.6420 -0.5239 -2.2796
   32SAPC  C211 4293   1.056   1.634  46.027  0.2249  0.4759  0.4118
   32SAPC  H11R 4294   1.154   1.678  46.050  0.3250  1.5008 -1.7768
   32SAPC  C212 4295   1.006   1.642  45.906 -0.1663  0.7370  0.4043
   32SAPC  H12R 4296   1.064   1.702  45.834  0.8502 -2.6307 -1.8557
   32SAPC  C213 4297   0.871   1.592  45.859  0.5617 -0.3133  0.9949
   32SAPC  H13R 4298   0.785   1.625  45.922 -0.6793 -0.3259 -0.6202
   32SAPC  H13S 4299   0.866   1.482  45.866 -2.6783 -0.2186  1.8552
   32SAPC  C214 4300   0.827   1.647  45.723  0.2212 -0.1498 -0.4326
   32SAPC  H14R 4301   0.731   1.699  45.730 -0.2566 -1.2935  2.8166
   32SAPC  C215 4302   0.886   1.633  45.605  0.3035  0.0047  0.0186
   32SAPC  H15R 4303   0.847   1.694  45.521 -1.4643 -1.6925 -0.4830
   32SAPC  C216 4304   1.019   1.559  45.581  0.2801  0.4851 -0.0004
   32SAPC  H16R 4305   1.005   1.494  45.492 -1.1020  0.1704  0.4173
   32SAPC  H16S 4306   1.044   1.487  45.662 -1.0250  1.1532  1.0521
   32SAPC  C217 4307   1.134   1.655  45.546  0.2017  0.6469 -0.3312
   32SAPC  H17R 4308   1.216   1.583  45.522  0.1604  0.3940  0.2676
   32SAPC  H17S 4309   1.173   1.719  45.628  3.0481  1.3575 -2.0793
   32SAPC  C218 4310   1.108   1.754  45.429  0.5375  0.4965 -0.3011
   32SAPC  H18R 4311   1.042   1.837  45.461  2.0647  2.5911 -2.2690
   32SAPC  H18S 4312   1.060   1.693  45.350  0.1407 -0.1786  0.4407
   32SAPC  C219 4313   1.225   1.812  45.354  1.4980  0.1607  0.3667
   32SAPC  H19R 4314   1.290   1.723  45.336 -0.3793 -1.4950  1.4183
   32SAPC  H19S 4315   1.274   1.869  45.436  2.4580 -1.4685  0.9738
   32SAPC  C220 4316   1.191   1.900  45.233 -0.1589  1.0884 -0.0879
   32SAPC  H20R 4317   1.156   1.839  45.147 -1.7040  1.3802  0.2945
   32SAPC  H20S 4318   1.288   1.938  45.195  2.3188 -3.5254  0.9302
   32SAPC  H20T 4319   1.112   1.977  45.251 -2.4564 -0.5964 -2.2788
   32SAPC   C33 4320   1.214   2.030  46.130  0.8530  0.2002 -0.7167
   32SAPC   H3X 4321   1.270   2.082  46.049  1.9704  1.4024  0.7727
   32SAPC   H3Y 4322   1.190   2.111  46.202 -0.3877 -1.1322  0.4331
   32SAPC   C34 4323   1.074   1.997  46.064  0.1445  0.3970 -0.8100
   32SAPC   H4X 4324   1.007   1.937  46.130  1.1106 -1.0649 -1.0973
   32SAPC   H4Y 4325   1.100   1.940  45.972 -2.7270 -0.9283 -0.9456
   32SAPC   C35 4326   0.993   2.118  46.022  0.1706  0.4292  0.5538
   32SAPC   H5X 4327   1.058   2.173  45.950  0.9272 -1.7314 -0.5473
   32SAPC   H5Y 4328   0.967   2.189  46.102  0.7216 -0.0822  1.1964
   32SAPC   C36 4329   0.866   2.084  45.940 -0.5228 -0.3023 -0.5966
   32SAPC   H6X 4330   0.811   2.006  45.996 -1.6497  0.2072 -0.9587
   32SAPC   H6Y 4331   0.876   2.030  45.843  2.3511  1.0198 -1.1277
   32SAPC   C37 4332   0.775   2.205  45.904  0.3744 -0.5939  0.9696
   32SAPC   H7X 4333   0.685   2.165  45.852 -0.8085  1.8377  0.9965
   32SAPC   H7Y 4334   0.825   2.263  45.823 -1.8904 -0.7476 -0.6412
   32SAPC   C38 4335   0.729   2.297  46.017 -0.7701  0.0037 -0.3104
   32SAPC   H8X 4336   0.822   2.348  46.050 -0.1185  0.0595 -2.1162
   32SAPC   H8Y 4337   0.683   2.246  46.104 -0.0779  1.0594  0.7070
   32SAPC   C39 4338   0.617   2.389  45.975  0.2786  0.1678  0.3382
   32SAPC   H9X 4339   0.582   2.453  46.059  1.1564  0.9875  0.1027
   32SAPC   H9Y 4340   0.523   2.331  45.965  1.0792 -1.5476  2.0573
   32SAPC  C310 4341   0.633   2.469  45.842  0.1422  0.0586  0.3463
   32SAPC  H10X 4342   0.660   2.409  45.753 -0.0339  1.7459 -0.8834
   32SAPC  H10Y 4343   0.712   2.546  45.857  0.0005  0.1315  0.7364
   32SAPC  C311 4344   0.514   2.543  45.803  0.0487 -0.5677  0.0439
   32SAPC  H11X 4345   0.538   2.600  45.711  4.3828 -2.5242 -0.2835
   32SAPC  H11Y 4346   0.498   2.621  45.880  1.2663  1.6997 -1.8567
   32SAPC  C312 4347   0.377   2.471  45.791  0.5753 -0.6864 -0.1083
   32SAPC  H12X 4348   0.300   2.551  45.798  0.1328 -1.0209 -0.9539
   32SAPC  H12Y 4349   0.363   2.397  45.873  1.4883 -1.0689 -0.2790
   32SAPC  C313 4350   0.355   2.381  45.677 -0.5105  0.1691 -0.4131
   32SAPC  H13X 4351   0.452   2.349  45.635  0.3680  1.2752  0.7212
   32SAPC  H13Y 4352   0.288   2.434  45.605 -1.8695  1.0294  1.3990
   32SAPC  C314 4353   0.274   2.252  45.711 -0.5691 -0.4710  0.1660
   32SAPC  H14X 4354   0.187   2.286  45.771 -1.4913 -3.8776  0.9559
   32SAPC  H14Y 4355   0.337   2.185  45.772  0.3502 -0.3541 -0.6097
   32SAPC  C315 4356   0.225   2.172  45.586  0.1598 -0.5996  0.6064
   32SAPC  H15X 4357   0.313   2.155  45.522 -0.0954  0.9482 -0.1761
   32SAPC  H15Y 4358   0.158   2.231  45.521 -1.2596  0.2113  2.6685
   32SAPC  C316 4359   0.160   2.043  45.615 -0.0523 -0.9691 -0.2717
   32SAPC  H16X 4360   0.125   2.034  45.720  1.9712  0.6951  0.6274
   32SAPC  H16Y 4361   0.222   1.952  45.606  0.7961 -0.4217 -0.1249
   32SAPC  C317 4362   0.039   2.024  45.523  0.1432  0.4033 -0.7486
   32SAPC  H17X 4363  -0.014   2.121  45.529 -0.2361  0.1185  1.2672
   32SAPC  H17Y 4364  -0.017   1.938  45.567  2.0619 -0.5418 -0.0562
   32SAPC  C318 4365   0.060   1.990  45.375  0.0544  0.0714 -0.5586
   32SAPC  H18X 4366   0.088   1.883  45.366 -0.7126 -0.0233 -2.1439
   32SAPC  H18Y 4367   0.143   2.055  45.342  0.6643 -0.2325  0.3368
   32SAPC  H18Z 4368  -0.038   2.019  45.332  0.5376  0.9115 -1.1087
   33POPC     N 4369   1.715   0.726  58.726  0.0978 -0.1756  0.1653
   33POPC   C12 4370   1.750   0.616  58.828 -0.1140  0.1948  0.6688
   33POPC  H12A 4371   1.679   0.535  58.816  1.2711 -0.9739  0.0725
   33POPC  H12B 4372   1.723   0.667  58.919  0.9352 -1.1294  1.7557
   33POPC   C13 4373   1.787   0.713  58.593  0.9098  0.4209  0.1850
   33POPC  H13A 4374   1.894   0.710  58.607  0.9879 -1.5016 -0.5644
   33POPC  H13B 4375   1.757   0.625  58.539  0.1533 -0.3910  1.8516
   33POPC  H13C 4376   1.770   0.796  58.526 -1.4570  1.1241  1.5355
   33POPC   C14 4377   1.562   0.728  58.712 -1.1832 -0.1355 -0.5637
   33POPC  H14A 4378   1.524   0.826  58.684 -1.5907  0.8893  3.0053
   33POPC  H14B 4379   1.536   0.667  58.627  1.2296 -2.2825  0.1090
   33POPC  H14C 4380   1.507   0.697  58.799  1.2391 -2.0605  0.3982
   33POPC   C15 4381   1.757   0.866  58.765 -0.7995  0.6723  0.1803
   33POPC  H15A 4382   1.681   0.920  58.820 -2.0917 -1.3471  0.4895
   33POPC  H15B 4383   1.789   0.932  58.687 -0.4676 -0.6332 -0.8220
   33POPC  H15C 4384   1.837   0.847  58.836 -1.2366 -5.1982 -0.3989
   33POPC   C11 4385   1.892   0.549  58.833  0.8512 -0.9293 -0.1234
   33POPC  H11A 4386   1.914   0.475  58.753  0.6008 -2.9699  1.6134
   33POPC  H11B 4387   1.896   0.490  58.928  2.5652 -2.0208 -0.8135
   33POPC     P 4388   2.055   0.700  58.961  0.0434 -0.1714 -0.2674
   33POPC   O13 4389   2.112   0.838  58.968  0.3991  0.1654  0.6249
   33POPC   O14 4390   2.138   0.598  59.025  0.1544 -0.0313  0.3941
   33POPC   O12 4391   1.995   0.656  58.829  0.3253  0.3498 -0.8444
   33POPC   O11 4392   1.929   0.700  59.055 -0.2953  0.0175 -0.8622
   33POPC    C1 4393   1.876   0.818  59.099  0.2063 -0.3142  0.0285
   33POPC    HA 4394   1.885   0.900  59.025 -1.5005 -0.7670 -0.7400
   33POPC    HB 4395   1.766   0.814  59.115  0.3035  0.5387  1.0768
   33POPC    C2 4396   1.924   0.853  59.239  0.3029 -0.6821  0.4639
   33POPC    HS 4397   2.034   0.859  59.248  0.4968 -0.7881 -1.4159
   33POPC   O21 4398   1.859   0.772  59.329  0.2440  0.4549  0.0807
   33POPC   C21 4399   1.936   0.727  59.428  0.3396  0.5548 -0.1518
   33POPC   O22 4400   2.048   0.768  59.462  0.5725 -0.1667 -1.0892
   33POPC   C22 4401   1.846   0.622  59.491 -0.5458  0.5755  0.4840
   33POPC   H2R 4402   1.812   0.554  59.410  0.0574  0.2415  0.5059
   33POPC   H2S 4403   1.755   0.662  59.540 -0.9063 -0.4298  0.6435
   33POPC    C3 4404   1.874   1.006  59.265 -0.9457  0.3314 -0.1514
   33POPC    HX 4405   1.771   0.994  59.226 -0.0104 -3.4818 -2.0230
   33POPC    HY 4406   1.907   1.089  59.199 -4.0579  1.2805 -0.6806
   33POPC   O31 4407   1.864   1.048  59.399  0.2438  0.5117  0.1065
   33POPC   C31 4408   1.974   1.095  59.449  0.2886 -0.2225 -0.3339
   33POPC   O32 4409   2.082   1.106  59.394  0.1787  0.4641  0.5813
   33POPC   C32 4410   1.946   1.133  59.604 -0.8521  0.3915  0.1093
   33POPC   H2X 4411   1.870   1.060  59.638 -0.7873  0.0209 -0.5314
   33POPC   H2Y 4412   1.913   1.239  59.611  1.5809  1.2409 -0.0780
   33POPC   C23 4413   1.915   0.536  59.597  0.1721 -0.2475  0.3921
   33POPC   H3R 4414   2.016   0.507  59.562  0.9280 -1.1547  3.0617
   33POPC   H3S 4415   1.853   0.447  59.622  0.2541 -0.2256  0.6820
   33POPC   C24 4416   1.939   0.626  59.723  0.1656  0.3183 -0.7252
   33POPC   H4R 4417   1.842   0.644  59.773  1.1463  1.9859  0.6996
   33POPC   H4S 4418   1.973   0.725  59.686  2.4249 -0.1886 -0.1784
   33POPC   C25 4419   2.041   0.567  59.817 -1.0079  0.5147 -0.2117
   33POPC   H5R 4420   2.136   0.622  59.799 -0.5019 -0.5957 -1.0611
   33POPC   H5S 4421   2.047   0.466  59.771 -2.3717  0.4132 -0.1965
   33POPC   C26 4422   2.001   0.589  59.955  0.4763  0.6975  0.2059
   33POPC   H6R 4423   1.900   0.555  59.985  0.1512  1.0262 -0.5118
   33POPC   H6S 4424   1.992   0.700  59.962  2.2810  0.9312 -0.6386
   33POPC   C27 4425   2.101   0.554  60.060  0.5566  0.4016 -0.6538
   33POPC   H7R 4426   2.182   0.629  60.047  1.8530 -0.2263  2.9584
   33POPC   H7S 4427   2.143   0.453  60.043 -0.1255  0.1428 -0.8764
   33POPC   C28 4428   2.053   0.575  60.206  0.1675 -0.8553 -0.5315
   33POPC   H8R 4429   1.969   0.509  60.236 -1.2245  0.5394 -1.1973
   33POPC   H8S 4430   2.014   0.678  60.220  3.5646  0.6041 -0.7658
   33POPC   C29 4431   2.181   0.552  60.295  0.7175  0.1876  0.7063
   33POPC   H91 4432   2.223   0.451  60.298  1.1225  0.3639  1.0823
   33POPC  C210 4433   2.226   0.640  60.385  0.6224  0.2854 -0.0873
   33POPC  H101 4434   2.323   0.612  60.429  1.6957  0.9510 -1.9390
   33POPC  C211 4435   2.176   0.778  60.404  0.0374  0.5655  0.0927
   33POPC  H11R 4436   2.065   0.781  60.400  0.0123  1.7132  1.0283
   33POPC  H11S 4437   2.219   0.842  60.324  0.4169 -0.9024 -0.9280
   33POPC  C212 4438   2.238   0.829  60.533 -0.3576  0.7297  0.3667
   33POPC  H12R 4439   2.237   0.939  60.517 -2.9051  0.5503 -1.2205
   33POPC  H12S 4440   2.346   0.802  60.544 -0.3657  0.4229 -0.2662
   33POPC  C213 4441   2.158   0.806  60.657 -0.1840  0.2451  0.0368
   33POPC  H13R 4442   2.117   0.704  60.642 -1.4534  0.7023  0.3219
   33POPC  H13S 4443   2.074   0.877  60.648 -1.9955 -1.9205 -1.1350
   33POPC  C214 4444   2.250   0.828  60.783 -0.3648  0.4611 -0.1311
   33POPC  H14R 4445   2.312   0.918  60.764  3.8240 -1.7133  1.8001
   33POPC  H14S 4446   2.319   0.743  60.804 -2.9530 -2.8673 -3.6431
   33POPC  C215 4447   2.180   0.860  60.923  0.8957  0.4497 -0.0926
   33POPC  H15R 4448   2.109   0.939  60.889  1.9767  1.0105 -1.1018
   33POPC  H15S 4449   2.266   0.900  60.980  0.1291  1.1499  0.5947
   33POPC  C216 4450   2.114   0.741  60.990  0.0623 -0.2802 -0.3003
   33POPC  H16R 4451   2.180   0.654  61.013 -0.7929 -0.5496  1.2266
   33POPC  H16S 4452   2.051   0.703  60.906 -0.0589  1.2488 -0.9267
   33POPC  C217 4453   2.036   0.781  61.111  0.0988  1.5932 -0.0424
   33POPC  H17R 4454   2.124   0.823  61.165  2.6369 -3.6169  0.5212
   33POPC  H17S 4455   2.021   0.682  61.159  4.7707  0.1755 -0.9717
   33POPC  C218 4456   1.909   0.855  61.090  1.3931  0.0489 -0.2031
   33POPC  H18R 4457   1.938   0.953  61.047 -1.5514 -0.2848 -3.3720
   33POPC  H18S 4458   1.867   0.868  61.192 -0.7352 -1.4795 -0.8037
   33POPC  H18T 4459   1.832   0.815  61.020 -1.2329 -0.9422  3.0031
   33POPC   C33 4460   2.061   1.119  59.714  0.5440  1.1593 -0.2007
   33POPC   H3X 4461   2.031   1.153  59.815  1.2993  2.8257 -0.5073
   33POPC   H3Y 4462   2.139   1.189  59.679  0.5466  0.3488 -1.9267
   33POPC   C34 4463   2.143   0.984  59.711  0.2956 -0.4565  0.9255
   33POPC   H4X 4464   2.177   0.966  59.607 -4.1574 -1.5100 -0.5911
   33POPC   H4Y 4465   2.069   0.904  59.730 -1.9092  0.9721 -1.0121
   33POPC   C35 4466   2.265   0.987  59.791  0.1240 -0.4160  0.7163
   33POPC   H5X 4467   2.323   1.080  59.776 -2.1508  0.9000 -0.4321
   33POPC   H5Y 4468   2.322   0.894  59.771  3.8916  2.0489 -0.9698
   33POPC   C36 4469   2.231   0.981  59.946  1.2072 -0.1243 -0.5418
   33POPC   H6X 4470   2.169   0.899  59.988  0.0008  1.8277  1.6727
   33POPC   H6Y 4471   2.164   1.068  59.964 -0.4632 -1.3759 -0.4018
   33POPC   C37 4472   2.361   0.993  60.028 -0.9033 -0.8007 -0.1441
   33POPC   H7X 4473   2.438   1.054  59.976 -1.7010  0.4976  0.1490
   33POPC   H7Y 4474   2.406   0.892  60.038  1.8414  0.1719 -1.6876
   33POPC   C38 4475   2.348   1.069  60.163 -0.3063  0.4842 -0.1989
   33POPC   H8X 4476   2.248   1.067  60.212 -0.9448  0.4976 -1.4380
   33POPC   H8Y 4477   2.374   1.176  60.149 -0.2478  0.3496 -1.2278
   33POPC   C39 4478   2.446   1.008  60.271 -0.2343 -0.0506 -0.8296
   33POPC   H9X 4479   2.536   0.970  60.220  0.5672  3.8279 -2.6586
   33POPC   H9Y 4480   2.395   0.928  60.329 -0.2948  1.5801  1.5419
   33POPC  C310 4481   2.468   1.114  60.385  0.6301  0.8013 -0.0322
   33POPC  H10X 4482   2.507   1.059  60.473 -2.0308 -4.2905 -1.6305
   33POPC  H10Y 4483   2.366   1.154  60.406 -1.7763 -4.4816 -0.1516
   33POPC  C311 4484   2.567   1.225  60.347 -0.0158 -0.5425  0.5331
   33POPC  H11X 4485   2.513   1.313  60.306  2.2248  1.1901  1.0970
   33POPC  H11Y 4486   2.634   1.182  60.270  1.3729  0.3860  1.1765
   33POPC  C312 4487   2.648   1.281  60.469 -0.9338 -0.2167 -0.0875
   33POPC  H12X 4488   2.727   1.340  60.417 -0.9613 -1.2878 -1.4118
   33POPC  H12Y 4489   2.700   1.190  60.507 -0.5590  0.6986  1.7016
   33POPC  C313 4490   2.581   1.362  60.577 -0.1848 -0.2020  0.0758
   33POPC  H13X 4491   2.504   1.306  60.635  0.8169 -3.1807 -1.2864
   33POPC  H13Y 4492   2.535   1.442  60.515 -1.0611 -1.4138 -0.9002
   33POPC  C314 4493   2.684   1.419  60.679  0.9995 -0.0564 -0.2460
   33POPC  H14X 4494   2.741   1.334  60.721 -1.0340 -1.2992  0.1072
   33POPC  H14Y 4495   2.625   1.465  60.762 -0.4532 -3.1100  0.5343
   33POPC  C315 4496   2.785   1.527  60.632  0.1795  0.9221  0.1043
   33POPC  H15X 4497   2.803   1.511  60.524  2.5139  1.4586  0.3708
   33POPC  H15Y 4498   2.876   1.519  60.696 -0.0813 -4.0211  0.1948
   33POPC  C316 4499   2.715   1.664  60.633 -0.9051  0.4430 -0.1948
   33POPC  H16X 4500   2.622   1.666  60.572 -2.4879 -2.1243  1.9569
   33POPC  H16Y 4501   2.779   1.750  60.602 -0.1510 -0.5523 -1.4980
   33POPC  H16Z 4502   2.674   1.684  60.734 -2.4434  1.7761 -1.0266
   34POPC     N 4503   0.926   2.111  73.977  0.3965 -0.9864 -0.3921
   34POPC   C12 4504   1.015   2.219  73.946 -0.1209  0.7274  0.2233
   34POPC  H12A 4505   1.092   2.213  74.022 -1.5245 -0.7170  1.5860
   34POPC  H12B 4506   0.961   2.312  73.952 -3.3600 -0.9114 -1.3218
   34POPC   C13 4507   0.810   2.118  73.875  0.6991 -0.2486 -0.4071
   34POPC  H13A 4508   0.753   2.207  73.895  1.2106  0.3936 -1.7028
   34POPC  H13B 4509   0.835   2.123  73.770 -3.0273  0.8427 -1.4069
   34POPC  H13C 4510   0.747   2.030  73.881 -0.9904  0.8250 -1.5182
   34POPC   C14 4511   0.982   1.980  73.968 -0.5922  0.2990  0.3529
   34POPC  H14A 4512   1.046   1.956  74.052  2.1920  0.3186 -1.6089
   34POPC  H14B 4513   0.903   1.908  73.954 -0.1510 -0.3096  0.8995
   34POPC  H14C 4514   1.033   1.957  73.875 -1.0234 -2.1759  0.6583
   34POPC   C15 4515   0.860   2.135  74.111  0.1048  0.1211  0.7797
   34POPC  H15A 4516   0.776   2.201  74.097  0.4182  0.4840  0.5872
   34POPC  H15B 4517   0.922   2.173  74.190  0.0552  0.8040  0.4908
   34POPC  H15C 4518   0.824   2.038  74.143  1.9811 -0.7636  0.3868
   34POPC   C11 4519   1.090   2.233  73.808  0.6082 -0.2616  0.0314
   34POPC  H11A 4520   1.125   2.337  73.790 -3.2160  0.8699 -1.7979
   34POPC  H11B 4521   1.015   2.206  73.731  2.0257 -2.0259 -0.7941
   34POPC     P 4522   1.273   2.097  73.674 -0.1521 -0.3201  0.2009
   34POPC   O13 4523   1.227   1.968  73.623 -0.2202 -0.0527 -0.0735
   34POPC   O14 4524   1.414   2.114  73.707  0.0336  0.2318  0.1602
   34POPC   O12 4525   1.197   2.138  73.806  0.1454  0.5666  1.0964
   34POPC   O11 4526   1.232   2.218  73.579  0.1590  1.0584  0.2585
   34POPC    C1 4527   1.307   2.328  73.543  0.0632 -0.1956  0.4675
   34POPC    HA 4528   1.401   2.284  73.504  0.2006 -0.8420  1.4790
   34POPC    HB 4529   1.338   2.397  73.624  2.0875  3.5052 -3.0993
   34POPC    C2 4530   1.241   2.429  73.448 -0.3707  0.1299  0.2054
   34POPC    HS 4531   1.159   2.479  73.503  0.3378  2.5322 -0.7892
   34POPC   O21 4532   1.177   2.357  73.337 -0.5155  0.1255  0.1978
   34POPC   C21 4533   1.061   2.403  73.293 -0.1872  0.4164  0.4518
   34POPC   O22 4534   0.989   2.488  73.343  0.7793  0.0487 -0.0637
   34POPC   C22 4535   1.027   2.333  73.162  0.7242  0.6665 -0.0158
   34POPC   H2R 4536   1.025   2.225  73.188 -3.1850  0.2623 -1.3073
   34POPC   H2S 4537   1.107   2.343  73.086  0.7296 -0.7475 -0.2319
   34POPC    C3 4538   1.343   2.536  73.397 -0.4412  0.5613  0.2418
   34POPC    HX 4539   1.440   2.490  73.369 -0.8893  0.5359 -1.3761
   34POPC    HY 4540   1.371   2.602  73.483  0.7755  0.0783  0.2349
   34POPC   O31 4541   1.288   2.617  73.289 -0.1341  0.2877 -0.1377
   34POPC   C31 4542   1.209   2.717  73.327 -0.6216 -0.0537  0.0419
   34POPC   O32 4543   1.174   2.739  73.443 -0.0847  0.2618 -0.0572
   34POPC   C32 4544   1.167   2.806  73.213  0.2478  0.3266  0.0741
   34POPC   H2X 4545   1.248   2.808  73.137 -1.2849 -1.6789 -1.7044
   34POPC   H2Y 4546   1.161   2.905  73.263  2.3917 -0.0976  1.2909
   34POPC   C23 4547   0.892   2.385  73.095  0.6359  0.0829 -0.4021
   34POPC   H3R 4548   0.880   2.494  73.111 -0.8604  0.0259 -0.9572
   34POPC   H3S 4549   0.816   2.323  73.146  2.0686  0.2103  2.0601
   34POPC   C24 4550   0.889   2.346  72.945  0.7346 -0.7987 -0.9787
   34POPC   H4R 4551   0.905   2.236  72.941  2.7884 -0.9763  4.1887
   34POPC   H4S 4552   0.968   2.400  72.888  4.2599 -1.9199  2.3630
   34POPC   C25 4553   0.758   2.401  72.877  1.2057  0.1687  0.2398
   34POPC   H5R 4554   0.781   2.407  72.769 -2.5668  1.7521 -0.6394
   34POPC   H5S 4555   0.735   2.499  72.923 -2.4136 -1.1084  1.5383
   34POPC   C26 4556   0.633   2.308  72.899 -0.4975 -0.0423  0.4544
   34POPC   H6R 4557   0.553   2.344  72.968 -1.7539 -2.0268  0.1199
   34POPC   H6S 4558   0.669   2.211  72.938  2.6730  0.6069 -0.5743
   34POPC   C27 4559   0.554   2.301  72.772  0.1495 -0.7453  0.6648
   34POPC   H7R 4560   0.627   2.278  72.691  0.8827 -0.1308  1.1317
   34POPC   H7S 4561   0.522   2.406  72.753 -1.2746 -0.4230  4.1499
   34POPC   C28 4562   0.429   2.217  72.766 -0.5768 -0.0297  0.6431
   34POPC   H8R 4563   0.369   2.251  72.853 -0.6152  1.3894  0.0880
   34POPC   H8S 4564   0.442   2.108  72.782 -0.4126 -0.1117 -0.0379
   34POPC   C29 4565   0.349   2.246  72.648 -0.0599 -0.2379  0.4909
   34POPC   H91 4566   0.288   2.337  72.656 -1.2579 -1.0952  1.3413
   34POPC  C210 4567   0.314   2.168  72.547 -0.2020  0.1001  0.1921
   34POPC  H101 4568   0.247   2.208  72.469  1.2959 -0.0372 -1.2207
   34POPC  C211 4569   0.362   2.030  72.538 -0.4012  0.0577  0.2784
   34POPC  H11R 4570   0.286   1.964  72.586 -1.5973  2.5044  1.9422
   34POPC  H11S 4571   0.457   2.011  72.593 -1.4478 -1.7305  1.5627
   34POPC  C212 4572   0.388   1.984  72.397  0.9790  0.7605  0.7690
   34POPC  H12R 4573   0.430   1.882  72.385 -3.6908 -1.4999  1.3938
   34POPC  H12S 4574   0.456   2.054  72.345  1.3863  1.4162  2.1417
   34POPC  C213 4575   0.264   1.975  72.306  0.0611  0.1093 -0.5332
   34POPC  H13R 4576   0.212   2.070  72.330  0.9315  0.7190 -1.0101
   34POPC  H13S 4577   0.206   1.885  72.337  0.1161 -0.7295 -2.7092
   34POPC  C214 4578   0.281   1.950  72.157 -0.3853  0.1322  0.3546
   34POPC  H14R 4579   0.332   1.852  72.145  0.9395  1.0225 -2.0503
   34POPC  H14S 4580   0.340   2.033  72.112 -0.1226 -0.2153  0.0501
   34POPC  C215 4581   0.147   1.933  72.080  0.3883  0.2789  0.1991
   34POPC  H15R 4582   0.054   1.889  72.124 -0.5519 -0.7592 -2.5781
   34POPC  H15S 4583   0.178   1.887  71.983  1.8987  1.7281 -0.0368
   34POPC  C216 4584   0.081   2.068  72.030 -1.1265  0.7257  0.3719
   34POPC  H16R 4585   0.142   2.101  71.944 -0.0372 -2.8894 -0.4029
   34POPC  H16S 4586   0.072   2.141  72.114 -0.7028  0.7063  0.4441
   34POPC  C217 4587  -0.060   2.050  71.990  0.0428 -0.4935  0.3124
   34POPC  H17R 4588  -0.123   2.135  71.957 -0.5001 -0.6769  0.8558
   34POPC  H17S 4589  -0.114   2.013  72.080 -1.2628 -0.1287 -0.2924
   34POPC  C218 4590  -0.085   1.943  71.885 -0.2628  0.5620 -0.1408
   34POPC  H18R 4591  -0.104   1.848  71.940  1.2870 -0.1443 -0.7791
   34POPC  H18S 4592   0.006   1.920  71.826  0.7300 -0.0340  1.5487
   34POPC  H18T 4593  -0.170   1.968  71.818  1.0751 -0.7514 -2.4351
   34POPC   C33 4594   1.037   2.741  73.152  0.2340  0.0042 -0.4488
   34POPC   H3X 4595   0.975   2.710  73.238  1.0470 -0.8326 -0.1485
   34POPC   H3Y 4596   1.067   2.652  73.092  0.0727 -0.2729 -0.1306
   34POPC   C34 4597   0.954   2.824  73.053 -0.1450  0.0922 -0.0751
   34POPC   H4X 4598   1.031   2.858  72.980 -0.0272 -1.6448 -0.8105
   34POPC   H4Y 4599   0.916   2.909  73.113  0.3497 -0.1743  0.6340
   34POPC   C35 4600   0.838   2.760  72.984  0.5696  0.3147  0.0015
   34POPC   H5X 4601   0.759   2.726  73.054 -1.8482  2.7992 -1.3442
   34POPC   H5Y 4602   0.880   2.676  72.924  0.9378 -1.2693  2.3130
   34POPC   C36 4603   0.754   2.859  72.897 -0.4947  0.0585  0.5839
   34POPC   H6X 4604   0.826   2.916  72.834 -0.2087 -0.6631  0.2392
   34POPC   H6Y 4605   0.715   2.931  72.971 -0.3169  1.4284 -0.6078
   34POPC   C37 4606   0.653   2.783  72.810  1.1671 -0.5860 -0.4419
   34POPC   H7X 4607   0.593   2.868  72.771  2.7011  0.4292 -0.6790
   34POPC   H7Y 4608   0.595   2.711  72.871  0.6691 -0.1196 -0.3566
   34POPC   C38 4609   0.731   2.719  72.690 -0.5325 -0.6281  0.1203
   34POPC   H8X 4610   0.791   2.640  72.739  1.9775  0.6819 -0.6654
   34POPC   H8Y 4611   0.800   2.796  72.649 -1.6468 -1.4771 -3.7842
   34POPC   C39 4612   0.639   2.677  72.584 -0.4801  0.8899 -0.9124
   34POPC   H9X 4613   0.618   2.775  72.536  1.8007  1.6029 -0.5434
   34POPC   H9Y 4614   0.542   2.640  72.624  0.1100  0.4018  0.1072
   34POPC  C310 4615   0.678   2.572  72.489  0.2529 -0.1730 -0.5053
   34POPC  H10X 4616   0.717   2.485  72.545  0.4487  1.4265  1.9942
   34POPC  H10Y 4617   0.757   2.616  72.424 -2.3484  3.3455 -1.6101
   34POPC  C311 4618   0.560   2.514  72.413 -0.8494  0.7617  0.6414
   34POPC  H11X 4619   0.486   2.476  72.487  0.4156 -0.8064  1.1669
   34POPC  H11Y 4620   0.605   2.433  72.352 -2.9872  0.4581 -0.6281
   34POPC  C312 4621   0.486   2.612  72.325  0.0627  0.2870 -0.4574
   34POPC  H12X 4622   0.561   2.658  72.257  1.6065 -1.6055 -0.1228
   34POPC  H12Y 4623   0.443   2.694  72.387  0.2268  2.3940 -2.9500
   34POPC  C313 4624   0.364   2.555  72.247 -0.0856 -0.2649  0.5846
   34POPC  H13X 4625   0.314   2.640  72.197  1.0177 -0.0731 -0.2507
   34POPC  H13Y 4626   0.289   2.517  72.320 -0.8182  0.4426  0.2015
   34POPC  C314 4627   0.409   2.463  72.130  0.0066  0.3952  1.4351
   34POPC  H14X 4628   0.467   2.380  72.176 -0.5882 -0.8956 -0.0404
   34POPC  H14Y 4629   0.477   2.518  72.061  1.8894  0.1899  3.0158
   34POPC  C315 4630   0.290   2.413  72.040  0.3547 -0.6901 -0.1917
   34POPC  H15X 4631   0.221   2.500  72.029 -0.6139 -0.3308  5.4682
   34POPC  H15Y 4632   0.252   2.334  72.107  0.7240  1.0857  2.2696
   34POPC  C316 4633   0.335   2.357  71.914 -0.2029 -0.5156  0.1378
   34POPC  H16X 4634   0.405   2.273  71.930 -0.1264 -0.1209  2.2278
   34POPC  H16Y 4635   0.380   2.429  71.843 -0.9359  0.0564  0.2414
   34POPC  H16Z 4636   0.247   2.311  71.865  1.5869 -2.1336 -1.7341
   35POPC     N 4637   0.872   1.820  69.177  0.6690  0.7932  0.1375
   35POPC   C12 4638   0.787   1.944  69.202  0.0134 -0.1262  0.2935
   35POPC  H12A 4639   0.704   1.908  69.262  0.4198 -0.6877  0.5354
   35POPC  H12B 4640   0.737   1.980  69.114  0.4452  0.4853  0.2941
   35POPC   C13 4641   0.811   1.726  69.082 -0.4120 -0.1629 -0.5077
   35POPC  H13A 4642   0.733   1.668  69.130 -0.7189  0.4387 -0.2774
   35POPC  H13B 4643   0.779   1.781  68.995  0.6778 -0.1800 -0.9358
   35POPC  H13C 4644   0.882   1.652  69.049 -0.7460 -2.1550  2.7641
   35POPC   C14 4645   1.005   1.863  69.122  0.1656  0.4529  0.5349
   35POPC  H14A 4646   1.062   1.906  69.203 -1.0081 -0.0365  1.6507
   35POPC  H14B 4647   1.063   1.777  69.094 -2.8668 -1.5500 -0.0193
   35POPC  H14C 4648   0.992   1.941  69.048  1.7314  4.2748  3.8953
   35POPC   C15 4649   0.893   1.739  69.302  0.2669 -0.8800 -0.3526
   35POPC  H15A 4650   0.970   1.669  69.274  1.5633  0.4272 -0.2053
   35POPC  H15B 4651   0.803   1.694  69.341 -1.0363  0.8748 -1.1661
   35POPC  H15C 4652   0.947   1.790  69.381 -0.6502 -0.6363  0.1312
   35POPC   C11 4653   0.846   2.062  69.285 -0.0744  0.2845  0.9401
   35POPC  H11A 4654   0.924   2.125  69.237 -0.2068  0.1858  0.5967
   35POPC  H11B 4655   0.906   2.025  69.371  0.1236  1.2178  1.2213
   35POPC     P 4656   0.664   2.097  69.468 -0.4090  0.1985  0.6017
   35POPC   O13 4657   0.647   1.954  69.456  0.3659  0.9144  0.5161
   35POPC   O14 4658   0.540   2.187  69.479 -0.0633  0.1010  0.1446
   35POPC   O12 4659   0.736   2.143  69.335  0.0249 -0.7923 -0.0644
   35POPC   O11 4660   0.774   2.113  69.571  0.7000 -0.4643 -0.8591
   35POPC    C1 4661   0.874   2.208  69.569 -0.2381  0.2115  0.2091
   35POPC    HA 4662   0.841   2.300  69.622  4.3209  1.2708  1.7260
   35POPC    HB 4663   0.890   2.244  69.465 -2.8839  0.0056 -0.3261
   35POPC    C2 4664   1.004   2.150  69.632  0.1474  0.6184 -0.6209
   35POPC    HS 4665   1.053   2.224  69.698 -1.6921  0.5547  0.8919
   35POPC   O21 4666   1.095   2.114  69.538  0.2250 -0.1696 -0.3003
   35POPC   C21 4667   1.172   2.210  69.478 -0.3760  0.5923 -0.1170
   35POPC   O22 4668   1.159   2.329  69.505  0.1175  0.7128  0.3346
   35POPC   C22 4669   1.280   2.136  69.401 -0.1447  0.7752 -1.0780
   35POPC   H2R 4670   1.235   2.073  69.321 -0.1631  0.1552 -0.5844
   35POPC   H2S 4671   1.336   2.066  69.466  1.2951  0.2843 -2.7683
   35POPC    C3 4672   0.972   2.034  69.726  0.0084 -0.8433  0.1692
   35POPC    HX 4673   0.915   1.947  69.688 -0.8685 -0.9434  1.6457
   35POPC    HY 4674   0.893   2.076  69.792 -0.3169  0.0772 -0.7802
   35POPC   O31 4675   1.079   1.976  69.792 -0.4667  0.1135 -0.0854
   35POPC   C31 4676   1.153   1.891  69.726  0.1123  0.1532  0.0211
   35POPC   O32 4677   1.143   1.861  69.608 -0.0489  0.1270  0.3317
   35POPC   C32 4678   1.256   1.835  69.827 -0.6343 -0.4369 -0.8658
   35POPC   H2X 4679   1.193   1.802  69.912 -1.5708  1.0759 -0.9416
   35POPC   H2Y 4680   1.308   1.926  69.863 -0.9150  0.2718 -2.1815
   35POPC   C23 4681   1.379   2.218  69.313 -0.4791 -0.1493  0.6775
   35POPC   H3R 4682   1.345   2.311  69.263  4.5235  0.4786 -2.1807
   35POPC   H3S 4683   1.413   2.156  69.227 -2.9377 -2.2866  1.1021
   35POPC   C24 4684   1.504   2.235  69.401  0.2041 -0.7062  0.0003
   35POPC   H4R 4685   1.493   2.182  69.498  0.1488  0.0977  0.4408
   35POPC   H4S 4686   1.508   2.341  69.434 -2.1700 -1.0116  1.5135
   35POPC   C25 4687   1.641   2.190  69.348 -0.1069 -0.6165  0.0713
   35POPC   H5R 4688   1.671   2.163  69.245  3.8242  0.2283  0.8261
   35POPC   H5S 4689   1.665   2.103  69.415  0.4018  2.4193  4.2502
   35POPC   C26 4690   1.741   2.297  69.395 -0.7804 -0.4630  0.1305
   35POPC   H6R 4691   1.764   2.323  69.500 -1.7163  0.6340  0.0898
   35POPC   H6S 4692   1.696   2.393  69.361 -2.2688 -0.4753  1.8896
   35POPC   C27 4693   1.876   2.284  69.327  1.0209  0.4601  0.6656
   35POPC   H7R 4694   1.877   2.284  69.216  0.1014  2.9230  0.6002
   35POPC   H7S 4695   1.929   2.192  69.360 -0.0222 -0.4289 -0.0587
   35POPC   C28 4696   1.954   2.407  69.375 -0.3440 -0.1819 -0.3067
   35POPC   H8R 4697   1.947   2.407  69.486  3.3624 -0.1266  0.0315
   35POPC   H8S 4698   1.912   2.504  69.341  1.0290  1.0935  1.4289
   35POPC   C29 4699   2.094   2.395  69.327  1.0440  0.0973  0.3865
   35POPC   H91 4700   2.118   2.431  69.226  1.1923  0.3339  0.5042
   35POPC  C210 4701   2.198   2.340  69.395 -0.0785  1.0463  0.1073
   35POPC  H101 4702   2.291   2.343  69.336 -0.3406  2.1080 -0.2651
   35POPC  C211 4703   2.209   2.289  69.528  1.0458 -0.0606  0.1745
   35POPC  H11R 4704   2.113   2.298  69.584  0.7033  0.0254 -0.4279
   35POPC  H11S 4705   2.285   2.349  69.582  2.9376 -0.9232 -1.4135
   35POPC  C212 4706   2.262   2.143  69.546  0.5051 -0.5781  0.0206
   35POPC  H12R 4707   2.295   2.134  69.651 -1.6315  0.3313  0.8253
   35POPC  H12S 4708   2.356   2.149  69.488  0.6285  1.4928  0.3456
   35POPC  C213 4709   2.175   2.023  69.507  0.8850 -0.3638 -0.2553
   35POPC  H13R 4710   2.243   1.935  69.506  2.3316  0.7184 -0.8002
   35POPC  H13S 4711   2.117   2.037  69.414 -0.3204  0.7962  0.6430
   35POPC  C214 4712   2.061   1.992  69.616  0.0684 -0.3763 -0.2832
   35POPC  H14R 4713   1.998   2.083  69.624 -0.4313 -0.6545 -0.9307
   35POPC  H14S 4714   2.122   1.966  69.705 -1.7824 -3.2273  0.2904
   35POPC  C215 4715   1.979   1.867  69.592  0.6341  0.4320 -0.1491
   35POPC  H15R 4716   1.952   1.825  69.691  0.0977 -0.1214 -0.5205
   35POPC  H15S 4717   2.045   1.790  69.546 -0.2532 -1.1721  1.1465
   35POPC  C216 4718   1.861   1.875  69.491 -0.3935 -0.2183 -0.0011
   35POPC  H16R 4719   1.898   1.924  69.399 -0.4810 -2.7972 -1.5227
   35POPC  H16S 4720   1.799   1.952  69.541  0.1895  1.9191 -2.3649
   35POPC  C217 4721   1.776   1.758  69.466 -0.2577 -0.6765 -0.2678
   35POPC  H17R 4722   1.777   1.717  69.569 -0.9172 -0.2686 -0.0871
   35POPC  H17S 4723   1.831   1.688  69.399  0.5148 -1.1430  0.8303
   35POPC  C218 4724   1.628   1.776  69.411  0.1562 -0.1163 -0.4420
   35POPC  H18R 4725   1.568   1.683  69.426  2.9116 -1.9311  0.0261
   35POPC  H18S 4726   1.631   1.793  69.302 -0.3281 -2.8140 -0.9537
   35POPC  H18T 4727   1.589   1.861  69.472 -0.1412  0.1637 -1.0181
   35POPC   C33 4728   1.368   1.744  69.773 -0.2475 -0.0912 -0.8464
   35POPC   H3X 4729   1.414   1.792  69.685  0.8958  1.7507  0.6894
   35POPC   H3Y 4730   1.334   1.648  69.729 -1.2210  0.9122 -2.3662
   35POPC   C34 4731   1.477   1.720  69.880  0.3694 -0.1418 -0.3926
   35POPC   H4X 4732   1.502   1.819  69.923  1.6442 -0.1201 -1.1092
   35POPC   H4Y 4733   1.567   1.678  69.830  0.0471 -0.2017 -0.9304
   35POPC   C35 4734   1.435   1.621  69.992  1.0815 -0.3756  0.9397
   35POPC   H5X 4735   1.537   1.602  70.033  1.2989 -1.3424 -0.0077
   35POPC   H5Y 4736   1.391   1.528  69.950 -3.0535  2.4308 -1.7016
   35POPC   C36 4737   1.346   1.677  70.110  0.7358  0.6215  0.4935
   35POPC   H6X 4738   1.244   1.636  70.124  0.4724  1.3390  0.7530
   35POPC   H6Y 4739   1.333   1.785  70.085  1.7247  0.5934 -0.2038
   35POPC   C37 4740   1.415   1.666  70.244  0.0952 -0.5543  0.0091
   35POPC   H7X 4741   1.515   1.707  70.222  0.4125 -0.6569  1.2046
   35POPC   H7Y 4742   1.434   1.573  70.302 -0.7730 -0.1637  0.9529
   35POPC   C38 4743   1.339   1.770  70.339  0.2888  0.4858  0.2217
   35POPC   H8X 4744   1.252   1.730  70.396  0.6423 -0.0614  0.3804
   35POPC   H8Y 4745   1.312   1.870  70.300  2.3763  0.9016 -0.2934
   35POPC   C39 4746   1.434   1.812  70.444  0.2391  0.6767  0.1030
   35POPC   H9X 4747   1.513   1.865  70.386  1.0412  2.6517  2.8078
   35POPC   H9Y 4748   1.493   1.723  70.475 -1.5932 -0.1780  1.2909
   35POPC  C310 4749   1.377   1.911  70.545 -0.1537 -0.4240  0.2398
   35POPC  H10X 4750   1.310   1.848  70.609  1.1253 -2.0426  0.0693
   35POPC  H10Y 4751   1.317   1.988  70.492 -1.8664 -0.7835  1.5716
   35POPC  C311 4752   1.465   1.999  70.633 -1.0603 -0.4147  0.1640
   35POPC  H11X 4753   1.394   2.062  70.691 -0.9320  2.3994 -2.4943
   35POPC  H11Y 4754   1.543   2.044  70.568  0.6011 -0.6422  1.9309
   35POPC  C312 4755   1.529   1.924  70.757  1.4463  0.4383 -0.6326
   35POPC  H12X 4756   1.589   1.991  70.822  2.5732 -0.7165 -0.4474
   35POPC  H12Y 4757   1.596   1.853  70.704  0.3275 -1.7094  0.7050
   35POPC  C313 4758   1.427   1.840  70.839 -0.1013 -0.0177 -0.0061
   35POPC  H13X 4759   1.487   1.779  70.909 -1.7272  2.1078  3.4938
   35POPC  H13Y 4760   1.383   1.775  70.761 -0.0824 -1.6904  1.3377
   35POPC  C314 4761   1.330   1.918  70.930 -0.8516 -0.4583  0.1777
   35POPC  H14X 4762   1.254   1.970  70.867 -0.0746  2.8362  1.7122
   35POPC  H14Y 4763   1.385   1.992  70.993 -0.0654 -1.5835  0.8408
   35POPC  C315 4764   1.239   1.822  71.012 -0.1862 -0.5283 -0.2344
   35POPC  H15X 4765   1.283   1.722  71.029 -0.3123 -0.4855  0.3586
   35POPC  H15Y 4766   1.149   1.804  70.949 -1.1056 -0.6996  1.0859
   35POPC  C316 4767   1.196   1.878  71.154 -0.5080 -0.3024  0.4159
   35POPC  H16X 4768   1.143   1.975  71.144  3.3618  2.0419  0.6528
   35POPC  H16Y 4769   1.281   1.909  71.220 -0.7874  1.8280 -0.1450
   35POPC  H16Z 4770   1.132   1.808  71.210 -2.9323  1.9791  0.6916
   36POPC     N 4771   2.388   2.105  73.643  0.6245 -0.4082  0.4089
   36POPC   C12 4772   2.316   2.242  73.656  0.4097 -0.6255  0.3512
   36POPC  H12A 4773   2.383   2.321  73.688 -1.1736  0.8497  0.1547
   36POPC  H12B 4774   2.237   2.238  73.729 -2.5262 -0.0273 -2.5610
   36POPC   C13 4775   2.287   1.995  73.638 -0.1476 -0.2299 -0.0795
   36POPC  H13A 4776   2.229   2.004  73.728  2.2538  3.1359  1.3004
   36POPC  H13B 4777   2.222   2.001  73.552 -0.7301 -1.3086  0.2623
   36POPC  H13C 4778   2.331   1.896  73.637 -0.3562 -0.4229  2.7504
   36POPC   C14 4779   2.469   2.100  73.527  0.3770  0.5724 -0.2455
   36POPC  H14A 4780   2.424   2.123  73.431  0.3403  2.4803  0.2063
   36POPC  H14B 4781   2.556   2.161  73.545 -0.5355  2.6254 -2.2771
   36POPC  H14C 4782   2.497   1.996  73.516  0.3666  0.6026 -0.5610
   36POPC   C15 4783   2.471   2.080  73.766 -0.0397 -0.4077  0.3443
   36POPC  H15A 4784   2.553   2.150  73.765 -1.0987  0.9255 -1.5609
   36POPC  H15B 4785   2.515   1.983  73.751  0.2022 -0.2954  0.3166
   36POPC  H15C 4786   2.408   2.074  73.853 -1.2969 -0.8674 -0.5727
   36POPC   C11 4787   2.239   2.298  73.539 -0.4731  0.1384 -0.2158
   36POPC  H11A 4788   2.283   2.296  73.437 -1.0358 -1.1868 -0.4524
   36POPC  H11B 4789   2.232   2.409  73.545 -2.3532  0.0217  0.3746
   36POPC     P 4790   2.029   2.182  73.430 -0.0984  0.0525  0.3906
   36POPC   O13 4791   1.895   2.242  73.439  0.0416 -0.0479 -0.2367
   36POPC   O14 4792   2.042   2.039  73.421 -0.6341  0.1968 -0.1773
   36POPC   O12 4793   2.111   2.245  73.550  0.3240  0.2286  0.1310
   36POPC   O11 4794   2.098   2.236  73.293  0.3416 -0.0434 -0.3356
   36POPC    C1 4795   2.072   2.373  73.250 -0.0027  0.3000  0.0984
   36POPC    HA 4796   2.159   2.413  73.193  0.1475 -1.7970 -1.2967
   36POPC    HB 4797   2.065   2.437  73.340  1.6421  0.2615  0.2767
   36POPC    C2 4798   1.953   2.376  73.154 -0.0720  0.8653  0.0476
   36POPC    HS 4799   1.862   2.333  73.202  0.0819 -0.0887 -0.4889
   36POPC   O21 4800   1.982   2.303  73.036 -0.2709  0.7923  0.3810
   36POPC   C21 4801   1.884   2.227  72.984 -0.6103  0.8722 -0.6535
   36POPC   O22 4802   1.780   2.198  73.041  0.6985 -0.4734  0.2607
   36POPC   C22 4803   1.926   2.164  72.853 -0.5698 -0.6165  0.9584
   36POPC   H2R 4804   1.960   2.059  72.862 -0.0256 -0.3857  1.6366
   36POPC   H2S 4805   2.014   2.218  72.813  1.0411 -2.6585  1.5755
   36POPC    C3 4806   1.905   2.524  73.115  0.9601  0.2324 -0.2570
   36POPC    HX 4807   1.983   2.585  73.063 -1.5176  3.4074 -0.5063
   36POPC    HY 4808   1.875   2.573  73.210 -1.9167 -0.9906 -0.4459
   36POPC   O31 4809   1.791   2.509  73.027  0.2427  0.5814 -0.4359
   36POPC   C31 4810   1.671   2.490  73.081  0.3610 -0.0835 -0.3667
   36POPC   O32 4811   1.644   2.483  73.199 -0.4721  0.2387 -0.1699
   36POPC   C32 4812   1.572   2.460  72.967 -0.0589 -1.0644  0.0601
   36POPC   H2X 4813   1.590   2.355  72.933 -0.4127 -0.8912 -0.6941
   36POPC   H2Y 4814   1.591   2.537  72.889  0.7194 -1.0040  0.3066
   36POPC   C23 4815   1.800   2.145  72.767  0.0996 -0.0554  0.9982
   36POPC   H3R 4816   1.712   2.102  72.819 -1.0767 -1.0826 -1.6340
   36POPC   H3S 4817   1.814   2.069  72.687  1.9293 -0.1245  1.3301
   36POPC   C24 4818   1.766   2.281  72.691  0.4604 -0.4080  0.6270
   36POPC   H4R 4819   1.843   2.297  72.612 -0.3130  3.0908  0.4405
   36POPC   H4S 4820   1.777   2.354  72.774 -0.9215 -0.2810  0.7063
   36POPC   C25 4821   1.634   2.282  72.612  0.2470 -0.2531 -0.3965
   36POPC   H5R 4822   1.560   2.250  72.688  0.9109 -1.6059 -0.2941
   36POPC   H5S 4823   1.639   2.208  72.529  1.6823 -0.2031 -0.3867
   36POPC   C26 4824   1.596   2.415  72.546 -0.0012 -0.5662  0.6561
   36POPC   H6R 4825   1.682   2.462  72.493  2.1022 -1.8619  2.6806
   36POPC   H6S 4826   1.586   2.481  72.635  1.7773  2.0831 -0.9724
   36POPC   C27 4827   1.469   2.428  72.452  0.1981  0.0803 -0.2087
   36POPC   H7R 4828   1.463   2.537  72.430  1.3826  0.2089  0.0395
   36POPC   H7S 4829   1.381   2.405  72.516 -1.8835 -1.7299 -3.4308
   36POPC   C28 4830   1.459   2.336  72.329 -0.0973  0.4276 -0.1867
   36POPC   H8R 4831   1.350   2.325  72.311  0.1614 -0.7274 -1.1680
   36POPC   H8S 4832   1.481   2.230  72.355 -0.5649  0.9318  2.5105
   36POPC   C29 4833   1.550   2.383  72.212 -0.2370 -0.2243 -0.4545
   36POPC   H91 4834   1.657   2.360  72.215 -0.5646 -1.8073  0.9616
   36POPC  C210 4835   1.504   2.447  72.100 -0.1586 -0.9566  0.0386
   36POPC  H101 4836   1.560   2.452  72.006  0.8641 -1.3271  0.6046
   36POPC  C211 4837   1.353   2.486  72.098 -0.1679 -0.4319 -0.4347
   36POPC  H11R 4838   1.355   2.596  72.105  3.8594 -0.2821 -1.3406
   36POPC  H11S 4839   1.283   2.455  72.178 -3.2154 -0.0108 -2.7496
   36POPC  C212 4840   1.276   2.432  71.978  0.4630 -0.6853 -0.6013
   36POPC  H12R 4841   1.168   2.459  71.979 -0.0072 -2.4355 -0.0956
   36POPC  H12S 4842   1.267   2.321  71.983 -1.8359 -0.5191 -0.1046
   36POPC  C213 4843   1.323   2.482  71.839 -0.0778 -0.5737  0.1016
   36POPC  H13R 4844   1.424   2.437  71.831  0.2147 -0.9446  3.9999
   36POPC  H13S 4845   1.333   2.593  71.840 -0.9171 -0.4646  2.3866
   36POPC  C214 4846   1.231   2.433  71.732 -0.3923 -0.5252  0.3579
   36POPC  H14R 4847   1.123   2.445  71.755  0.0558  0.9448  1.9016
   36POPC  H14S 4848   1.220   2.323  71.729 -2.6541 -0.3846  1.0807
   36POPC  C215 4849   1.260   2.482  71.593  0.3518 -0.3420 -0.0480
   36POPC  H15R 4850   1.349   2.429  71.551 -1.1969 -1.6154 -1.8961
   36POPC  H15S 4851   1.274   2.592  71.600 -1.8784 -0.0559  0.6814
   36POPC  C216 4852   1.137   2.457  71.501 -0.3784 -0.4295  0.2092
   36POPC  H16R 4853   1.055   2.514  71.549  1.5906  2.1511  0.7610
   36POPC  H16S 4854   1.120   2.347  71.499  0.2446 -0.5393  0.7560
   36POPC  C217 4855   1.159   2.494  71.355  0.2426  0.5440 -0.7670
   36POPC  H17R 4856   1.231   2.433  71.298  1.1075  0.8674 -0.0395
   36POPC  H17S 4857   1.192   2.600  71.358 -2.3228  1.4178  1.9509
   36POPC  C218 4858   1.027   2.503  71.267  0.1243 -0.3080 -0.2063
   36POPC  H18R 4859   0.943   2.569  71.298 -0.8519  1.0192 -4.8467
   36POPC  H18S 4860   0.997   2.396  71.267 -0.3543 -0.2115  1.9815
   36POPC  H18T 4861   1.042   2.520  71.158 -0.1068 -0.0758 -0.2060
   36POPC   C33 4862   1.425   2.466  73.015  0.4645 -0.2951 -0.2587
   36POPC   H3X 4863   1.414   2.469  73.125  0.4061  0.4046 -0.2758
   36POPC   H3Y 4864   1.373   2.378  72.973 -0.8196  0.1359  0.3732
   36POPC   C34 4865   1.343   2.580  72.955 -0.7361  0.3853 -0.1299
   36POPC   H4X 4866   1.406   2.671  72.968 -0.2823  0.1747 -0.7850
   36POPC   H4Y 4867   1.254   2.593  73.021 -0.9697 -0.3944 -0.2782
   36POPC   C35 4868   1.282   2.563  72.808 -0.1829 -0.0719  0.2400
   36POPC   H5X 4869   1.259   2.454  72.799  0.4927 -0.1940 -0.0479
   36POPC   H5Y 4870   1.358   2.583  72.730  0.6639  4.8007  2.0301
   36POPC   C36 4871   1.150   2.634  72.789  0.2745  0.0584 -0.4440
   36POPC   H6X 4872   1.169   2.743  72.791 -1.6162  0.4219  0.4772
   36POPC   H6Y 4873   1.093   2.607  72.880  0.5114 -0.3928 -0.4316
   36POPC   C37 4874   1.080   2.591  72.663  0.1020 -0.1568  0.1318
   36POPC   H7X 4875   0.977   2.632  72.651 -0.3970 -1.1077  0.9822
   36POPC   H7Y 4876   1.094   2.481  72.663  2.3352  0.0828 -0.6711
   36POPC   C38 4877   1.149   2.646  72.537  0.1026 -0.3460  0.3389
   36POPC   H8X 4878   1.236   2.580  72.515 -0.5813 -0.2961 -2.8709
   36POPC   H8Y 4879   1.173   2.753  72.551 -3.3091  0.3337  2.1757
   36POPC   C39 4880   1.065   2.622  72.411  0.7599 -0.5653  0.8603
   36POPC   H9X 4881   0.960   2.641  72.440  1.1017  1.5424  0.8664
   36POPC   H9Y 4882   1.071   2.514  72.384  0.3195 -0.2111 -0.7803
   36POPC  C310 4883   1.088   2.714  72.297  0.3936  0.7840  1.1169
   36POPC  H10X 4884   1.191   2.686  72.264 -1.5044 -3.5389 -2.1826
   36POPC  H10Y 4885   1.083   2.816  72.340  2.8563  1.0441  0.9570
   36POPC  C311 4886   0.994   2.695  72.175 -0.3873  0.0779  0.0947
   36POPC  H11X 4887   0.893   2.720  72.215 -0.8544 -1.8889  0.2721
   36POPC  H11Y 4888   0.974   2.592  72.138 -2.0443  0.6241 -0.6180
   36POPC  C312 4889   1.027   2.787  72.063 -0.1050  0.5542  0.7823
   36POPC  H12X 4890   1.131   2.790  72.024 -0.4832 -1.1468 -0.4909
   36POPC  H12Y 4891   0.998   2.885  72.105 -4.2609 -1.4297  3.1445
   36POPC  C313 4892   0.944   2.782  71.936  0.3876 -0.0548 -0.4784
   36POPC  H13X 4893   0.963   2.872  71.873 -0.7717  1.1248  0.7938
   36POPC  H13Y 4894   0.835   2.795  71.952  0.4279  0.1717 -0.3724
   36POPC  C314 4895   0.979   2.665  71.836  0.9364 -0.0986 -0.0153
   36POPC  H14X 4896   0.985   2.578  71.905 -1.0370  1.3279  2.1147
   36POPC  H14Y 4897   1.076   2.684  71.786  1.3556 -0.1948  0.7559
   36POPC  C315 4898   0.873   2.657  71.721  0.7349 -0.1333 -0.5056
   36POPC  H15X 4899   0.771   2.653  71.764  0.9873 -0.1021  0.1082
   36POPC  H15Y 4900   0.878   2.561  71.665 -1.9795  2.3293 -5.7163
   36POPC  C316 4901   0.875   2.774  71.617  0.1122 -0.6370  0.0758
   36POPC  H16X 4902   0.859   2.873  71.663 -0.8886  0.2018 -1.9520
   36POPC  H16Y 4903   0.800   2.751  71.539  1.6158 -0.9284 -1.3299
   36POPC  H16Z 4904   0.974   2.784  71.568 -0.8132  0.4178 -1.6628
   37POPC     N 4905   1.921   1.640  47.529 -0.8905 -0.3203 -0.0484
   37POPC   C12 4906   1.827   1.579  47.427 -0.0034  0.1137 -0.1671
   37POPC  H12A 4907   1.827   1.653  47.348  1.6322  1.3605  0.9334
   37POPC  H12B 4908   1.725   1.578  47.461 -0.6858 -2.1020 -1.9730
   37POPC   C13 4909   2.052   1.664  47.461 -0.4074  0.6782 -0.4129
   37POPC  H13A 4910   2.092   1.576  47.414 -2.2850 -0.0196 -0.7738
   37POPC  H13B 4911   2.042   1.740  47.386  0.7289 -0.4876 -1.7984
   37POPC  H13C 4912   2.126   1.696  47.533 -1.3333  0.3912  0.6890
   37POPC   C14 4913   1.881   1.784  47.570  0.3092 -0.3336  0.6629
   37POPC  H14A 4914   1.962   1.853  47.590  1.4855 -1.9911  1.9142
   37POPC  H14B 4915   1.821   1.821  47.488  0.8143 -0.4977  0.2091
   37POPC  H14C 4916   1.820   1.784  47.659  0.2011 -2.4597  0.6323
   37POPC   C15 4917   1.932   1.571  47.661  0.0456  0.8806  0.3148
   37POPC  H15A 4918   1.835   1.577  47.707  0.7037 -0.5845  2.0451
   37POPC  H15B 4919   1.993   1.614  47.739 -0.0207 -1.5153  1.8159
   37POPC  H15C 4920   1.943   1.463  47.660 -2.7888  0.4384  2.5347
   37POPC   C11 4921   1.859   1.440  47.379  0.6335  0.3898  0.5281
   37POPC  H11A 4922   1.953   1.430  47.321 -0.9915  0.4850 -2.3159
   37POPC  H11B 4923   1.783   1.407  47.304  0.7390  0.8023  0.2371
   37POPC     P 4924   1.737   1.260  47.526 -0.0407  0.0691 -0.1258
   37POPC   O13 4925   1.658   1.333  47.624 -0.8743  0.0004  0.2607
   37POPC   O14 4926   1.782   1.120  47.565 -0.0237 -0.0419  0.4657
   37POPC   O12 4927   1.864   1.341  47.482  0.3470 -1.0241 -0.8699
   37POPC   O11 4928   1.658   1.235  47.396  0.5197  0.5899  0.1208
   37POPC    C1 4929   1.666   1.121  47.316 -0.0785  0.1916 -0.6967
   37POPC    HA 4930   1.702   1.034  47.376 -2.2106 -0.0480  0.3135
   37POPC    HB 4931   1.738   1.137  47.233 -0.0536 -2.8355 -1.3662
   37POPC    C2 4932   1.524   1.083  47.249 -0.6127  0.4397  0.7619
   37POPC    HS 4933   1.449   1.117  47.324 -0.0175  1.3800  0.9438
   37POPC   O21 4934   1.508   0.942  47.216  0.6540 -0.1162 -0.3253
   37POPC   C21 4935   1.505   0.878  47.332 -0.2498  0.1914  0.6252
   37POPC   O22 4936   1.512   0.928  47.447  0.6747  0.2732 -0.2227
   37POPC   C22 4937   1.478   0.730  47.291 -0.2874 -0.6471  0.3373
   37POPC   H2R 4938   1.538   0.665  47.359  2.8048  4.0479  2.6298
   37POPC   H2S 4939   1.508   0.723  47.184 -1.5048 -0.2269 -0.0593
   37POPC    C3 4940   1.488   1.170  47.122  0.2287 -0.5250  0.0078
   37POPC    HX 4941   1.582   1.161  47.063 -0.4077 -1.8062 -0.8534
   37POPC    HY 4942   1.480   1.277  47.150  2.6919 -0.5612  1.1863
   37POPC   O31 4943   1.379   1.109  47.044  0.3470  0.1561 -0.0329
   37POPC   C31 4944   1.325   1.163  46.939  0.3871 -0.3582  0.7433
   37POPC   O32 4945   1.361   1.263  46.883 -0.0790  0.1435 -1.0148
   37POPC   C32 4946   1.203   1.077  46.888 -0.4968 -0.8426 -0.5900
   37POPC   H2X 4947   1.116   1.082  46.958 -0.0922  0.8253 -0.1652
   37POPC   H2Y 4948   1.240   0.973  46.898 -0.3852 -0.7764 -0.3077
   37POPC   C23 4949   1.336   0.678  47.298  0.8646  0.9881  0.7500
   37POPC   H3R 4950   1.309   0.676  47.406  1.7202  0.9179  0.9716
   37POPC   H3S 4951   1.328   0.569  47.281  0.3031  1.1925 -0.4005
   37POPC   C24 4952   1.243   0.754  47.189 -1.0160 -0.3447  0.4262
   37POPC   H4R 4953   1.291   0.760  47.089 -2.4473 -0.1553 -0.2609
   37POPC   H4S 4954   1.247   0.861  47.216 -3.2160  0.0337 -0.5176
   37POPC   C25 4955   1.094   0.707  47.184 -0.6590 -0.5445  0.9431
   37POPC   H5R 4956   1.053   0.715  47.287  1.6014 -2.2014  2.0676
   37POPC   H5S 4957   1.100   0.601  47.152 -1.1599 -0.4023  0.3790
   37POPC   C26 4958   1.019   0.786  47.074  0.1023 -0.4070  0.1192
   37POPC   H6R 4959   1.054   0.748  46.976 -2.3840  1.2871 -1.5293
   37POPC   H6S 4960   1.032   0.896  47.084 -0.0124 -0.4292  0.5088
   37POPC   C27 4961   0.861   0.764  47.077 -0.6644  0.6028 -1.6729
   37POPC   H7R 4962   0.848   0.711  47.174  1.8128  0.0780 -1.5694
   37POPC   H7S 4963   0.829   0.714  46.983  2.2777 -1.2503 -1.8112
   37POPC   C28 4964   0.798   0.900  47.090  0.7293  0.4524 -0.2895
   37POPC   H8R 4965   0.838   0.952  47.180 -1.5329  0.0104  1.0668
   37POPC   H8S 4966   0.698   0.876  47.131  0.9006 -1.0963 -0.7120
   37POPC   C29 4967   0.772   0.993  46.973  0.2657 -0.0712  0.5144
   37POPC   H91 4968   0.812   1.095  46.977  0.0396 -0.0029  1.2128
   37POPC  C210 4969   0.717   0.968  46.849 -0.5372  0.2967 -0.2104
   37POPC  H101 4970   0.706   1.048  46.775 -0.5216 -1.2329 -1.9515
   37POPC  C211 4971   0.655   0.829  46.809 -0.0508  0.0199 -0.2838
   37POPC  H11R 4972   0.604   0.786  46.898 -0.3929 -0.6167 -0.7778
   37POPC  H11S 4973   0.735   0.754  46.792  0.1369 -0.1292  1.1219
   37POPC  C212 4974   0.565   0.821  46.689 -0.0765 -0.5775 -0.2286
   37POPC  H12R 4975   0.521   0.722  46.668  0.1557 -0.4944 -1.1770
   37POPC  H12S 4976   0.633   0.846  46.604 -0.7325 -0.3605 -0.6965
   37POPC  C213 4977   0.449   0.927  46.703 -0.0315  0.5234 -0.0287
   37POPC  H13R 4978   0.491   1.029  46.699 -0.3123  0.6190 -0.6451
   37POPC  H13S 4979   0.402   0.917  46.804 -3.9621  1.7861 -1.5702
   37POPC  C214 4980   0.340   0.909  46.597  0.9963  0.4735  0.0723
   37POPC  H14R 4981   0.284   0.813  46.590  0.4483  0.6109  1.9030
   37POPC  H14S 4982   0.399   0.923  46.504  0.3879 -1.9959 -0.7473
   37POPC  C215 4983   0.235   1.018  46.601 -0.1790 -0.2142  0.1573
   37POPC  H15R 4984   0.272   1.114  46.643 -2.3564  0.9808 -0.5080
   37POPC  H15S 4985   0.160   1.003  46.682 -1.2261 -1.0817 -0.9449
   37POPC  C216 4986   0.141   1.040  46.482  0.0854 -0.5156  1.1936
   37POPC  H16R 4987   0.075   0.953  46.464 -0.4418  0.3007 -1.2936
   37POPC  H16S 4988   0.199   1.044  46.386 -2.7143  1.9179 -0.5705
   37POPC  C217 4989   0.051   1.161  46.505 -0.7587  0.6392  0.3554
   37POPC  H17R 4990  -0.033   1.157  46.432  0.6852  0.1760 -1.3464
   37POPC  H17S 4991   0.103   1.257  46.482 -1.2562  0.5770 -1.2068
   37POPC  C218 4992  -0.002   1.196  46.644 -0.1689 -0.5010  0.1220
   37POPC  H18R 4993  -0.086   1.135  46.684  0.4263 -1.7483 -0.4509
   37POPC  H18S 4994  -0.038   1.301  46.640  0.8812 -0.1483 -0.3892
   37POPC  H18T 4995   0.081   1.190  46.718  1.2069 -2.1231 -1.4454
   37POPC   C33 4996   1.173   1.089  46.735 -0.6726 -0.2362  0.4811
   37POPC   H3X 4997   1.267   1.101  46.677 -1.1587  0.0252 -0.2673
   37POPC   H3Y 4998   1.114   1.182  46.728  1.2017  1.0342  0.9147
   37POPC   C34 4999   1.092   0.975  46.679  0.1965  0.0347 -0.7268
   37POPC   H4X 5000   1.013   0.959  46.756  0.3680  2.0997 -0.0576
   37POPC   H4Y 5001   1.165   0.892  46.678  1.9820  1.5196 -0.1838
   37POPC   C35 5002   1.037   0.982  46.539  0.6858  0.2856 -0.2786
   37POPC   H5X 5003   0.992   0.885  46.507 -2.9331  1.5953  0.3653
   37POPC   H5Y 5004   1.120   1.020  46.476  1.0309  0.8504  0.4998
   37POPC   C36 5005   0.922   1.081  46.518 -1.1381 -0.0589  0.7212
   37POPC   H6X 5006   0.954   1.177  46.565  0.5394 -0.9935  1.5666
   37POPC   H6Y 5007   0.829   1.047  46.568 -0.2466  0.6459  2.9423
   37POPC   C37 5008   0.888   1.097  46.370 -0.3674 -0.1536  0.2993
   37POPC   H7X 5009   0.877   0.997  46.324  0.5273 -1.0849  1.9857
   37POPC   H7Y 5010   0.976   1.148  46.327  1.5898 -2.6299  1.1167
   37POPC   C38 5011   0.760   1.177  46.355  0.3121 -0.6557  0.3121
   37POPC   H8X 5012   0.748   1.257  46.430 -1.2344  0.6177 -1.2178
   37POPC   H8Y 5013   0.670   1.112  46.358  0.6530 -1.3731 -2.2484
   37POPC   C39 5014   0.746   1.241  46.214  0.2062  0.8633 -0.0344
   37POPC   H9X 5015   0.825   1.319  46.212 -2.5255  3.8317 -0.5970
   37POPC   H9Y 5016   0.655   1.305  46.218  0.0708  0.7380 -1.0137
   37POPC  C310 5017   0.743   1.147  46.094 -0.1594 -0.2165 -1.1425
   37POPC  H10X 5018   0.646   1.095  46.114  0.0095  0.4556  1.8940
   37POPC  H10Y 5019   0.827   1.075  46.101  1.8263  1.9490 -1.8331
   37POPC  C311 5020   0.748   1.217  45.962  0.2189  0.1630  0.1633
   37POPC  H11X 5021   0.741   1.143  45.879  2.2030 -0.9219  0.9059
   37POPC  H11Y 5022   0.846   1.268  45.960  1.4789 -2.1508 -1.8970
   37POPC  C312 5023   0.652   1.332  45.944 -0.2637 -0.2926 -0.7169
   37POPC  H12X 5024   0.699   1.388  45.860  0.3655  0.3443  0.0280
   37POPC  H12Y 5025   0.660   1.406  46.026  0.8325  0.4278 -1.4346
   37POPC  C313 5026   0.502   1.297  45.925 -1.0138 -0.2532  0.2449
   37POPC  H13X 5027   0.442   1.384  45.892 -0.1924  0.2128 -0.0478
   37POPC  H13Y 5028   0.453   1.259  46.017 -3.3612 -1.7357 -1.4989
   37POPC  C314 5029   0.490   1.184  45.819  0.4730 -0.2348  0.1097
   37POPC  H14X 5030   0.526   1.087  45.859  1.1903 -0.0643 -0.0990
   37POPC  H14Y 5031   0.538   1.222  45.726 -1.8333  2.0241 -0.2755
   37POPC  C315 5032   0.333   1.184  45.780 -0.3003  0.3865 -0.9368
   37POPC  H15X 5033   0.294   1.278  45.736 -1.9638 -0.1226 -0.6024
   37POPC  H15Y 5034   0.285   1.168  45.879  0.1398 -2.8732 -1.1377
   37POPC  C316 5035   0.304   1.064  45.694  0.7293  0.4736 -0.0233
   37POPC  H16X 5036   0.328   1.098  45.591  0.6276  1.5976  0.3091
   37POPC  H16Y 5037   0.194   1.053  45.705  0.9946 -3.0560  0.1231
   37POPC  H16Z 5038   0.336   0.959  45.711 -1.0987 -0.3574 -1.3305
   38POPC     N 5039   2.489   0.054  48.466  0.9160  0.6524 -0.4518
   38POPC   C12 5040   2.363  -0.018  48.515 -0.1420  1.2079 -0.2226
   38POPC  H12A 5041   2.281  -0.006  48.446  0.3228 -2.6252 -1.6793
   38POPC  H12B 5042   2.336   0.033  48.606  1.3299  1.0770  0.3175
   38POPC   C13 5043   2.579   0.052  48.586 -0.7969 -0.1503  0.1436
   38POPC  H13A 5044   2.602  -0.052  48.596 -2.6710 -0.4640  1.8614
   38POPC  H13B 5045   2.669   0.109  48.566 -1.7399  1.4566  0.2578
   38POPC  H13C 5046   2.536   0.091  48.677  2.4974  0.9138  1.3677
   38POPC   C14 5047   2.541  -0.010  48.343  0.0249  0.1183 -0.0403
   38POPC  H14A 5048   2.615   0.057  48.302 -2.0332  1.9174 -1.0683
   38POPC  H14B 5049   2.571  -0.113  48.354 -2.2812 -0.6713 -0.5117
   38POPC  H14C 5050   2.462  -0.017  48.270 -1.2406  1.1257  1.1747
   38POPC   C15 5051   2.449   0.196  48.432 -1.2660 -0.4124 -0.5541
   38POPC  H15A 5052   2.371   0.199  48.358 -0.6889 -2.3671 -1.2989
   38POPC  H15B 5053   2.532   0.255  48.395 -0.7711 -0.5955  0.2468
   38POPC  H15C 5054   2.395   0.242  48.514  0.5398  3.4267 -1.2658
   38POPC   C11 5055   2.360  -0.172  48.544 -0.4889  0.0852  0.4348
   38POPC  H11A 5056   2.437  -0.191  48.622 -0.4672 -1.6890  0.0280
   38POPC  H11B 5057   2.389  -0.222  48.449  0.1982  3.1455 -1.0668
   38POPC     P 5058   2.197  -0.333  48.678 -0.1103 -0.0384  0.3319
   38POPC   O13 5059   2.269  -0.453  48.624 -0.5390 -0.9142  0.1133
   38POPC   O14 5060   2.051  -0.339  48.687 -0.2501 -0.3877  0.9715
   38POPC   O12 5061   2.230  -0.207  48.586 -0.0757 -0.1317 -0.3849
   38POPC   O11 5062   2.262  -0.307  48.816  0.1685 -0.8828  0.2152
   38POPC    C1 5063   2.245  -0.182  48.884 -0.5722 -0.8857  0.0207
   38POPC    HA 5064   2.193  -0.102  48.826  2.5032  1.0901 -0.2523
   38POPC    HB 5065   2.348  -0.141  48.893 -1.6024  1.6157  1.8586
   38POPC    C2 5066   2.180  -0.196  49.024 -0.4694  0.5212 -0.5459
   38POPC    HS 5067   2.189  -0.092  49.064 -2.7428  0.3220  0.6520
   38POPC   O21 5068   2.230  -0.308  49.096 -0.1458 -0.5499 -0.1181
   38POPC   C21 5069   2.323  -0.283  49.192  0.2341 -0.3193 -0.1004
   38POPC   O22 5070   2.368  -0.171  49.222  0.7152 -0.7002  0.4379
   38POPC   C22 5071   2.372  -0.408  49.262  0.0961  0.2702  0.1099
   38POPC   H2R 5072   2.483  -0.418  49.252  0.1425 -0.0922  0.9295
   38POPC   H2S 5073   2.325  -0.497  49.215  0.3249 -1.5220  3.0061
   38POPC    C3 5074   2.029  -0.223  49.011 -0.0696 -0.5653  1.0814
   38POPC    HX 5075   2.037  -0.310  48.943  0.6121  1.9341 -2.3110
   38POPC    HY 5076   1.963  -0.152  48.957  0.7477 -1.9640 -1.9639
   38POPC   O31 5077   1.975  -0.251  49.134  0.3145  0.4165  0.5045
   38POPC   C31 5078   1.873  -0.335  49.135 -0.2699 -0.6546  0.3399
   38POPC   O32 5079   1.811  -0.367  49.037  0.5957  0.0380  0.6577
   38POPC   C32 5080   1.836  -0.374  49.278 -0.2293  0.0435  0.1956
   38POPC   H2X 5081   1.810  -0.283  49.335  2.6643  1.9636 -1.2933
   38POPC   H2Y 5082   1.927  -0.420  49.324 -0.4705 -1.1565 -0.4963
   38POPC   C23 5083   2.333  -0.393  49.407  0.2288  1.0025 -0.2469
   38POPC   H3R 5084   2.248  -0.463  49.420  1.1907 -0.7547 -2.7451
   38POPC   H3S 5085   2.313  -0.288  49.440 -0.0965 -0.1603  3.7585
   38POPC   C24 5086   2.449  -0.437  49.496 -0.0104 -0.3010  0.1955
   38POPC   H4R 5087   2.513  -0.347  49.504 -0.4645  0.1308 -0.8741
   38POPC   H4S 5088   2.520  -0.506  49.446 -0.9211 -1.3013  0.2515
   38POPC   C25 5089   2.405  -0.477  49.635 -0.2114 -0.5683 -0.5013
   38POPC   H5R 5090   2.323  -0.552  49.623  1.8442 -3.3132  1.4311
   38POPC   H5S 5091   2.365  -0.386  49.685  0.9949  0.2613 -1.0073
   38POPC   C26 5092   2.514  -0.513  49.743  0.0205 -0.1763  0.3999
   38POPC   H6R 5093   2.563  -0.606  49.708 -0.9505 -0.1181 -1.2113
   38POPC   H6S 5094   2.462  -0.528  49.840  0.4079  1.1504  0.8398
   38POPC   C27 5095   2.620  -0.395  49.765  0.5549  0.2778  0.3819
   38POPC   H7R 5096   2.570  -0.325  49.836  0.9645 -0.3517  1.3121
   38POPC   H7S 5097   2.636  -0.364  49.660  1.0182 -1.9189 -0.2613
   38POPC   C28 5098   2.739  -0.432  49.851  0.0180  0.7444  0.9806
   38POPC   H8R 5099   2.790  -0.514  49.798  0.6746  0.1166  2.5148
   38POPC   H8S 5100   2.688  -0.450  49.948  0.2817  1.3151  1.2360
   38POPC   C29 5101   2.834  -0.324  49.867  0.0366  0.3974 -0.0934
   38POPC   H91 5102   2.785  -0.226  49.867 -2.0302 -0.5571  1.5319
   38POPC  C210 5103   2.957  -0.335  49.913 -0.3816 -0.0577  0.3820
   38POPC  H101 5104   3.023  -0.248  49.925  0.3419 -0.4334 -0.7304
   38POPC  C211 5105   3.018  -0.467  49.936 -0.3488 -0.1868  0.3232
   38POPC  H11R 5106   3.002  -0.538  49.852 -2.1253  1.7960 -1.1185
   38POPC  H11S 5107   2.974  -0.512  50.027  3.8219 -2.6750  1.4018
   38POPC  C212 5108   3.171  -0.467  49.961 -0.6882 -0.2917  0.2084
   38POPC  H12R 5109   3.215  -0.427  49.868  0.2343 -1.4604  0.1202
   38POPC  H12S 5110   3.230  -0.561  49.966 -0.5170 -0.1608  0.6942
   38POPC  C213 5111   3.207  -0.411  50.100 -0.2713 -0.3717  0.2885
   38POPC  H13R 5112   3.146  -0.474  50.169 -0.3087 -0.1406  0.4698
   38POPC  H13S 5113   3.164  -0.310  50.109  1.3995  0.6048 -1.7619
   38POPC  C214 5114   3.355  -0.403  50.143 -0.1669 -0.4774 -0.0117
   38POPC  H14R 5115   3.402  -0.351  50.057  1.8594  4.7363  3.6940
   38POPC  H14S 5116   3.406  -0.501  50.159 -2.0533 -1.0610  3.5043
   38POPC  C215 5117   3.377  -0.326  50.277  0.5513 -0.5194 -0.1138
   38POPC  H15R 5118   3.348  -0.394  50.360  1.9660 -1.1336 -0.0955
   38POPC  H15S 5119   3.314  -0.234  50.272  0.6260 -0.4413  0.3603
   38POPC  C216 5120   3.525  -0.286  50.291  0.4700 -0.0660 -0.0121
   38POPC  H16R 5121   3.530  -0.208  50.213  0.7922 -1.0244 -0.9696
   38POPC  H16S 5122   3.608  -0.359  50.276  1.7966  1.9571 -3.6727
   38POPC  C217 5123   3.538  -0.203  50.426 -0.5007  0.5352 -0.1749
   38POPC  H17R 5124   3.448  -0.138  50.426 -1.7902 -1.1717 -0.5830
   38POPC  H17S 5125   3.632  -0.144  50.430 -0.4244  0.3531  2.0909
   38POPC  C218 5126   3.514  -0.268  50.564 -0.5157 -0.4572 -0.3134
   38POPC  H18R 5127   3.436  -0.217  50.626 -5.2771 -4.9740 -1.8055
   38POPC  H18S 5128   3.606  -0.287  50.623 -0.1263 -1.9777 -1.3422
   38POPC  H18T 5129   3.465  -0.368  50.563  1.0450 -1.3947  2.6991
   38POPC   C33 5130   1.717  -0.476  49.278 -0.4050 -0.2058 -0.3978
   38POPC   H3X 5131   1.741  -0.555  49.205 -2.1017  0.7825 -2.1018
   38POPC   H3Y 5132   1.628  -0.419  49.242 -1.1501  0.7959  2.6810
   38POPC   C34 5133   1.698  -0.515  49.426  0.4161  0.1456 -0.0411
   38POPC   H4X 5134   1.679  -0.418  49.476  0.9159  1.4966 -2.3415
   38POPC   H4Y 5135   1.794  -0.567  49.447  1.2768  0.2048 -3.3340
   38POPC   C35 5136   1.581  -0.621  49.440  0.3482 -0.4969 -0.3046
   38POPC   H5X 5137   1.616  -0.710  49.382 -0.6752  1.3109 -4.0620
   38POPC   H5Y 5138   1.491  -0.602  49.378 -0.2479 -2.5863 -0.1711
   38POPC   C36 5139   1.537  -0.650  49.584  0.3590  0.2906 -0.0604
   38POPC   H6X 5140   1.446  -0.715  49.595  0.5660 -0.1545 -0.9030
   38POPC   H6Y 5141   1.516  -0.559  49.644 -0.9708 -0.2369  0.3252
   38POPC   C37 5142   1.645  -0.739  49.645 -0.0200 -0.8206 -0.4657
   38POPC   H7X 5143   1.742  -0.720  49.594  0.2376  3.3859  1.1255
   38POPC   H7Y 5144   1.610  -0.844  49.637 -1.4548 -0.5488  1.4996
   38POPC   C38 5145   1.671  -0.710  49.794 -0.1014  1.1057  0.1794
   38POPC   H8X 5146   1.699  -0.603  49.803  4.7434 -0.0594  2.1946
   38POPC   H8Y 5147   1.754  -0.781  49.813  0.6960  2.0246  0.1905
   38POPC   C39 5148   1.539  -0.743  49.877  0.2251  0.0581  0.2155
   38POPC   H9X 5149   1.571  -0.838  49.926  0.8859 -0.5170 -1.2601
   38POPC   H9Y 5150   1.465  -0.756  49.795  1.4837  0.9955 -1.1225
   38POPC  C310 5151   1.498  -0.644  49.984  0.1689 -0.7693 -0.3235
   38POPC  H10X 5152   1.426  -0.683  50.059  1.2530  0.3010  1.3216
   38POPC  H10Y 5153   1.467  -0.545  49.945  2.1394  0.3812  0.9083
   38POPC  C311 5154   1.625  -0.596  50.063 -0.3163  0.4573 -0.5985
   38POPC  H11X 5155   1.681  -0.523  50.001  1.9690  0.0370  0.8562
   38POPC  H11Y 5156   1.693  -0.683  50.076  0.6443  1.1568 -0.8163
   38POPC  C312 5157   1.587  -0.536  50.197 -0.5749  0.3720  0.5866
   38POPC  H12X 5158   1.506  -0.596  50.244 -1.6326  1.7537  0.6001
   38POPC  H12Y 5159   1.569  -0.429  50.172  1.3065  0.1432 -2.2095
   38POPC  C313 5160   1.705  -0.555  50.285 -0.3135  0.0790  0.1412
   38POPC  H13X 5161   1.790  -0.501  50.238  2.0660 -3.3757  0.1353
   38POPC  H13Y 5162   1.738  -0.661  50.283 -1.8318 -0.6051  3.7822
   38POPC  C314 5163   1.689  -0.515  50.434  1.1915  0.0289  0.2065
   38POPC  H14X 5164   1.593  -0.552  50.477  1.3252  1.0499  1.4420
   38POPC  H14Y 5165   1.662  -0.407  50.436  0.4499 -0.1598  1.5856
   38POPC  C315 5166   1.811  -0.540  50.512 -0.7234 -0.1371  0.2055
   38POPC  H15X 5167   1.817  -0.485  50.608 -2.9106 -0.0354  0.3391
   38POPC  H15Y 5168   1.898  -0.502  50.454 -0.7195 -2.5476 -1.5305
   38POPC  C316 5169   1.841  -0.689  50.550  0.3661 -0.5161  0.0409
   38POPC  H16X 5170   1.947  -0.708  50.577  0.6216 -3.5867 -2.5555
   38POPC  H16Y 5171   1.810  -0.752  50.464 -2.2063  2.2657 -1.2569
   38POPC  H16Z 5172   1.788  -0.719  50.643  0.1890  2.8834  1.2055
   39POPC     N 5173   1.767   1.483  48.696 -1.1754  0.5299  0.1375
   39POPC   C12 5174   1.703   1.622  48.661 -0.5283  0.1671 -0.6441
   39POPC  H12A 5175   1.731   1.691  48.740  3.0239  0.3530 -1.8479
   39POPC  H12B 5176   1.596   1.615  48.669 -0.5988  2.3466  1.7422
   39POPC   C13 5177   1.921   1.489  48.691  0.2381 -0.3321  0.4720
   39POPC  H13A 5178   1.961   1.548  48.772 -0.7534  1.0193  0.0382
   39POPC  H13B 5179   1.976   1.397  48.693  0.2297 -0.5137 -2.4583
   39POPC  H13C 5180   1.947   1.551  48.606  0.4091 -1.0922 -0.0330
   39POPC   C14 5181   1.722   1.433  48.831  0.0665  0.4506  0.1928
   39POPC  H14A 5182   1.616   1.437  48.848  0.2824  1.2928  1.4980
   39POPC  H14B 5183   1.759   1.337  48.864  2.8936  1.2223 -0.4208
   39POPC  H14C 5184   1.759   1.513  48.893 -0.8072  0.0558  1.2360
   39POPC   C15 5185   1.717   1.379  48.601  0.0764  0.0999  0.1676
   39POPC  H15A 5186   1.757   1.281  48.623  0.4597  0.5893  1.7802
   39POPC  H15B 5187   1.734   1.394  48.495  2.3967 -3.5809 -0.1801
   39POPC  H15C 5188   1.611   1.368  48.616 -0.2836  3.1126  0.4368
   39POPC   C11 5189   1.737   1.683  48.531 -0.1724  0.5277  1.1339
   39POPC  H11A 5190   1.847   1.688  48.515  0.0297 -2.8914  0.7400
   39POPC  H11B 5191   1.711   1.791  48.528  0.5264  0.7577 -2.9401
   39POPC     P 5192   1.553   1.657  48.360 -0.0344 -0.0864  0.1827
   39POPC   O13 5193   1.504   1.542  48.296  0.4771  0.2619  0.3028
   39POPC   O14 5194   1.578   1.775  48.278 -0.0768  0.1769  0.2980
   39POPC   O12 5195   1.695   1.607  48.419  0.2552 -0.0073 -0.4671
   39POPC   O11 5196   1.461   1.688  48.484  0.2535 -0.0853  0.2557
   39POPC    C1 5197   1.330   1.622  48.494 -0.5279 -0.4422  0.5095
   39POPC    HA 5198   1.340   1.511  48.499  0.4469 -0.4565 -1.1027
   39POPC    HB 5199   1.260   1.646  48.411  0.1079 -0.4058 -0.0215
   39POPC    C2 5200   1.267   1.654  48.624 -0.2780 -1.1395  0.3123
   39POPC    HS 5201   1.163   1.650  48.586  0.3857 -1.5873 -1.5231
   39POPC   O21 5202   1.311   1.779  48.686 -0.5221  0.0753 -0.1269
   39POPC   C21 5203   1.258   1.886  48.635 -0.3762 -0.7896  0.8105
   39POPC   O22 5204   1.195   1.889  48.534  0.6412 -0.2083 -0.0443
   39POPC   C22 5205   1.278   2.015  48.716 -0.4157 -0.2041 -0.2917
   39POPC   H2R 5206   1.383   2.047  48.703 -0.5757  0.3591 -0.2488
   39POPC   H2S 5207   1.269   1.994  48.825 -2.8385 -3.6049 -0.9834
   39POPC    C3 5208   1.292   1.542  48.721 -0.8053 -0.1739 -0.5565
   39POPC    HX 5209   1.241   1.580  48.812 -1.1552 -1.3724 -0.2323
   39POPC    HY 5210   1.399   1.553  48.749 -0.5767  1.6804 -1.9546
   39POPC   O31 5211   1.249   1.412  48.673 -0.3786  0.5522  0.0911
   39POPC   C31 5212   1.331   1.315  48.690 -0.1700  0.3546 -0.2140
   39POPC   O32 5213   1.451   1.322  48.712 -0.1358  0.0799  0.2221
   39POPC   C32 5214   1.261   1.175  48.689  0.3963  0.9096 -0.0159
   39POPC   H2X 5215   1.152   1.191  48.696  0.3633  1.3172 -1.3433
   39POPC   H2Y 5216   1.288   1.115  48.599 -1.6810  1.2613 -0.9234
   39POPC   C23 5217   1.186   2.141  48.683 -0.5462 -0.4253  0.2031
   39POPC   H3R 5218   1.174   2.166  48.575 -2.4171 -0.3440  0.3845
   39POPC   H3S 5219   1.233   2.224  48.739  0.9327 -0.5166 -0.8345
   39POPC   C24 5220   1.035   2.127  48.727  0.7175 -0.1674  0.3712
   39POPC   H4R 5221   1.026   2.079  48.827  3.5279 -1.0797  0.2771
   39POPC   H4S 5222   0.978   2.058  48.661  2.5079 -1.1828 -0.1950
   39POPC   C25 5223   0.969   2.267  48.728 -0.9875 -0.5930  0.1593
   39POPC   H5R 5224   1.002   2.320  48.636 -0.1867 -1.8022 -0.2793
   39POPC   H5S 5225   1.001   2.325  48.817 -1.8645  2.2239 -1.2561
   39POPC   C26 5226   0.815   2.250  48.720 -0.1675  0.4399 -0.6291
   39POPC   H6R 5227   0.764   2.185  48.795  0.7322  2.0901  1.5202
   39POPC   H6S 5228   0.809   2.190  48.627  1.0588 -1.0104  0.1963
   39POPC   C27 5229   0.743   2.374  48.694 -0.1991 -0.2445  0.4600
   39POPC   H7R 5230   0.651   2.348  48.638 -1.8028  2.5561  1.6165
   39POPC   H7S 5231   0.790   2.449  48.627 -0.4614  1.6114  2.2526
   39POPC   C28 5232   0.675   2.437  48.816 -0.1119  0.3549  0.1229
   39POPC   H8R 5233   0.625   2.531  48.782 -0.5236  0.3046  0.5721
   39POPC   H8S 5234   0.760   2.471  48.878 -0.7015  1.6224  0.2736
   39POPC   C29 5235   0.586   2.352  48.903  0.1560  0.6282 -0.1644
   39POPC   H91 5236   0.495   2.330  48.845  0.2148  0.9827 -0.3950
   39POPC  C210 5237   0.619   2.287  49.018 -0.7454  0.2592 -0.8626
   39POPC  H101 5238   0.548   2.220  49.069  1.5714 -0.2139  2.0469
   39POPC  C211 5239   0.757   2.311  49.082  1.4019  0.1760 -0.2782
   39POPC  H11R 5240   0.793   2.416  49.074 -1.7977  1.6918  2.5498
   39POPC  H11S 5241   0.832   2.251  49.028  1.3696  0.3697 -0.5416
   39POPC  C212 5242   0.760   2.288  49.232 -0.0741 -0.6941  0.6002
   39POPC  H12R 5243   0.867   2.300  49.260  0.5899 -1.5236 -1.3881
   39POPC  H12S 5244   0.726   2.185  49.256  0.8837 -0.4881  3.0169
   39POPC  C213 5245   0.676   2.386  49.319  0.4295  0.5952  0.3909
   39POPC  H13R 5246   0.572   2.348  49.326  0.4508  0.5305  0.3599
   39POPC  H13S 5247   0.671   2.479  49.259 -1.1893  0.2823 -0.0090
   39POPC  C214 5248   0.728   2.401  49.465  0.1694 -0.3294 -0.5501
   39POPC  H14R 5249   0.833   2.435  49.471  0.2697 -0.4311 -1.6018
   39POPC  H14S 5250   0.735   2.297  49.505 -0.9135  0.4931  1.9882
   39POPC  C215 5251   0.634   2.475  49.568  0.2435  0.1522  0.7427
   39POPC  H15R 5252   0.535   2.426  49.572  0.1444  0.3046  0.2818
   39POPC  H15S 5253   0.622   2.578  49.528 -3.2093 -0.9468 -1.5175
   39POPC  C216 5254   0.697   2.482  49.712  0.2864  0.2999  0.6908
   39POPC  H16R 5255   0.799   2.529  49.709  0.7242 -0.5716  1.5890
   39POPC  H16S 5256   0.696   2.374  49.736 -0.8575 -0.1603 -1.2289
   39POPC  C217 5257   0.608   2.544  49.820  0.1688  0.1389 -0.4792
   39POPC  H17R 5258   0.598   2.464  49.896 -3.7163 -2.9460 -3.7298
   39POPC  H17S 5259   0.508   2.561  49.775 -1.5529 -1.1849  2.5533
   39POPC  C218 5260   0.656   2.676  49.865  0.1213  0.0330  0.3484
   39POPC  H18R 5261   0.580   2.714  49.937 -2.8301 -0.6467 -2.1676
   39POPC  H18S 5262   0.670   2.757  49.790 -2.4378 -0.6948 -1.0225
   39POPC  H18T 5263   0.754   2.666  49.915  0.4603 -0.6292 -0.4267
   39POPC   C33 5264   1.300   1.064  48.803 -0.0552  0.0292  0.4205
   39POPC   H3X 5265   1.209   1.038  48.861 -0.4790 -2.4718 -1.1991
   39POPC   H3Y 5266   1.372   1.118  48.868 -1.7715  0.3937  2.1179
   39POPC   C34 5267   1.366   0.933  48.747 -0.1362 -0.4157 -0.2472
   39POPC   H4X 5268   1.468   0.968  48.724  0.8797 -0.9142  3.0199
   39POPC   H4Y 5269   1.297   0.906  48.663  0.0052  2.8077 -1.5416
   39POPC   C35 5270   1.389   0.811  48.844 -0.7514 -0.3226 -0.5379
   39POPC   H5X 5271   1.288   0.780  48.879 -0.4981 -1.2077 -0.5756
   39POPC   H5Y 5272   1.451   0.846  48.930 -2.4601  1.7506 -0.0452
   39POPC   C36 5273   1.465   0.688  48.794 -0.1876 -0.1176 -0.4087
   39POPC   H6X 5274   1.556   0.670  48.856  0.8499  1.0149 -1.5442
   39POPC   H6Y 5275   1.506   0.709  48.693  2.2163 -1.4829  0.2015
   39POPC   C37 5276   1.382   0.565  48.782  0.3629 -0.7295 -0.6522
   39POPC   H7X 5277   1.456   0.490  48.745  1.9947  0.3491  0.2936
   39POPC   H7Y 5278   1.297   0.582  48.712 -0.1050  0.0100  0.0736
   39POPC   C38 5279   1.339   0.506  48.918  0.2866  0.7445 -0.2028
   39POPC   H8X 5280   1.283   0.581  48.977  0.8971  1.4488 -0.5080
   39POPC   H8Y 5281   1.436   0.477  48.963 -1.5827 -1.2182  2.9302
   39POPC   C39 5282   1.268   0.377  48.907  0.1659 -0.6526  0.7041
   39POPC   H9X 5283   1.331   0.318  48.838  0.0545  0.9184 -0.8180
   39POPC   H9Y 5284   1.170   0.390  48.855 -0.4877  3.0786  2.5802
   39POPC  C310 5285   1.262   0.292  49.030 -0.6923  0.4553  0.4382
   39POPC  H10X 5286   1.182   0.332  49.096  0.2063  1.3391  1.0286
   39POPC  H10Y 5287   1.358   0.313  49.082 -0.3886  0.0021  0.0534
   39POPC  C311 5288   1.228   0.139  49.011 -0.6368 -0.4643 -0.1359
   39POPC  H11X 5289   1.301   0.087  48.946 -0.9919 -2.1727  0.7827
   39POPC  H11Y 5290   1.127   0.135  48.966 -0.9501  0.1021  0.4990
   39POPC  C312 5291   1.237   0.057  49.139 -0.0156  0.3091 -0.1102
   39POPC  H12X 5292   1.229  -0.048  49.102 -2.1128  0.4590 -0.2193
   39POPC  H12Y 5293   1.146   0.068  49.203  1.5868  2.1160  2.0272
   39POPC  C313 5294   1.371   0.073  49.203  0.4472 -0.2557  0.0461
   39POPC  H13X 5295   1.371   0.172  49.253  2.0269 -0.4127  0.4108
   39POPC  H13Y 5296   1.452   0.077  49.128  0.6601 -1.9332  0.1395
   39POPC  C314 5297   1.403  -0.034  49.312  1.0829 -0.2412  0.0140
   39POPC  H14X 5298   1.419  -0.130  49.258  1.8577 -0.8253  1.2347
   39POPC  H14Y 5299   1.308  -0.033  49.370  0.4154  0.7553 -1.0566
   39POPC  C315 5300   1.517   0.013  49.401 -0.7331  0.3688 -0.4019
   39POPC  H15X 5301   1.485   0.111  49.443  2.2734  1.3937 -0.2839
   39POPC  H15Y 5302   1.607   0.023  49.336 -0.8957  1.0934 -0.5263
   39POPC  C316 5303   1.545  -0.081  49.521  0.1796 -0.3036  1.3171
   39POPC  H16X 5304   1.647  -0.087  49.565  1.3975  1.6695 -0.9271
   39POPC  H16Y 5305   1.535  -0.186  49.486  1.4152 -0.2030  0.5848
   39POPC  H16Z 5306   1.470  -0.069  49.602 -0.6665 -1.7000  0.7805
   40POPC     N 5307   2.378   2.162  44.297  0.0694  0.5093 -1.5572
   40POPC   C12 5308   2.351   2.197  44.443 -0.1562  0.7831  1.6189
   40POPC  H12A 5309   2.429   2.161  44.508 -0.1313 -0.5910  0.8518
   40POPC  H12B 5310   2.260   2.146  44.474 -0.1739 -0.1186  0.1485
   40POPC   C13 5311   2.271   2.203  44.197 -1.1423 -0.9426  0.0851
   40POPC  H13A 5312   2.272   2.311  44.192 -0.1715 -0.9877 -1.2690
   40POPC  H13B 5313   2.298   2.180  44.095  1.8772 -2.2478  1.0562
   40POPC  H13C 5314   2.176   2.166  44.234 -1.6420 -1.2153 -1.3990
   40POPC   C14 5315   2.517   2.203  44.253 -0.5977  0.0594 -0.3127
   40POPC  H14A 5316   2.543   2.186  44.150  3.5249  0.7179  0.4528
   40POPC  H14B 5317   2.539   2.309  44.260  1.2890 -0.3667  0.7621
   40POPC  H14C 5318   2.591   2.169  44.324  0.6792 -1.0656 -2.1181
   40POPC   C15 5319   2.379   2.011  44.274 -0.1248  0.1683 -0.2330
   40POPC  H15A 5320   2.287   1.978  44.321 -0.2450  1.6640  0.6598
   40POPC  H15B 5321   2.463   1.970  44.327 -0.8580  0.9530  1.6390
   40POPC  H15C 5322   2.373   1.978  44.171 -1.0768 -0.0321 -0.1296
   40POPC   C11 5323   2.349   2.352  44.470  1.1022 -0.2120  0.9135
   40POPC  H11A 5324   2.433   2.399  44.415 -0.2493  2.0190  0.5820
   40POPC  H11B 5325   2.372   2.363  44.578  2.5747  0.0019  0.5918
   40POPC     P 5326   2.108   2.438  44.520  0.1554  0.3997 -0.5351
   40POPC   O13 5327   1.996   2.510  44.448  0.0797  0.0107  0.2988
   40POPC   O14 5328   2.173   2.509  44.635 -0.2142 -0.1113  0.3114
   40POPC   O12 5329   2.227   2.408  44.412  0.1469 -0.5252 -0.1717
   40POPC   O11 5330   2.065   2.297  44.573 -0.5118  0.6915 -0.8272
   40POPC    C1 5331   1.953   2.224  44.508 -0.5042 -0.4186 -0.1659
   40POPC    HA 5332   1.951   2.238  44.398 -1.3816 -3.1719 -0.5644
   40POPC    HB 5333   1.854   2.257  44.546 -0.2927 -1.0397  0.9672
   40POPC    C2 5334   1.978   2.072  44.528 -0.6027  0.0100 -0.8837
   40POPC    HS 5335   2.072   2.045  44.475 -0.4574 -1.3304 -0.0081
   40POPC   O21 5336   1.864   2.005  44.492  0.2373  0.0097  0.2353
   40POPC   C21 5337   1.876   1.924  44.395  0.4804  0.8183  0.5101
   40POPC   O22 5338   1.978   1.886  44.342 -0.3282 -0.0281 -0.3295
   40POPC   C22 5339   1.731   1.874  44.359  0.2182 -0.3354  1.1562
   40POPC   H2R 5340   1.748   1.793  44.285 -0.4805  1.3975 -1.0221
   40POPC   H2S 5341   1.688   1.966  44.313 -1.9493 -1.7450  0.2336
   40POPC    C3 5342   2.013   2.034  44.678  0.0432  0.9067  0.1474
   40POPC    HX 5343   1.933   2.056  44.751  0.0459 -1.8798  1.0979
   40POPC    HY 5344   2.093   2.104  44.709 -0.6726  1.5063  0.6399
   40POPC   O31 5345   2.063   1.900  44.690  0.2949 -0.1018 -0.1484
   40POPC   C31 5346   2.176   1.881  44.636  0.6400 -0.0490  0.1562
   40POPC   O32 5347   2.250   1.967  44.589  0.1228 -0.5084  0.2369
   40POPC   C32 5348   2.203   1.725  44.642 -0.7250 -1.1259  0.2347
   40POPC   H2X 5349   2.115   1.680  44.590 -0.7219  0.8119 -1.5568
   40POPC   H2Y 5350   2.201   1.702  44.751 -2.5664 -0.5490  0.3587
   40POPC   C23 5351   1.642   1.833  44.476 -0.7014  0.6368  0.0164
   40POPC   H3R 5352   1.549   1.800  44.427  0.7408 -0.0627 -2.3852
   40POPC   H3S 5353   1.609   1.923  44.533  0.3364  0.3922  1.0404
   40POPC   C24 5354   1.702   1.734  44.571 -0.5637  0.2805 -0.0326
   40POPC   H4R 5355   1.622   1.724  44.648  0.5277  0.5452  1.1666
   40POPC   H4S 5356   1.795   1.766  44.622  0.7096 -2.0782 -0.7097
   40POPC   C25 5357   1.747   1.595  44.519 -0.8158  0.6292 -1.1588
   40POPC   H5R 5358   1.808   1.596  44.426  0.4159  0.3752 -0.3794
   40POPC   H5S 5359   1.651   1.542  44.500 -1.4076  0.5733  1.6148
   40POPC   C26 5360   1.807   1.503  44.633 -0.0188 -0.2907 -0.5330
   40POPC   H6R 5361   1.732   1.501  44.715  0.2888  0.1384 -0.2387
   40POPC   H6S 5362   1.906   1.529  44.676 -1.5438  0.6256  2.7843
   40POPC   C27 5363   1.839   1.359  44.591  0.0368 -0.8027  0.3131
   40POPC   H7R 5364   1.894   1.356  44.495  2.5645  0.9536  1.6001
   40POPC   H7S 5365   1.748   1.296  44.583  0.9274 -1.8358 -2.8158
   40POPC   C28 5366   1.934   1.283  44.689  0.2690 -0.4800  0.0877
   40POPC   H8R 5367   2.032   1.335  44.698  0.4920 -0.9605  0.4488
   40POPC   H8S 5368   1.951   1.181  44.649 -0.8824 -0.9823  0.8282
   40POPC   C29 5369   1.868   1.263  44.818  0.9953  0.2729  0.8414
   40POPC   H91 5370   1.761   1.237  44.808  1.5335 -1.7914 -0.2647
   40POPC  C210 5371   1.930   1.266  44.937  0.6887  0.0299 -0.7984
   40POPC  H101 5372   1.872   1.229  45.023  1.7118  0.4769  0.1030
   40POPC  C211 5373   2.067   1.293  44.977 -0.0991  0.7367  0.6297
   40POPC  H11R 5374   2.062   1.385  45.039 -0.9038  0.1872  1.3913
   40POPC  H11S 5375   2.137   1.331  44.899  0.3625  0.6617  1.0049
   40POPC  C212 5376   2.146   1.191  45.063  0.7617  0.2383  0.7518
   40POPC  H12R 5377   2.149   1.097  45.003 -1.1008  1.0768 -0.7664
   40POPC  H12S 5378   2.075   1.169  45.145  1.0448 -0.3539  0.8451
   40POPC  C213 5379   2.279   1.251  45.126  0.4030  0.6044  0.5330
   40POPC  H13R 5380   2.244   1.333  45.191  0.2882  0.4655  0.6447
   40POPC  H13S 5381   2.345   1.285  45.043  0.3562  0.0951  0.2801
   40POPC  C214 5382   2.349   1.143  45.206  0.1664 -0.8501 -0.5761
   40POPC  H14R 5383   2.261   1.112  45.267 -1.1014  3.4016  0.0534
   40POPC  H14S 5384   2.432   1.187  45.266 -0.8050  1.0789 -0.5768
   40POPC  C215 5385   2.411   1.030  45.121 -0.8286  0.4156  0.5144
   40POPC  H15R 5386   2.485   1.076  45.051 -0.6811 -1.0486 -0.3352
   40POPC  H15S 5387   2.342   0.975  45.055 -2.0293  1.7634  0.5925
   40POPC  C216 5388   2.472   0.915  45.212 -0.1773  0.3382  0.7838
   40POPC  H16R 5389   2.537   0.857  45.143  0.0004  1.1766  0.2284
   40POPC  H16S 5390   2.403   0.844  45.262  2.4053 -1.2201  2.3995
   40POPC  C217 5391   2.573   0.966  45.319 -0.1013  1.3483  0.1515
   40POPC  H17R 5392   2.537   1.053  45.378 -0.2658  0.8128  0.8642
   40POPC  H17S 5393   2.662   0.997  45.261  1.0061 -2.7101 -0.6013
   40POPC  C218 5394   2.617   0.863  45.425  0.8128 -0.0664 -0.6407
   40POPC  H18R 5395   2.700   0.899  45.490  2.9589 -4.1850 -0.7793
   40POPC  H18S 5396   2.667   0.772  45.385  2.4899  0.9723 -1.0194
   40POPC  H18T 5397   2.536   0.841  45.498 -0.4379  1.7567 -1.4096
   40POPC   C33 5398   2.335   1.683  44.578  0.0853  0.1374  0.7307
   40POPC   H3X 5399   2.418   1.725  44.639  0.8317 -0.5886  0.2358
   40POPC   H3Y 5400   2.355   1.746  44.488  0.2305 -1.1804 -0.1900
   40POPC   C34 5401   2.341   1.531  44.547 -0.2033  1.0590 -1.1705
   40POPC   H4X 5402   2.258   1.483  44.491  1.9612 -3.5908 -0.9372
   40POPC   H4Y 5403   2.336   1.483  44.647  1.4265  1.1892 -1.0035
   40POPC   C35 5404   2.469   1.495  44.468 -0.0371 -0.2172 -0.8315
   40POPC   H5X 5405   2.488   1.387  44.487  1.6602  0.0097 -1.0614
   40POPC   H5Y 5406   2.552   1.555  44.512  2.4151 -3.3400 -0.8962
   40POPC   C36 5407   2.454   1.506  44.320  0.5125  0.0163  0.5665
   40POPC   H6X 5408   2.439   1.615  44.299 -2.1768  0.5384  4.2423
   40POPC   H6Y 5409   2.357   1.460  44.292  2.1306 -2.2438 -1.6981
   40POPC   C37 5410   2.563   1.433  44.239  0.0783 -0.2605 -0.2720
   40POPC   H7X 5411   2.542   1.324  44.235 -1.1271 -0.0787  0.6121
   40POPC   H7Y 5412   2.657   1.461  44.292  0.0589 -0.9604  0.1400
   40POPC   C38 5413   2.550   1.491  44.096 -0.5247  0.4912 -0.2015
   40POPC   H8X 5414   2.635   1.469  44.029  1.3478  1.1754  1.8158
   40POPC   H8Y 5415   2.538   1.599  44.117 -1.4597  0.2391  0.6593
   40POPC   C39 5416   2.420   1.445  44.026 -0.1388  0.8402  0.7539
   40POPC   H9X 5417   2.330   1.455  44.091 -0.6760 -0.2231  0.2066
   40POPC   H9Y 5418   2.450   1.341  44.001  0.1193  1.5559 -2.3181
   40POPC  C310 5419   2.393   1.533  43.899  0.5809  0.9927 -0.2839
   40POPC  H10X 5420   2.490   1.540  43.846 -0.1333  0.0469 -1.7792
   40POPC  H10Y 5421   2.376   1.635  43.940  0.6561  1.0224 -0.3250
   40POPC  C311 5422   2.279   1.491  43.806  0.0434  0.3585 -0.2455
   40POPC  H11X 5423   2.182   1.493  43.860 -0.6041 -0.6347 -1.3386
   40POPC  H11Y 5424   2.292   1.391  43.760 -1.4473  1.0480 -2.3418
   40POPC  C312 5425   2.251   1.580  43.688 -0.0669  0.4377  0.3331
   40POPC  H12X 5426   2.206   1.671  43.734 -2.1981  0.0250 -0.7935
   40POPC  H12Y 5427   2.170   1.543  43.622  1.1512  1.1775 -1.6537
   40POPC  C313 5428   2.367   1.615  43.600  0.3925  1.2202  0.0924
   40POPC  H13X 5429   2.400   1.521  43.549  0.2893  0.5061  1.3031
   40POPC  H13Y 5430   2.449   1.651  43.666  1.1010 -2.0380  1.1753
   40POPC  C314 5431   2.356   1.720  43.484  0.3415  0.7833  0.0590
   40POPC  H14X 5432   2.322   1.807  43.543  3.4171  1.8281  0.4727
   40POPC  H14Y 5433   2.268   1.686  43.425  0.9981 -0.3072 -0.3261
   40POPC  C315 5434   2.482   1.748  43.395  0.3091 -0.8801  0.0895
   40POPC  H15X 5435   2.522   1.648  43.367  1.0225 -1.3733  2.6266
   40POPC  H15Y 5436   2.549   1.795  43.470  1.7765 -1.0434 -1.0861
   40POPC  C316 5437   2.461   1.834  43.268 -0.8075 -0.5091  0.1495
   40POPC  H16X 5438   2.418   1.929  43.308  1.8608 -0.4319  3.2971
   40POPC  H16Y 5439   2.393   1.793  43.190 -1.4127  2.9679 -1.3354
   40POPC  H16Z 5440   2.556   1.858  43.216 -1.6384  0.3244 -1.0400
   41CHL1    C3 5441   0.012   0.538  72.521  0.7047 -0.2707  0.3894
   41CHL1    H3 5442  -0.051   0.629  72.515  0.6491 -0.3911 -1.4606
   41CHL1    O3 5443   0.053   0.530  72.652  0.6017 -0.3410  0.7801
   41CHL1   H3' 5444   0.067   0.625  72.660 -0.3682  0.0297 -1.2003
   41CHL1    C4 5445  -0.059   0.408  72.483  0.3526 -0.2446  0.4043
   41CHL1   H4A 5446   0.016   0.326  72.487  1.3816  0.7423  2.5645
   41CHL1   H4B 5447  -0.141   0.383  72.554  1.1299 -1.4173  0.9117
   41CHL1    C5 5448  -0.106   0.422  72.336 -0.7749  0.9098 -0.3180
   41CHL1    C6 5449  -0.230   0.405  72.296 -0.1012  0.8137  1.1319
   41CHL1    H6 5450  -0.303   0.369  72.370 -0.0210 -0.9550  0.3935
   41CHL1    C7 5451  -0.281   0.425  72.154 -0.0027 -0.2957  0.2402
   41CHL1   H7A 5452  -0.358   0.348  72.129 -1.5934  0.4328  2.5180
   41CHL1   H7B 5453  -0.332   0.521  72.133 -0.0494 -0.4406 -0.3322
   41CHL1    C8 5454  -0.162   0.394  72.051 -0.0894  0.2153  0.1670
   41CHL1    H8 5455  -0.133   0.287  72.056 -0.7748 -0.0754 -1.6305
   41CHL1   C14 5456  -0.203   0.430  71.908 -0.2601  0.3520  0.4059
   41CHL1   H14 5457  -0.231   0.537  71.910  1.3534  0.8728 -1.2444
   41CHL1   C15 5458  -0.330   0.359  71.860 -0.3137 -0.2457  0.8742
   41CHL1  H15A 5459  -0.328   0.251  71.887 -1.1635 -0.5094 -0.0483
   41CHL1  H15B 5460  -0.432   0.398  71.881 -1.0968 -1.4692 -0.4490
   41CHL1   C16 5461  -0.309   0.363  71.700  0.0917 -0.2860  0.0451
   41CHL1  H16A 5462  -0.315   0.263  71.651 -1.9486  0.1121 -0.6288
   41CHL1  H16B 5463  -0.390   0.427  71.659 -0.7229 -0.7013  0.9437
   41CHL1   C17 5464  -0.182   0.430  71.663  0.4434 -0.5447 -0.0531
   41CHL1   H17 5465  -0.193   0.540  71.649  1.3380 -0.5325 -0.7419
   41CHL1   C13 5466  -0.103   0.416  71.795 -0.0478  0.4794 -0.1059
   41CHL1   C18 5467  -0.046   0.272  71.802 -0.1667 -0.0053  0.0376
   41CHL1  H18A 5468  -0.006   0.244  71.902  0.1885  0.6555  0.0869
   41CHL1  H18B 5469  -0.120   0.192  71.778  0.8578 -1.5477  1.7429
   41CHL1  H18C 5470   0.047   0.255  71.744  0.1367 -3.3821  1.3143
   41CHL1   C12 5471   0.010   0.519  71.830 -0.3329 -0.5514  0.3673
   41CHL1  H12A 5472   0.089   0.507  71.754 -1.6913 -0.9467 -1.0357
   41CHL1  H12B 5473  -0.035   0.621  71.836  3.6270  1.3090  1.9786
   41CHL1   C11 5474   0.064   0.499  71.971  0.1262  0.3273 -0.6139
   41CHL1  H11A 5475   0.122   0.404  71.960 -1.2003 -0.2809 -3.1285
   41CHL1  H11B 5476   0.141   0.572  72.005  1.3651 -0.8258 -0.8609
   41CHL1    C9 5477  -0.047   0.483  72.090 -0.3539 -0.3780 -0.6856
   41CHL1    H9 5478  -0.093   0.583  72.098  0.1392 -0.2857  2.2607
   41CHL1   C10 5479   0.004   0.458  72.239 -0.0655  0.4561 -0.0879
   41CHL1   C19 5480   0.102   0.333  72.226  0.0907  0.4281 -0.6349
   41CHL1  H19A 5481   0.157   0.306  72.318 -1.5618 -3.5722 -0.5947
   41CHL1  H19B 5482   0.050   0.241  72.193  1.7549 -0.9611  0.4958
   41CHL1  H19C 5483   0.183   0.349  72.151 -0.0066  0.7882 -0.6680
   41CHL1    C1 5484   0.071   0.585  72.285  0.0578  0.5528 -0.2983
   41CHL1   H1A 5485   0.152   0.610  72.213 -0.7991  0.2877 -1.3888
   41CHL1   H1B 5486  -0.003   0.667  72.294 -1.4580 -0.8627  0.8906
   41CHL1    C2 5487   0.128   0.565  72.426  0.1446 -0.5261  0.5253
   41CHL1   H2A 5488   0.193   0.645  72.466 -0.1173 -0.9237  1.7793
   41CHL1   H2B 5489   0.208   0.488  72.432  1.8838  1.0072 -1.4461
   41CHL1   C20 5490  -0.115   0.358  71.539 -0.1337  1.0638 -0.0923
   41CHL1   H20 5491  -0.094   0.252  71.565  3.0248  1.0739 -2.0865
   41CHL1   C21 5492   0.008   0.432  71.488  0.3614 -0.0163 -0.2392
   41CHL1  H21A 5493   0.084   0.414  71.567 -0.2886  0.2326  0.4536
   41CHL1  H21B 5494  -0.016   0.540  71.475 -0.5978 -0.3678 -1.6707
   41CHL1  H21C 5495   0.052   0.403  71.390  2.7669 -0.2535  0.8386
   41CHL1   C22 5496  -0.207   0.341  71.414 -0.4351 -0.2559  0.1387
   41CHL1  H22A 5497  -0.138   0.302  71.336  0.4509 -1.1636  1.3404
   41CHL1  H22B 5498  -0.282   0.262  71.436  1.3391 -1.1857  3.5669
   41CHL1   C23 5499  -0.269   0.457  71.343 -0.0826 -0.5689 -0.4778
   41CHL1  H23A 5500  -0.316   0.539  71.402  1.1182  1.2178 -1.8797
   41CHL1  H23B 5501  -0.176   0.508  71.309 -1.3612  1.5678 -0.9748
   41CHL1   C24 5502  -0.347   0.434  71.213  0.2867  0.1510  0.6482
   41CHL1  H24A 5503  -0.281   0.380  71.140 -0.7808  1.5586 -1.4776
   41CHL1  H24B 5504  -0.430   0.362  71.217  0.1447  0.3496  1.4536
   41CHL1   C25 5505  -0.400   0.563  71.144 -0.3395  0.3798  0.7991
   41CHL1   H25 5506  -0.449   0.517  71.055  1.0750  0.3804 -0.0048
   41CHL1   C26 5507  -0.500   0.639  71.215  0.4262 -1.0742 -0.7234
   41CHL1  H26A 5508  -0.568   0.711  71.164  0.3710  0.6750  1.6167
   41CHL1  H26B 5509  -0.553   0.579  71.292 -0.1258 -2.0770 -1.8619
   41CHL1  H26C 5510  -0.444   0.710  71.280 -0.6576  1.6304 -2.5355
   41CHL1   C27 5511  -0.289   0.660  71.096  0.3509 -0.7393 -0.3315
   41CHL1  H27A 5512  -0.212   0.681  71.173  1.0453 -0.3224 -1.1270
   41CHL1  H27B 5513  -0.238   0.594  71.023  2.1187  0.8158 -0.5978
   41CHL1  H27C 5514  -0.328   0.751  71.045 -1.3449 -1.0852  0.3079
   42CHL1    C3 5515   0.129   2.486  62.414  0.4673 -0.9797 -0.5630
   42CHL1    H3 5516   0.067   2.555  62.353 -1.4641 -1.3075  0.9529
   42CHL1    O3 5517   0.130   2.538  62.546 -0.1869  0.1084 -0.2866
   42CHL1   H3' 5518   0.224   2.556  62.558  0.7176 -4.0931  0.8185
   42CHL1    C4 5519   0.066   2.348  62.414  0.1661  0.9053 -0.3731
   42CHL1   H4A 5520   0.117   2.278  62.484 -2.2389 -0.0500  0.5266
   42CHL1   H4B 5521  -0.037   2.350  62.455  0.6551 -1.0075  1.0854
   42CHL1    C5 5522   0.084   2.271  62.277  0.0750  0.1954  0.0960
   42CHL1    C6 5523  -0.013   2.219  62.211  0.7486 -0.4907 -0.1608
   42CHL1    H6 5524  -0.112   2.219  62.258  0.2313 -2.9239 -1.1145
   42CHL1    C7 5525  -0.005   2.138  62.084  0.3158 -0.0404  0.3745
   42CHL1   H7A 5526  -0.076   2.053  62.095  2.0905 -1.2517  3.9053
   42CHL1   H7B 5527  -0.049   2.206  62.007  1.5693  0.9510  0.5001
   42CHL1    C8 5528   0.142   2.102  62.055 -0.4852 -0.6487  0.3413
   42CHL1    H8 5529   0.167   2.016  62.121 -0.7664 -0.0172  1.2986
   42CHL1   C14 5530   0.142   2.061  61.907  0.2899  0.3509 -0.4057
   42CHL1   H14 5531   0.128   2.157  61.852  1.3545  0.4246 -0.5651
   42CHL1   C15 5532   0.043   1.950  61.867 -0.6024 -0.4910 -0.1640
   42CHL1  H15A 5533   0.044   1.860  61.931  0.7645  0.8742  1.8506
   42CHL1  H15B 5534  -0.061   1.989  61.867 -1.5656 -2.5940 -3.7649
   42CHL1   C16 5535   0.094   1.914  61.725  0.0342  0.9741  0.6856
   42CHL1  H16A 5536   0.114   1.809  61.694 -0.1125  0.7155  1.4469
   42CHL1  H16B 5537   0.018   1.946  61.650  0.4166  1.1360  0.3640
   42CHL1   C17 5538   0.233   1.990  61.704 -0.2132  0.9510 -0.8232
   42CHL1   H17 5539   0.206   2.085  61.655  0.8674  0.3509 -2.6800
   42CHL1   C13 5540   0.280   2.017  61.857 -0.7388 -0.3378 -0.2558
   42CHL1   C18 5541   0.344   1.905  61.936 -0.3774 -0.8152  1.1339
   42CHL1  H18A 5542   0.283   1.813  61.923  1.1926 -1.7954  0.2784
   42CHL1  H18B 5543   0.439   1.877  61.885 -0.3409  1.4914 -0.1806
   42CHL1  H18C 5544   0.360   1.922  62.045 -0.5320 -0.8060  1.1525
   42CHL1   C12 5545   0.374   2.145  61.878  0.9036 -0.4942 -0.1516
   42CHL1  H12A 5546   0.475   2.127  61.835 -0.1465 -1.4632 -2.4383
   42CHL1  H12B 5547   0.315   2.223  61.826  1.3605  1.6229  2.3173
   42CHL1   C11 5548   0.382   2.191  62.027  0.7192  0.7813  0.4704
   42CHL1  H11A 5549   0.427   2.119  62.099 -2.7755  0.4788  2.5853
   42CHL1  H11B 5550   0.450   2.279  62.020 -0.0835  1.4676  1.0588
   42CHL1    C9 5551   0.241   2.219  62.080  0.4538 -0.5661 -0.3783
   42CHL1    H9 5552   0.200   2.304  62.022 -2.3465 -1.0182  0.7965
   42CHL1   C10 5553   0.227   2.266  62.221  0.6373 -0.7074  0.6888
   42CHL1   C19 5554   0.316   2.180  62.306 -0.1060  0.3525  0.1337
   42CHL1  H19A 5555   0.306   2.069  62.303  1.6996  0.0968  1.6798
   42CHL1  H19B 5556   0.420   2.209  62.284 -0.3098  0.7731 -0.2989
   42CHL1  H19C 5557   0.288   2.210  62.409 -1.4518  2.0537 -0.6670
   42CHL1    C1 5558   0.272   2.419  62.226 -0.4824 -0.1170 -0.5363
   42CHL1   H1A 5559   0.361   2.445  62.165 -0.0012  1.6950  0.8414
   42CHL1   H1B 5560   0.194   2.485  62.181 -0.3976  1.7482  1.8592
   42CHL1    C2 5561   0.269   2.482  62.369 -0.0670  0.0916 -0.4468
   42CHL1   H2A 5562   0.316   2.583  62.359  0.1053  0.0211 -0.3633
   42CHL1   H2B 5563   0.328   2.422  62.442  1.5117 -1.6074 -2.9401
   42CHL1   C20 5564   0.335   1.908  61.622  0.0849  0.2874  0.2423
   42CHL1   H20 5565   0.360   1.814  61.675  1.4498 -0.8438 -2.2324
   42CHL1   C21 5566   0.469   1.992  61.607 -0.4555 -0.0539  0.3227
   42CHL1  H21A 5567   0.520   1.995  61.706 -0.8510 -0.0577  0.5288
   42CHL1  H21B 5568   0.448   2.090  61.560 -2.2318  0.2973  1.7542
   42CHL1  H21C 5569   0.546   1.939  61.546  1.3515 -0.1608  2.5626
   42CHL1   C22 5570   0.282   1.874  61.478 -0.0041 -0.5811  0.2904
   42CHL1  H22A 5571   0.192   1.810  61.493 -0.6178  0.6263  2.0684
   42CHL1  H22B 5572   0.248   1.955  61.409  3.0607 -0.4463 -1.2278
   42CHL1   C23 5573   0.371   1.779  61.395 -0.1072 -0.6570 -0.5552
   42CHL1  H23A 5574   0.477   1.805  61.376  0.8568 -2.5524  1.7499
   42CHL1  H23B 5575   0.387   1.688  61.457  2.2542 -0.3256 -0.5953
   42CHL1   C24 5576   0.299   1.723  61.272  0.3729 -0.2403  0.0517
   42CHL1  H24A 5577   0.194   1.694  61.290  0.4455 -1.0437 -0.7810
   42CHL1  H24B 5578   0.287   1.804  61.198  1.4786 -0.0339  0.0728
   42CHL1   C25 5579   0.367   1.616  61.193 -0.8366 -0.1640  0.8607
   42CHL1   H25 5580   0.294   1.600  61.111  0.0138  3.0731 -0.6792
   42CHL1   C26 5581   0.502   1.648  61.126  0.3466 -0.4855 -0.7727
   42CHL1  H26A 5582   0.591   1.594  61.163  2.3828  0.5077 -3.8069
   42CHL1  H26B 5583   0.492   1.626  61.017 -1.4445 -0.5049 -0.6338
   42CHL1  H26C 5584   0.516   1.757  61.142 -2.1120 -0.4073  1.4345
   42CHL1   C27 5585   0.378   1.478  61.253 -0.2399  0.4411 -0.4335
   42CHL1  H27A 5586   0.280   1.437  61.282  1.0181 -2.4653  0.0583
   42CHL1  H27B 5587   0.422   1.402  61.186 -2.1363 -0.9971 -0.1010
   42CHL1  H27C 5588   0.452   1.472  61.336 -0.9489  0.1599  0.1853
   43CHL1    C3 5589   0.834   0.726  53.517  0.2060 -1.2515 -0.1593
   43CHL1    H3 5590   0.901   0.644  53.550 -0.5529 -2.7228 -2.0678
   43CHL1    O3 5591   0.885   0.746  53.384  0.3346 -0.4882 -0.4115
   43CHL1   H3' 5592   0.840   0.693  53.318  0.5406  2.5757 -3.2583
   43CHL1    C4 5593   0.690   0.682  53.503 -0.1278  1.2892 -0.5741
   43CHL1   H4A 5594   0.639   0.761  53.444 -0.2204  1.7069  0.0575
   43CHL1   H4B 5595   0.697   0.583  53.453 -0.3581  0.3328  1.1917
   43CHL1    C5 5596   0.626   0.658  53.638  0.5692  0.7723 -0.6198
   43CHL1    C6 5597   0.561   0.550  53.673  0.7091  0.0322  0.1977
   43CHL1    H6 5598   0.559   0.481  53.587  1.1203 -0.8600  0.8776
   43CHL1    C7 5599   0.511   0.523  53.807  0.6589  0.0446 -0.0720
   43CHL1   H7A 5600   0.415   0.468  53.810  1.4201 -1.6030 -2.6610
   43CHL1   H7B 5601   0.590   0.474  53.869  1.4929  2.9883  1.3869
   43CHL1    C8 5602   0.476   0.659  53.882 -0.2673  0.2274 -0.9466
   43CHL1    H8 5603   0.385   0.705  53.839  0.6184  0.1982 -2.9740
   43CHL1   C14 5604   0.443   0.625  54.026  0.0854  0.3657 -0.5929
   43CHL1   H14 5605   0.534   0.573  54.064 -0.4248 -0.4844 -0.5077
   43CHL1   C15 5606   0.319   0.538  54.046 -0.0390 -0.5003 -0.4650
   43CHL1  H15A 5607   0.235   0.577  53.985 -1.2020 -2.2524 -0.0553
   43CHL1  H15B 5608   0.332   0.429  54.029  1.6675 -0.7624  1.9007
   43CHL1   C16 5609   0.276   0.554  54.196 -0.0593  0.7703 -0.0965
   43CHL1  H16A 5610   0.171   0.591  54.203 -1.3267 -2.3113 -1.0344
   43CHL1  H16B 5611   0.281   0.455  54.246  0.8230  1.5252  1.3902
   43CHL1   C17 5612   0.371   0.663  54.250  0.1586 -0.4508 -0.2795
   43CHL1   H17 5613   0.453   0.611  54.304 -0.2719 -1.6734 -0.7674
   43CHL1   C13 5614   0.428   0.738  54.119 -0.3208  0.6054 -0.1839
   43CHL1   C18 5615   0.320   0.833  54.077  0.8571  0.3422 -0.1198
   43CHL1  H18A 5616   0.220   0.784  54.075  0.5301  0.9152  1.2646
   43CHL1  H18B 5617   0.300   0.916  54.148 -0.2042 -1.6993  2.1301
   43CHL1  H18C 5618   0.343   0.874  53.976  2.2122 -0.2493 -0.0822
   43CHL1   C12 5619   0.562   0.806  54.117  0.2818  0.6481  0.4002
   43CHL1  H12A 5620   0.553   0.876  54.203 -1.2645 -1.0807  1.7426
   43CHL1  H12B 5621   0.644   0.739  54.152  3.3361  3.3821 -0.9921
   43CHL1   C11 5622   0.609   0.854  53.983  0.3313  0.9837  0.0841
   43CHL1  H11A 5623   0.556   0.946  53.950  2.6271  2.0499 -0.8835
   43CHL1  H11B 5624   0.713   0.891  53.992  0.3693  1.0759 -0.6594
   43CHL1    C9 5625   0.605   0.739  53.879 -0.6353 -0.5671 -0.2676
   43CHL1    H9 5626   0.686   0.672  53.915 -1.0315 -2.0380 -1.9340
   43CHL1   C10 5627   0.656   0.771  53.738  0.1830 -0.5578  0.0984
   43CHL1   C19 5628   0.555   0.889  53.688  0.6186 -0.4900  0.5644
   43CHL1  H19A 5629   0.450   0.876  53.721  0.4510  3.9104  2.4909
   43CHL1  H19B 5630   0.603   0.981  53.728  0.5882  2.1109 -4.5234
   43CHL1  H19C 5631   0.582   0.905  53.581  0.2398  0.3617  0.5897
   43CHL1    C1 5632   0.799   0.819  53.738  0.3025 -1.7737  1.0387
   43CHL1   H1A 5633   0.805   0.921  53.781  1.0712 -0.7977 -1.2012
   43CHL1   H1B 5634   0.849   0.734  53.789 -0.6693 -1.7402  2.0945
   43CHL1    C2 5635   0.863   0.848  53.599 -0.4225 -0.2410  0.1503
   43CHL1   H2A 5636   0.973   0.860  53.612 -0.7428  0.8541  2.2485
   43CHL1   H2B 5637   0.807   0.933  53.554 -0.8464 -0.7189 -0.2440
   43CHL1   C20 5638   0.297   0.731  54.364  0.6534 -0.3273 -0.0114
   43CHL1   H20 5639   0.215   0.785  54.312 -2.3886 -2.1080  2.5839
   43CHL1   C21 5640   0.388   0.839  54.424  1.2244  0.3209  0.5701
   43CHL1  H21A 5641   0.486   0.791  54.446 -0.1554 -3.8284 -1.3192
   43CHL1  H21B 5642   0.344   0.888  54.513 -1.5440  1.3231 -1.2249
   43CHL1  H21C 5643   0.413   0.917  54.349  1.9319 -0.9057 -0.5091
   43CHL1   C22 5644   0.241   0.633  54.472  0.2734  0.2361  0.1026
   43CHL1  H22A 5645   0.158   0.673  54.534 -1.6474 -2.4017 -0.6006
   43CHL1  H22B 5646   0.186   0.546  54.431 -0.0873  0.5188 -0.0152
   43CHL1   C23 5647   0.339   0.572  54.573 -0.6210  0.1531  0.4977
   43CHL1  H23A 5648   0.431   0.553  54.514 -0.1111  2.1150  0.5898
   43CHL1  H23B 5649   0.358   0.642  54.658 -3.3315 -0.1028  1.4291
   43CHL1   C24 5650   0.277   0.437  54.627 -0.0504  0.2499  0.0406
   43CHL1  H24A 5651   0.175   0.455  54.666 -0.0972 -0.5850  0.3238
   43CHL1  H24B 5652   0.280   0.362  54.545  4.4110 -0.7919  0.8491
   43CHL1   C25 5653   0.349   0.364  54.746 -1.1784  0.6390  0.1713
   43CHL1   H25 5654   0.453   0.362  54.706 -1.5173 -1.7706 -0.7428
   43CHL1   C26 5655   0.357   0.461  54.865 -0.6638 -0.3596  0.1831
   43CHL1  H26A 5656   0.260   0.489  54.911 -0.0962 -2.2182  2.7492
   43CHL1  H26B 5657   0.433   0.431  54.940  0.1809 -0.6145 -0.7533
   43CHL1  H26C 5658   0.404   0.558  54.836 -3.0692  1.4045  1.8249
   43CHL1   C27 5659   0.296   0.222  54.774  0.0401  0.4744 -0.3115
   43CHL1  H27A 5660   0.311   0.162  54.682 -0.7880 -3.1269  1.7091
   43CHL1  H27B 5661   0.367   0.171  54.842  1.2936 -0.5417 -2.2731
   43CHL1  H27C 5662   0.194   0.226  54.817 -0.5748 -1.3733 -1.4656
   44CHL1    C3 5663   0.392   0.566  60.350 -0.4032 -0.2167  0.1634
   44CHL1    H3 5664   0.337   0.601  60.440  0.8745 -0.6611  1.1566
   44CHL1    O3 5665   0.327   0.615  60.241  0.8301  0.4013 -0.6942
   44CHL1   H3' 5666   0.367   0.572  60.165 -2.4267 -1.9438 -1.3056
   44CHL1    C4 5667   0.536   0.633  60.366  0.1844  0.1694 -0.3550
   44CHL1   H4A 5668   0.595   0.617  60.274 -0.8123 -1.9260 -0.6941
   44CHL1   H4B 5669   0.502   0.738  60.379 -0.3079 -0.0680  0.3887
   44CHL1    C5 5670   0.587   0.573  60.494  0.2020 -1.3729 -0.3099
   44CHL1    C6 5671   0.606   0.654  60.600  0.3320 -1.0211 -0.1609
   44CHL1    H6 5672   0.585   0.761  60.589  0.0428 -1.0905 -0.2959
   44CHL1    C7 5673   0.673   0.617  60.729  0.3026  0.4826  0.5825
   44CHL1   H7A 5674   0.754   0.693  60.738  0.6187  0.2101  0.1143
   44CHL1   H7B 5675   0.600   0.598  60.810 -0.0031 -0.4837  0.0931
   44CHL1    C8 5676   0.750   0.479  60.708  0.2730  0.1092 -0.5902
   44CHL1    H8 5677   0.846   0.498  60.654  3.2290 -2.0685  3.3760
   44CHL1   C14 5678   0.787   0.422  60.844 -0.6879 -1.8746 -0.0187
   44CHL1   H14 5679   0.691   0.414  60.899 -0.8239  0.5787  0.2381
   44CHL1   C15 5680   0.882   0.509  60.937 -0.0239  0.1757 -0.3622
   44CHL1  H15A 5681   0.959   0.548  60.866  0.3705  0.8356  0.4021
   44CHL1  H15B 5682   0.832   0.598  60.981  2.0534  1.3498 -0.2304
   44CHL1   C16 5683   0.932   0.415  61.038 -0.1031 -0.0753  0.0770
   44CHL1  H16A 5684   1.041   0.401  61.056 -0.4051 -0.6513  1.6635
   44CHL1  H16B 5685   0.883   0.435  61.136 -1.1908 -2.0204 -0.0312
   44CHL1   C17 5686   0.879   0.270  60.986 -0.0876  0.2028 -0.1652
   44CHL1   H17 5687   0.778   0.249  61.028 -0.2197 -5.0035 -2.2555
   44CHL1   C13 5688   0.851   0.282  60.843 -0.4819 -0.2436 -0.1351
   44CHL1   C18 5689   0.967   0.276  60.757 -0.9879  0.6359  0.1528
   44CHL1  H18A 5690   0.950   0.304  60.651 -0.9198 -0.7694 -0.2437
   44CHL1  H18B 5691   1.052   0.343  60.785 -0.7751  0.3863  0.1169
   44CHL1  H18C 5692   1.014   0.176  60.747 -0.7703  0.9900 -3.8469
   44CHL1   C12 5693   0.745   0.187  60.791 -0.2600  0.0513  0.0913
   44CHL1  H12A 5694   0.786   0.085  60.774  0.8783  0.2977  1.2232
   44CHL1  H12B 5695   0.659   0.167  60.859  0.6821 -2.7336  0.6070
   44CHL1   C11 5696   0.694   0.228  60.660 -0.6176 -0.0330  1.2697
   44CHL1  H11A 5697   0.772   0.198  60.587 -3.9005 -2.4560 -1.5296
   44CHL1  H11B 5698   0.602   0.169  60.640 -0.5796 -0.2915  1.8418
   44CHL1    C9 5699   0.652   0.380  60.652 -0.1248  0.5546 -0.3029
   44CHL1    H9 5700   0.555   0.381  60.705 -1.3171 -1.0038 -2.3285
   44CHL1   C10 5701   0.615   0.426  60.507  0.0975 -0.3185  0.3377
   44CHL1   C19 5702   0.727   0.371  60.405  0.1893 -0.4911  0.1502
   44CHL1  H19A 5703   0.716   0.407  60.301  2.5978 -0.3998 -0.1368
   44CHL1  H19B 5704   0.833   0.379  60.437  0.3729 -0.8066 -0.3571
   44CHL1  H19C 5705   0.710   0.262  60.394 -1.9163 -0.4855  2.3902
   44CHL1    C1 5706   0.476   0.359  60.466 -0.5635 -1.4439 -0.1165
   44CHL1   H1A 5707   0.502   0.254  60.444 -0.5528 -0.8208 -3.8038
   44CHL1   H1B 5708   0.406   0.374  60.551 -2.6779 -4.6812 -1.0833
   44CHL1    C2 5709   0.411   0.421  60.340  0.1752 -0.0549  0.5076
   44CHL1   H2A 5710   0.313   0.375  60.316  0.8692 -0.5628 -1.5985
   44CHL1   H2B 5711   0.468   0.412  60.245 -1.2483  0.0107 -0.3855
   44CHL1   C20 5712   0.966   0.150  61.019  0.1581  0.1866 -0.1385
   44CHL1   H20 5713   0.934   0.073  60.945  0.0997 -1.5269  1.6003
   44CHL1   C21 5714   0.943   0.109  61.171 -0.9108  0.0945  0.0354
   44CHL1  H21A 5715   0.965   0.002  61.188 -0.3951  0.1763 -0.1128
   44CHL1  H21B 5716   0.847   0.135  61.222  0.4882 -0.7534  3.3683
   44CHL1  H21C 5717   1.020   0.163  61.230 -2.0364  0.4361  1.2461
   44CHL1   C22 5718   1.121   0.154  60.997  0.7131  1.1264 -0.1742
   44CHL1  H22A 5719   1.145   0.226  60.916  2.4037  0.0272 -0.7131
   44CHL1  H22B 5720   1.167   0.203  61.086  0.8612 -0.2010  0.4980
   44CHL1   C23 5721   1.174   0.018  60.952 -0.2240  0.0256 -0.2527
   44CHL1  H23A 5722   1.096  -0.058  60.973 -1.3907  1.5182  1.0544
   44CHL1  H23B 5723   1.188   0.013  60.842  0.7679  0.0837 -0.1358
   44CHL1   C24 5724   1.316  -0.027  61.002  0.3500  0.8460 -0.6692
   44CHL1  H24A 5725   1.374   0.059  60.962 -0.8138  2.3510  0.7694
   44CHL1  H24B 5726   1.325  -0.032  61.112  2.0865  1.4904 -0.7583
   44CHL1   C25 5727   1.382  -0.159  60.951  0.2117 -0.1607  0.5637
   44CHL1   H25 5728   1.370  -0.146  60.842 -0.9606 -1.0133  0.5713
   44CHL1   C26 5729   1.535  -0.177  60.968 -0.2088  0.2723 -0.3502
   44CHL1  H26A 5730   1.565  -0.268  60.913  0.9497  0.7230 -0.5028
   44CHL1  H26B 5731   1.592  -0.101  60.909  0.5143  0.0035 -0.0197
   44CHL1  H26C 5732   1.582  -0.176  61.069  0.6341 -1.6828 -0.6776
   44CHL1   C27 5733   1.298  -0.281  60.991 -0.0208 -0.4259  0.2896
   44CHL1  H27A 5734   1.193  -0.268  60.956  0.7081  1.3129 -1.4014
   44CHL1  H27B 5735   1.341  -0.373  60.946 -6.8537 -2.7408 -2.8810
   44CHL1  H27C 5736   1.290  -0.296  61.101  0.2444  1.5604  0.6154
   45CHL1    C3 5737   0.250   1.057  59.980  0.2820  0.5138  0.0848
   45CHL1    H3 5738   0.217   1.154  59.938 -1.0492  0.6992  1.4682
   45CHL1    O3 5739   0.213   0.951  59.892  0.1658  0.0311  0.1054
   45CHL1   H3' 5740   0.203   0.873  59.947  1.6506 -1.2461 -1.3248
   45CHL1    C4 5741   0.405   1.045  59.994 -0.0554 -0.6372  0.1432
   45CHL1   H4A 5742   0.428   0.940  60.025  0.2205 -1.2778 -2.0714
   45CHL1   H4B 5743   0.453   1.070  59.897  1.3175  0.2569  1.0145
   45CHL1    C5 5744   0.458   1.141  60.105  0.2825 -0.3404 -0.4128
   45CHL1    C6 5745   0.561   1.226  60.080  0.4602 -0.3865  0.1800
   45CHL1    H6 5746   0.621   1.200  59.991 -0.1363  0.5513 -0.5241
   45CHL1    C7 5747   0.617   1.316  60.186  0.4592 -0.7212  0.3308
   45CHL1   H7A 5748   0.723   1.287  60.196  1.8878  3.1609 -1.6614
   45CHL1   H7B 5749   0.613   1.420  60.147  0.6953 -0.1650  1.7412
   45CHL1    C8 5750   0.554   1.326  60.326 -0.0467 -0.4507  0.0541
   45CHL1    H8 5751   0.550   1.432  60.359 -2.4669 -1.0702  2.0380
   45CHL1   C14 5752   0.653   1.258  60.434 -0.5085 -0.2318  1.1783
   45CHL1   H14 5753   0.666   1.152  60.402  4.2933  1.0296 -2.2432
   45CHL1   C15 5754   0.795   1.319  60.422  0.2031 -1.1641  1.1902
   45CHL1  H15A 5755   0.855   1.250  60.359  0.0900 -0.0176 -0.2363
   45CHL1  H15B 5756   0.796   1.422  60.380  2.3098 -1.2487  0.8988
   45CHL1   C16 5757   0.846   1.353  60.562  0.2905 -0.2957  0.6419
   45CHL1  H16A 5758   0.902   1.269  60.609  1.2321  0.7051  1.3736
   45CHL1  H16B 5759   0.913   1.442  60.554  0.7964 -0.6183  1.1671
   45CHL1   C17 5760   0.712   1.376  60.639  0.1220  0.2156 -0.1405
   45CHL1   H17 5761   0.667   1.473  60.609 -1.0157 -0.7545 -1.6991
   45CHL1   C13 5762   0.609   1.275  60.575 -0.4674 -0.1379  0.0320
   45CHL1   C18 5763   0.643   1.131  60.630  0.8683 -0.3250 -1.2828
   45CHL1  H18A 5764   0.602   1.110  60.732  5.0528 -0.4457  0.5769
   45CHL1  H18B 5765   0.594   1.056  60.565  1.2023 -2.1630  0.4754
   45CHL1  H18C 5766   0.751   1.107  60.628  0.4565 -2.4943 -0.4333
   45CHL1   C12 5767   0.463   1.308  60.595  0.8366  1.0122  0.1795
   45CHL1  H12A 5768   0.430   1.283  60.698 -1.2329 -2.0689 -1.0816
   45CHL1  H12B 5769   0.456   1.418  60.587  0.2606  0.8535 -2.3144
   45CHL1   C11 5770   0.362   1.243  60.491 -0.3996  1.1098 -0.2594
   45CHL1  H11A 5771   0.345   1.138  60.523 -0.7274  1.9871  2.7774
   45CHL1  H11B 5772   0.261   1.289  60.504 -0.0478  1.5075  1.3708
   45CHL1    C9 5773   0.414   1.261  60.341 -0.3049 -0.1084  0.7707
   45CHL1    H9 5774   0.354   1.350  60.313  1.6061  1.2447  0.7992
   45CHL1   C10 5775   0.378   1.137  60.243  0.4484  0.0645  0.2494
   45CHL1   C19 5776   0.404   0.993  60.310 -0.6023  0.4525  0.1806
   45CHL1  H19A 5777   0.422   0.914  60.233  0.0756 -0.9663  1.7378
   45CHL1  H19B 5778   0.491   1.005  60.378 -2.1468 -1.6199  2.7300
   45CHL1  H19C 5779   0.316   0.962  60.369 -1.8141  0.5674 -1.4834
   45CHL1    C1 5780   0.223   1.137  60.212  0.7783  0.1135 -0.0390
   45CHL1   H1A 5781   0.177   1.111  60.310  2.3717  2.7674  1.5093
   45CHL1   H1B 5782   0.182   1.236  60.186  0.1995 -0.5201 -1.6457
   45CHL1    C2 5783   0.172   1.039  60.108 -0.9547  0.3613  0.3380
   45CHL1   H2A 5784   0.062   1.055  60.101 -1.0638 -0.0415  1.0644
   45CHL1   H2B 5785   0.190   0.945  60.164 -0.0845  0.2216 -0.1582
   45CHL1   C20 5786   0.723   1.375  60.798  0.2931 -0.0183  0.6926
   45CHL1   H20 5787   0.722   1.266  60.818 -3.8107  0.2639  3.4232
   45CHL1   C21 5788   0.599   1.441  60.864  1.6216 -0.7649  0.8351
   45CHL1  H21A 5789   0.504   1.384  60.854  0.0429  1.5950  1.3416
   45CHL1  H21B 5790   0.578   1.545  60.831 -0.7826 -1.3193  0.4027
   45CHL1  H21C 5791   0.620   1.453  60.973  2.4577 -1.0215  0.7062
   45CHL1   C22 5792   0.853   1.425  60.869  0.2812 -0.0733  0.5708
   45CHL1  H22A 5793   0.821   1.440  60.974  3.8204  4.4597  1.3543
   45CHL1  H22B 5794   0.933   1.349  60.858  2.5884  2.4112 -1.3508
   45CHL1   C23 5795   0.891   1.566  60.824 -0.2522 -0.4245 -0.2292
   45CHL1  H23A 5796   0.996   1.561  60.789  0.1322 -2.3716  1.0328
   45CHL1  H23B 5797   0.845   1.601  60.729  2.6161  1.8327 -0.9390
   45CHL1   C24 5798   0.872   1.682  60.936 -0.8502  0.3206  1.1515
   45CHL1  H24A 5799   0.764   1.706  60.938 -0.7436  0.7420  2.3996
   45CHL1  H24B 5800   0.897   1.661  61.042 -1.3977  1.2590  1.4762
   45CHL1   C25 5801   0.951   1.813  60.898  0.2578 -0.3544 -1.1860
   45CHL1   H25 5802   0.960   1.820  60.788 -3.4790  1.1200 -1.5306
   45CHL1   C26 5803   0.881   1.933  60.958 -0.6924 -0.3860  0.0208
   45CHL1  H26A 5804   0.863   1.927  61.067  1.2033  0.7334  0.4402
   45CHL1  H26B 5805   0.931   2.030  60.934 -5.5602  2.7661  1.1325
   45CHL1  H26C 5806   0.780   1.948  60.913 -0.4840  4.3949  0.5504
   45CHL1   C27 5807   1.099   1.801  60.952 -0.2737 -0.8516 -0.2232
   45CHL1  H27A 5808   1.162   1.889  60.924  1.5274 -1.9207  0.3381
   45CHL1  H27B 5809   1.102   1.795  61.063  2.5115  1.6193 -0.0319
   45CHL1  H27C 5810   1.144   1.712  60.904 -1.5763 -0.7691 -1.7121
   46CHL1    C3 5811   0.271   2.452  70.251  1.1665 -0.1345  0.0826
   46CHL1    H3 5812   0.357   2.383  70.266  1.1980 -0.5108 -1.6352
   46CHL1    O3 5813   0.331   2.569  70.209  1.2018  0.2624  0.9178
   46CHL1   H3' 5814   0.260   2.634  70.207  0.0562 -0.9260 -1.6861
   46CHL1    C4 5815   0.168   2.398  70.152 -1.1101 -0.4069 -0.3774
   46CHL1   H4A 5816   0.094   2.481  70.145 -1.1902 -0.4977 -0.6272
   46CHL1   H4B 5817   0.205   2.377  70.049 -1.5309  2.3146 -1.1598
   46CHL1    C5 5818   0.094   2.275  70.202 -0.0329 -0.8034 -0.4625
   46CHL1    C6 5819   0.101   2.155  70.143  0.2974 -0.6276  0.5623
   46CHL1    H6 5820   0.155   2.149  70.047  2.3536  4.6906  1.0733
   46CHL1    C7 5821   0.025   2.039  70.189 -0.1361  0.4667 -0.4836
   46CHL1   H7A 5822  -0.013   1.976  70.106  0.9968 -0.9978  0.0622
   46CHL1   H7B 5823   0.097   1.972  70.241 -0.0032  1.8495  1.2045
   46CHL1    C8 5824  -0.070   2.054  70.307 -0.3390 -0.0901 -0.4361
   46CHL1    H8 5825  -0.169   2.091  70.271  1.4464  3.1756 -2.5548
   46CHL1   C14 5826  -0.078   1.926  70.393 -0.3147  0.6005  0.9605
   46CHL1   H14 5827   0.021   1.922  70.444  0.2283  1.7403  0.0486
   46CHL1   C15 5828  -0.083   1.792  70.320  0.2051 -0.1366 -0.3062
   46CHL1  H15A 5829  -0.156   1.800  70.237  0.3472  1.8810 -0.2639
   46CHL1  H15B 5830   0.016   1.751  70.289 -0.3071 -0.6887 -1.2571
   46CHL1   C16 5831  -0.144   1.707  70.436  0.2006 -0.7846  0.3361
   46CHL1  H16A 5832  -0.243   1.680  70.392  0.6549  0.2743 -1.4654
   46CHL1  H16B 5833  -0.072   1.625  70.459  1.0028 -0.0745  0.4146
   46CHL1   C17 5834  -0.152   1.791  70.565  0.0688 -0.2027  0.5973
   46CHL1   H17 5835  -0.046   1.797  70.598  1.4961 -0.8216 -3.3765
   46CHL1   C13 5836  -0.182   1.926  70.504 -0.3520 -0.4976  0.0411
   46CHL1   C18 5837  -0.330   1.936  70.441 -0.8024  0.6817  0.1313
   46CHL1  H18A 5838  -0.344   1.864  70.358 -1.2253  0.2739  0.5428
   46CHL1  H18B 5839  -0.398   1.910  70.526 -1.3693  3.7348  0.7246
   46CHL1  H18C 5840  -0.350   2.035  70.396 -1.3155  0.4149 -0.2401
   46CHL1   C12 5841  -0.158   2.048  70.593  0.0287 -0.9357 -0.1888
   46CHL1  H12A 5842  -0.236   2.048  70.672 -1.5317 -0.3621 -1.6732
   46CHL1  H12B 5843  -0.073   2.026  70.662  0.5595  0.9740 -0.1837
   46CHL1   C11 5844  -0.128   2.186  70.518  0.4332  0.2730  0.0206
   46CHL1  H11A 5845  -0.219   2.224  70.466  0.0825 -2.9859 -2.0447
   46CHL1  H11B 5846  -0.080   2.262  70.584 -1.6548  0.3748  1.5051
   46CHL1    C9 5847  -0.019   2.166  70.402  0.7010 -0.1217  0.2686
   46CHL1    H9 5848   0.073   2.126  70.449 -0.1086  1.6161  3.6638
   46CHL1   C10 5849   0.025   2.305  70.338  0.3092  0.3360 -0.8278
   46CHL1   C19 5850  -0.107   2.380  70.316  0.3137  0.0366 -0.3517
   46CHL1  H19A 5851  -0.189   2.322  70.268 -0.4428  0.1706  0.7509
   46CHL1  H19B 5852  -0.152   2.421  70.409 -0.2863 -1.4012  0.0252
   46CHL1  H19C 5853  -0.089   2.471  70.255 -0.1268 -0.1781 -0.8087
   46CHL1    C1 5854   0.118   2.377  70.431  0.0480  0.0482 -0.3062
   46CHL1   H1A 5855   0.063   2.411  70.521 -0.7484 -1.5496 -0.1627
   46CHL1   H1B 5856   0.192   2.310  70.480 -0.7584 -0.2773  0.5017
   46CHL1    C2 5857   0.194   2.501  70.376 -0.1533 -0.5316 -0.3434
   46CHL1   H2A 5858   0.267   2.531  70.454  0.7253 -0.4615 -1.1711
   46CHL1   H2B 5859   0.124   2.579  70.340 -0.3287 -1.1769 -1.4428
   46CHL1   C20 5860  -0.242   1.741  70.676  0.6637  0.3896 -0.0258
   46CHL1   H20 5861  -0.289   1.827  70.728  2.5847  3.1323 -2.4463
   46CHL1   C21 5862  -0.150   1.675  70.776 -0.6882  0.0359  0.0761
   46CHL1  H21A 5863  -0.123   1.580  70.726 -0.9757 -0.2116  0.3851
   46CHL1  H21B 5864  -0.202   1.644  70.869  0.4631 -2.0043  0.0837
   46CHL1  H21C 5865  -0.056   1.730  70.798 -0.5357 -0.1721 -0.0606
   46CHL1   C22 5866  -0.357   1.639  70.636  0.6064 -0.7601 -0.3959
   46CHL1  H22A 5867  -0.428   1.688  70.567  0.2050 -1.9849 -0.8727
   46CHL1  H22B 5868  -0.311   1.547  70.594  3.0418  0.4061 -0.4820
   46CHL1   C23 5869  -0.430   1.589  70.759 -1.3666 -0.1880  0.2034
   46CHL1  H23A 5870  -0.354   1.542  70.825  1.4245  0.5946 -2.2425
   46CHL1  H23B 5871  -0.472   1.678  70.811  0.7062  1.3302 -0.5773
   46CHL1   C24 5872  -0.532   1.474  70.737  0.1644 -0.1863 -0.4955
   46CHL1  H24A 5873  -0.607   1.510  70.663 -0.0686  1.7060  0.6020
   46CHL1  H24B 5874  -0.468   1.386  70.712  0.4695 -0.0236 -0.3030
   46CHL1   C25 5875  -0.607   1.436  70.863 -0.3062 -0.4968 -1.3823
   46CHL1   H25 5876  -0.538   1.438  70.950 -1.8476 -1.8178 -0.0686
   46CHL1   C26 5877  -0.710   1.542  70.893  0.4333  0.0661 -0.3039
   46CHL1  H26A 5878  -0.666   1.642  70.914 -0.2240  0.6533 -1.6314
   46CHL1  H26B 5879  -0.774   1.547  70.802 -1.0216 -1.6190  0.5623
   46CHL1  H26C 5880  -0.771   1.504  70.977  2.4535 -2.2489  0.2603
   46CHL1   C27 5881  -0.662   1.294  70.851  1.0496  0.7096  0.4837
   46CHL1  H27A 5882  -0.573   1.227  70.848  0.7824  0.3743 -0.2100
   46CHL1  H27B 5883  -0.728   1.270  70.936  0.0330 -0.6760 -0.6527
   46CHL1  H27C 5884  -0.719   1.283  70.756  0.0934  0.3870  1.0923
   47CHL1    C3 5885   0.757   0.733  60.054 -0.0370 -0.0024 -0.4940
   47CHL1    H3 5886   0.685   0.726  60.139 -1.3605 -1.6851 -1.7003
   47CHL1    O3 5887   0.691   0.739  59.926  0.7762  0.0365  0.4301
   47CHL1   H3' 5888   0.767   0.776  59.880  1.3496  0.7169  1.8679
   47CHL1    C4 5889   0.833   0.862  60.072 -0.8025 -0.3041 -0.2010
   47CHL1   H4A 5890   0.901   0.882  59.986  2.0194 -2.5502  1.3062
   47CHL1   H4B 5891   0.753   0.938  60.083 -0.7882 -0.3465  0.2251
   47CHL1    C5 5892   0.911   0.865  60.202  0.6207 -0.7415  0.7851
   47CHL1    C6 5893   0.893   0.969  60.289  0.6430 -0.4912  0.2815
   47CHL1    H6 5894   0.811   1.040  60.265  1.1539 -0.1750 -0.5704
   47CHL1    C7 5895   0.978   0.987  60.411 -0.0240  0.3296 -0.2221
   47CHL1   H7A 5896   1.048   1.073  60.403 -0.7534  0.7674 -2.5421
   47CHL1   H7B 5897   0.911   1.008  60.497  0.4890  2.4805 -0.2884
   47CHL1    C8 5898   1.079   0.874  60.430  0.5203  0.9124 -0.6956
   47CHL1    H8 5899   1.172   0.905  60.377  1.2731 -2.7911 -1.9094
   47CHL1   C14 5900   1.122   0.856  60.576  0.6530 -1.4131 -1.3699
   47CHL1   H14 5901   1.039   0.805  60.629  2.1695 -0.8774  1.7597
   47CHL1   C15 5902   1.149   0.981  60.653 -0.5880  0.1162 -0.8741
   47CHL1  H15A 5903   1.208   1.048  60.587  0.9061 -1.3250 -1.0821
   47CHL1  H15B 5904   1.051   1.020  60.687 -0.9292 -2.5957  1.6667
   47CHL1   C16 5905   1.233   0.937  60.768  1.0641 -0.0434  0.1450
   47CHL1  H16A 5906   1.326   0.992  60.792  1.3506 -1.0297  1.4303
   47CHL1  H16B 5907   1.178   0.952  60.863 -0.5814 -0.7978 -0.6316
   47CHL1   C17 5908   1.257   0.786  60.751 -0.2261  1.4280 -0.2603
   47CHL1   H17 5909   1.176   0.725  60.796 -1.6707  2.6293 -1.1688
   47CHL1   C13 5910   1.239   0.757  60.602 -0.2490 -0.0435  0.1525
   47CHL1   C18 5911   1.373   0.784  60.522 -0.5987  0.0234  0.4132
   47CHL1  H18A 5912   1.450   0.713  60.558  1.1333  2.0213  0.8688
   47CHL1  H18B 5913   1.354   0.763  60.414 -2.3515  0.2622  0.6519
   47CHL1  H18C 5914   1.410   0.886  60.548  1.8694  0.1900 -3.0346
   47CHL1   C12 5915   1.180   0.616  60.555  0.4167 -0.1392  0.4929
   47CHL1  H12A 5916   1.255   0.534  60.557 -1.0437 -1.4957  1.2083
   47CHL1  H12B 5917   1.112   0.580  60.635  2.2804 -0.8187  1.8514
   47CHL1   C11 5918   1.139   0.619  60.406 -0.5806  0.4649 -0.6247
   47CHL1  H11A 5919   1.229   0.617  60.341  1.8864  0.9983  2.5400
   47CHL1  H11B 5920   1.092   0.519  60.399 -0.6144  0.5057 -1.0091
   47CHL1    C9 5921   1.037   0.743  60.370  0.1450  0.4626  0.4150
   47CHL1    H9 5922   0.952   0.709  60.433  1.1980 -1.0987  1.0588
   47CHL1   C10 5923   0.997   0.746  60.221 -1.2818 -0.0583 -0.3094
   47CHL1   C19 5924   1.121   0.763  60.136  0.8049  0.7971 -0.3053
   47CHL1  H19A 5925   1.094   0.760  60.028  0.1366  2.3533 -0.2050
   47CHL1  H19B 5926   1.172   0.861  60.146 -0.5921  1.2947  4.5714
   47CHL1  H19C 5927   1.193   0.679  60.143 -0.1792 -0.1103 -0.6777
   47CHL1    C1 5928   0.933   0.604  60.183 -0.0327 -0.6785  0.1364
   47CHL1   H1A 5929   1.002   0.518  60.170  0.8230  0.0101  0.0053
   47CHL1   H1B 5930   0.857   0.577  60.259  0.9584 -1.9132  0.7209
   47CHL1    C2 5931   0.855   0.614  60.051  0.1741 -0.0806  0.4884
   47CHL1   H2A 5932   0.791   0.523  60.045 -0.7072  0.5950 -0.8899
   47CHL1   H2B 5933   0.920   0.614  59.962 -0.5935 -0.0172 -0.0842
   47CHL1   C20 5934   1.385   0.734  60.828  0.3249  0.3770 -0.1696
   47CHL1   H20 5935   1.471   0.777  60.773  1.1528 -1.4053 -0.3315
   47CHL1   C21 5936   1.399   0.580  60.814  0.3124 -0.2989 -0.1653
   47CHL1  H21A 5937   1.328   0.539  60.889 -1.2769 -1.8380 -2.3721
   47CHL1  H21B 5938   1.505   0.557  60.837  0.0546 -0.1412  1.2963
   47CHL1  H21C 5939   1.368   0.544  60.714 -2.8958 -1.5525  1.1396
   47CHL1   C22 5940   1.387   0.786  60.975 -0.2974 -0.2547 -0.1135
   47CHL1  H22A 5941   1.487   0.764  61.016 -0.7791 -1.2073  0.5882
   47CHL1  H22B 5942   1.367   0.895  60.983  0.8475 -0.0923  0.6094
   47CHL1   C23 5943   1.280   0.713  61.066  0.6240 -0.3471 -0.0672
   47CHL1  H23A 5944   1.179   0.715  61.020  0.7874  0.7402 -0.4034
   47CHL1  H23B 5945   1.312   0.608  61.082 -1.7151 -1.0201  0.6879
   47CHL1   C24 5946   1.271   0.778  61.203  0.3937  0.3927  0.2986
   47CHL1  H24A 5947   1.373   0.786  61.244  1.1438 -0.9498 -1.1918
   47CHL1  H24B 5948   1.246   0.886  61.187 -0.1237  0.0425 -1.5608
   47CHL1   C25 5949   1.183   0.721  61.314 -0.5419  0.4110  0.2021
   47CHL1   H25 5950   1.257   0.666  61.376  1.6346  1.8556 -0.9920
   47CHL1   C26 5951   1.122   0.830  61.394  0.3751  0.2629  0.2319
   47CHL1  H26A 5952   1.196   0.912  61.388  0.9273  0.1164  3.5138
   47CHL1  H26B 5953   1.098   0.803  61.499  1.2162  1.2346  0.6847
   47CHL1  H26C 5954   1.042   0.887  61.342  0.3702 -0.5908 -0.7444
   47CHL1   C27 5955   1.076   0.625  61.273 -0.4723  0.1642  0.3485
   47CHL1  H27A 5956   1.136   0.535  61.246 -0.4745 -0.7026  2.9399
   47CHL1  H27B 5957   1.010   0.612  61.361  0.9951  0.0439  1.4738
   47CHL1  H27C 5958   1.019   0.655  61.182  2.2890 -1.2318 -2.0563
   48CHL1    C3 5959   1.025   2.450  56.166  0.1829  0.7198  0.0625
   48CHL1    H3 5960   1.073   2.354  56.197 -0.0101  1.4590  2.9332
   48CHL1    O3 5961   0.966   2.496  56.290 -0.8851  0.2064 -0.2026
   48CHL1   H3' 5962   0.885   2.544  56.272  0.6322  2.8593 -0.5994
   48CHL1    C4 5963   1.119   2.552  56.112 -0.7309 -0.2340  0.1102
   48CHL1   H4A 5964   1.050   2.634  56.082  1.3005  0.7449 -2.3059
   48CHL1   H4B 5965   1.191   2.579  56.192 -1.2680 -0.8352  0.8085
   48CHL1    C5 5966   1.192   2.495  55.988  0.3534 -0.5181  0.0202
   48CHL1    C6 5967   1.321   2.472  56.005  0.1918 -0.0553 -0.4802
   48CHL1    H6 5968   1.370   2.510  56.095  1.4328 -1.2645 -0.6018
   48CHL1    C7 5969   1.404   2.413  55.901 -0.5797  0.4547  0.9747
   48CHL1   H7A 5970   1.489   2.477  55.870 -0.6712  0.2117  0.2075
   48CHL1   H7B 5971   1.436   2.310  55.928 -3.7456  0.2632  4.9323
   48CHL1    C8 5972   1.328   2.400  55.760  0.6420 -0.3425 -0.6621
   48CHL1    H8 5973   1.340   2.501  55.715 -2.4255  2.0435  3.1733
   48CHL1   C14 5974   1.399   2.298  55.679 -0.1915 -0.5118  0.8330
   48CHL1   H14 5975   1.384   2.203  55.735 -2.4088 -1.6792 -1.5241
   48CHL1   C15 5976   1.550   2.293  55.664 -0.5994  0.3311 -0.0494
   48CHL1  H15A 5977   1.600   2.388  55.634  0.3069  0.2089  0.9902
   48CHL1  H15B 5978   1.599   2.263  55.759 -1.3639 -1.1078 -0.0711
   48CHL1   C16 5979   1.566   2.190  55.547 -0.4318 -1.0102 -0.1465
   48CHL1  H16A 5980   1.640   2.229  55.473 -2.1740  1.8503 -0.5467
   48CHL1  H16B 5981   1.596   2.093  55.592  0.9420  0.1444  1.5276
   48CHL1   C17 5982   1.424   2.158  55.500 -0.7348 -0.6579  0.6341
   48CHL1   H17 5983   1.397   2.073  55.567 -0.6805 -1.0399  0.1768
   48CHL1   C13 5984   1.333   2.269  55.548 -1.1989 -0.4097  0.5902
   48CHL1   C18 5985   1.360   2.394  55.468  0.8014 -1.1530  0.5325
   48CHL1  H18A 5986   1.330   2.487  55.519  1.7383 -0.8744  0.5829
   48CHL1  H18B 5987   1.470   2.405  55.463  0.7303 -0.4599  0.3862
   48CHL1  H18C 5988   1.304   2.400  55.372 -0.2991  0.8886  1.2346
   48CHL1   C12 5989   1.184   2.233  55.555 -0.1602 -0.9879 -0.3732
   48CHL1  H12A 5990   1.130   2.220  55.458 -1.7000 -0.1258  0.3273
   48CHL1  H12B 5991   1.190   2.133  55.602 -0.3691 -0.4598  0.7970
   48CHL1   C11 5992   1.101   2.329  55.643  0.5038  0.1801 -0.1729
   48CHL1  H11A 5993   1.092   2.421  55.580 -1.6032  0.3203  0.2573
   48CHL1  H11B 5994   0.995   2.299  55.659  0.6355 -0.1758  0.0253
   48CHL1    C9 5995   1.177   2.369  55.779  0.0835  0.3762  0.3003
   48CHL1    H9 5996   1.193   2.273  55.832  3.3297  2.4722  3.6439
   48CHL1   C10 5997   1.101   2.456  55.878  1.0036  0.3582  0.4435
   48CHL1   C19 5998   1.060   2.582  55.802 -0.3593 -0.2824 -0.3432
   48CHL1  H19A 5999   1.146   2.634  55.754 -0.0868 -0.4524 -0.0479
   48CHL1  H19B 6000   0.994   2.548  55.720 -2.2121  0.6732  0.6972
   48CHL1  H19C 6001   0.993   2.646  55.864  1.4559  2.5041 -1.0440
   48CHL1    C1 6002   0.982   2.369  55.943  0.6390 -0.1792  0.6445
   48CHL1   H1A 6003   0.900   2.368  55.869  1.3176  3.4580 -0.3278
   48CHL1   H1B 6004   1.024   2.269  55.970  2.0976  0.3791  0.5484
   48CHL1    C2 6005   0.917   2.423  56.077 -0.6601  0.0078  0.8534
   48CHL1   H2A 6006   0.840   2.357  56.124 -1.1080  1.7700  2.7570
   48CHL1   H2B 6007   0.865   2.520  56.063 -0.4348  0.3399  2.1957
   48CHL1   C20 6008   1.405   2.098  55.351  0.1318 -0.5515 -0.2682
   48CHL1   H20 6009   1.295   2.087  55.349 -0.2251  1.3982  2.2808
   48CHL1   C21 6010   1.466   1.962  55.336 -0.4242 -0.0717 -0.7773
   48CHL1  H21A 6011   1.576   1.972  55.352 -0.5806  3.8151 -1.0705
   48CHL1  H21B 6012   1.442   1.917  55.237 -1.9694 -1.1834  0.0661
   48CHL1  H21C 6013   1.428   1.889  55.411  2.9444 -1.5441 -0.3211
   48CHL1   C22 6014   1.472   2.188  55.246  0.3800  0.3745 -0.2981
   48CHL1  H22A 6015   1.434   2.292  55.261 -1.0215 -0.3351  1.3138
   48CHL1  H22B 6016   1.581   2.175  55.263  0.9849 -0.4869 -3.9278
   48CHL1   C23 6017   1.435   2.159  55.091  0.1116 -0.3127  0.2611
   48CHL1  H23A 6018   1.495   2.229  55.030  1.8541  0.5064  2.7454
   48CHL1  H23B 6019   1.452   2.052  55.066 -1.3773 -0.8539  1.4463
   48CHL1   C24 6020   1.293   2.212  55.068  0.1602 -0.3696  0.7887
   48CHL1  H24A 6021   1.220   2.176  55.144  0.5535  0.1330  1.4147
   48CHL1  H24B 6022   1.299   2.321  55.085  1.1468 -0.5516  1.7452
   48CHL1   C25 6023   1.220   2.167  54.933 -0.6605  0.0620  0.5382
   48CHL1   H25 6024   1.115   2.201  54.924 -0.5782  0.2763  0.3652
   48CHL1   C26 6025   1.301   2.215  54.816  0.5928  0.0071  0.4643
   48CHL1  H26A 6026   1.394   2.156  54.804 -0.1009 -0.9090 -0.6332
   48CHL1  H26B 6027   1.240   2.203  54.723  0.4813 -1.4791  0.6971
   48CHL1  H26C 6028   1.339   2.319  54.815  1.9336 -0.4541 -0.8519
   48CHL1   C27 6029   1.223   2.019  54.918  0.5460  0.3244 -0.0957
   48CHL1  H27A 6030   1.327   1.980  54.929  0.9472  1.2633 -0.4406
   48CHL1  H27B 6031   1.175   1.962  55.000 -1.4184  0.3832 -1.1600
   48CHL1  H27C 6032   1.180   2.005  54.816  2.6530  1.3362 -1.1901
   49CHL1    C3 6033   2.366   2.633  72.896 -0.3810  0.5186  0.1648
   49CHL1    H3 6034   2.462   2.589  72.861  0.1515  0.8845  1.0921
   49CHL1    O3 6035   2.396   2.682  73.026 -0.3329  0.3528  0.0871
   49CHL1   H3' 6036   2.467   2.745  73.017 -2.2670  2.3696 -2.9268
   49CHL1    C4 6037   2.326   2.755  72.818 -0.0013 -0.0209 -0.1758
   49CHL1   H4A 6038   2.235   2.795  72.869 -0.2025 -1.0371  0.2740
   49CHL1   H4B 6039   2.398   2.840  72.821 -0.5533  0.4603 -0.1229
   49CHL1    C5 6040   2.275   2.711  72.682  0.5327 -0.2129  0.4227
   49CHL1    C6 6041   2.324   2.775  72.572  0.1932  0.2880  0.0425
   49CHL1    H6 6042   2.402   2.851  72.583  0.2558  0.0685  1.1533
   49CHL1    C7 6043   2.286   2.747  72.426 -0.3452 -0.1762  0.1468
   49CHL1   H7A 6044   2.250   2.845  72.386  1.0884 -0.0263 -0.8383
   49CHL1   H7B 6045   2.380   2.713  72.378 -0.1789 -0.9612  1.0077
   49CHL1    C8 6046   2.179   2.633  72.402  0.0445  0.7443 -0.2767
   49CHL1    H8 6047   2.082   2.688  72.404  0.6015  1.7761 -0.5126
   49CHL1   C14 6048   2.192   2.568  72.265 -0.8632  0.5961  0.2462
   49CHL1   H14 6049   2.293   2.524  72.277 -1.2711 -0.1063  1.2526
   49CHL1   C15 6050   2.197   2.656  72.139 -0.2708  0.9643  0.5243
   49CHL1  H15A 6051   2.113   2.729  72.143  0.0085  1.4503 -1.5691
   49CHL1  H15B 6052   2.298   2.700  72.126  0.4064 -0.9563 -1.2225
   49CHL1   C16 6053   2.158   2.560  72.025  0.4410 -0.2522  0.4856
   49CHL1  H16A 6054   2.081   2.604  71.958  0.6667 -0.8500 -0.1767
   49CHL1  H16B 6055   2.244   2.551  71.956 -1.8383  0.5303 -2.6905
   49CHL1   C17 6056   2.128   2.424  72.088  0.7814  0.1722  0.4024
   49CHL1   H17 6057   2.228   2.376  72.095  0.8638  0.3070  0.1696
   49CHL1   C13 6058   2.093   2.459  72.233  0.5319  0.1125 -0.4857
   49CHL1   C18 6059   1.941   2.520  72.231  0.1807  0.6594 -0.2632
   49CHL1  H18A 6060   1.943   2.616  72.175 -0.6997 -0.0851 -1.6111
   49CHL1  H18B 6061   1.870   2.446  72.189 -0.8371  0.6937  1.3487
   49CHL1  H18C 6062   1.920   2.539  72.338  1.8038  2.7381 -0.2372
   49CHL1   C12 6063   2.101   2.352  72.349  0.1246 -0.0882 -0.2060
   49CHL1  H12A 6064   2.016   2.283  72.332 -0.8779  1.2068 -0.6296
   49CHL1  H12B 6065   2.194   2.292  72.349 -0.1824 -0.5731 -0.4868
   49CHL1   C11 6066   2.083   2.415  72.488  0.9579 -0.2272 -0.6389
   49CHL1  H11A 6067   1.982   2.461  72.495  0.8173 -0.6529  0.3117
   49CHL1  H11B 6068   2.096   2.335  72.564  2.1006  1.8030  1.4475
   49CHL1    C9 6069   2.183   2.526  72.516 -0.0867  0.3895  0.3537
   49CHL1    H9 6070   2.287   2.490  72.502 -0.3445 -0.4596  0.5932
   49CHL1   C10 6071   2.180   2.584  72.661  0.4842  0.1621  0.5492
   49CHL1   C19 6072   2.036   2.629  72.690 -0.1289 -0.0618  0.5105
   49CHL1  H19A 6073   2.004   2.697  72.607  1.4576  0.8062  0.5751
   49CHL1  H19B 6074   1.974   2.537  72.695  1.3407 -1.4554 -3.3729
   49CHL1  H19C 6075   2.028   2.696  72.779 -1.3071 -0.3239  0.6224
   49CHL1    C1 6076   2.218   2.472  72.762 -0.0220 -0.8080  0.1494
   49CHL1   H1A 6077   2.135   2.398  72.758  0.2795 -1.1079 -2.8312
   49CHL1   H1B 6078   2.305   2.412  72.728 -0.3991 -1.8131  0.8944
   49CHL1    C2 6079   2.248   2.527  72.898  0.1940  0.2007 -0.0637
   49CHL1   H2A 6080   2.276   2.443  72.965 -0.0248 -0.9649 -1.3969
   49CHL1   H2B 6081   2.160   2.564  72.955 -0.6303 -1.3028 -0.3234
   49CHL1   C20 6082   2.035   2.329  72.008  0.0203  0.4150 -0.1526
   49CHL1   H20 6083   1.942   2.385  71.988  1.9738  3.0712 -2.5664
   49CHL1   C21 6084   2.001   2.195  72.075 -0.8294  0.2594 -0.0142
   49CHL1  H21A 6085   1.934   2.194  72.163 -3.1656 -0.7901 -1.7200
   49CHL1  H21B 6086   2.090   2.130  72.090 -0.3393  1.0117  0.4309
   49CHL1  H21C 6087   1.933   2.143  72.004 -0.2588 -1.1287  0.4408
   49CHL1   C22 6088   2.095   2.311  71.868  0.0087  0.2982  0.3791
   49CHL1  H22A 6089   2.111   2.412  71.824 -1.5836  0.3710 -0.1014
   49CHL1  H22B 6090   2.191   2.255  71.876  0.0343 -0.2734 -2.7470
   49CHL1   C23 6091   2.006   2.247  71.774 -0.1817 -0.3544  0.9259
   49CHL1  H23A 6092   1.970   2.145  71.802 -0.0241 -0.9720 -0.9864
   49CHL1  H23B 6093   1.919   2.312  71.751 -0.9445 -1.5744  0.2489
   49CHL1   C24 6094   2.087   2.216  71.644  0.3057 -0.0240 -0.1873
   49CHL1  H24A 6095   2.004   2.171  71.586 -1.7798  1.6601  1.3127
   49CHL1  H24B 6096   2.121   2.310  71.596 -0.0601  1.3181  2.0389
   49CHL1   C25 6097   2.209   2.125  71.653 -0.1596  0.2192  0.0297
   49CHL1   H25 6098   2.294   2.188  71.684  1.3988 -1.6650 -0.1832
   49CHL1   C26 6099   2.199   1.996  71.746 -0.4901  0.4068 -0.0871
   49CHL1  H26A 6100   2.124   1.922  71.711  1.5282 -2.0226  0.4340
   49CHL1  H26B 6101   2.294   1.939  71.745 -1.4193 -1.2031 -0.2440
   49CHL1  H26C 6102   2.185   2.021  71.853 -1.2323 -4.4913  1.2077
   49CHL1   C27 6103   2.247   2.068  71.517 -0.0427  0.2679  1.0794
   49CHL1  H27A 6104   2.251   2.144  71.436  2.5768 -1.8480 -0.9853
   49CHL1  H27B 6105   2.354   2.037  71.522  0.6062  2.1698  0.3406
   49CHL1  H27C 6106   2.180   1.988  71.481 -2.7455  3.2086 -1.0543
   50CHL1    C3 6107   1.563   0.903  59.456 -0.0351 -0.1976  1.0326
   50CHL1    H3 6108   1.673   0.915  59.461  0.1817 -0.0173 -2.1735
   50CHL1    O3 6109   1.533   0.768  59.407  0.0338  0.0263  0.3471
   50CHL1   H3' 6110   1.500   0.786  59.318 -0.7852  0.9494  0.8224
   50CHL1    C4 6111   1.519   0.910  59.605 -0.2769  0.3756 -0.1159
   50CHL1   H4A 6112   1.416   0.871  59.615 -0.5666  1.3976  1.1144
   50CHL1   H4B 6113   1.579   0.838  59.665  0.5105  1.3274  0.2701
   50CHL1    C5 6114   1.531   1.052  59.657 -0.7416 -0.0929  0.7415
   50CHL1    C6 6115   1.598   1.096  59.772  0.5648  0.5006 -0.1074
   50CHL1    H6 6116   1.636   1.012  59.831  2.1777  0.4012 -1.2045
   50CHL1    C7 6117   1.606   1.244  59.815  0.1088 -0.3227  0.2142
   50CHL1   H7A 6118   1.604   1.241  59.927 -2.8626 -2.8254  0.2117
   50CHL1   H7B 6119   1.698   1.296  59.780 -0.1130 -0.7922 -1.0850
   50CHL1    C8 6120   1.492   1.336  59.771 -0.3411  0.0038 -0.6982
   50CHL1    H8 6121   1.397   1.289  59.803  1.9482 -4.3645  0.4256
   50CHL1   C14 6122   1.523   1.481  59.803  1.0191 -0.7602  0.2223
   50CHL1   H14 6123   1.616   1.506  59.748 -0.6572 -1.9296 -3.4534
   50CHL1   C15 6124   1.525   1.524  59.949  0.7194  0.0905 -0.1404
   50CHL1  H15A 6125   1.431   1.490  59.998  0.8151  1.1886  0.8503
   50CHL1  H15B 6126   1.611   1.488  60.009 -0.3506  1.4907  2.3742
   50CHL1   C16 6127   1.514   1.673  59.937  0.4686 -0.9872  0.2572
   50CHL1  H16A 6128   1.449   1.711  60.019  2.2627 -1.8541  2.1474
   50CHL1  H16B 6129   1.615   1.717  59.949  1.1579 -1.8623 -1.8842
   50CHL1   C17 6130   1.458   1.711  59.796 -0.6596 -0.3500  0.1732
   50CHL1   H17 6131   1.547   1.733  59.734  0.2269 -1.6554  0.9151
   50CHL1   C13 6132   1.416   1.573  59.736  0.2590  0.5743 -0.2720
   50CHL1   C18 6133   1.274   1.545  59.778 -0.2296  0.1178 -1.1116
   50CHL1  H18A 6134   1.253   1.437  59.759  1.2047 -0.3553 -0.1706
   50CHL1  H18B 6135   1.267   1.555  59.888 -1.2135  0.6151 -1.2110
   50CHL1  H18C 6136   1.202   1.615  59.732  1.5945  0.7017 -3.2600
   50CHL1   C12 6137   1.428   1.559  59.585 -0.8482  1.1354  0.5490
   50CHL1  H12A 6138   1.365   1.634  59.533 -2.7296  1.9627  3.7214
   50CHL1  H12B 6139   1.533   1.587  59.560 -1.2173  0.7654 -1.6094
   50CHL1   C11 6140   1.395   1.406  59.550  1.0503  0.0102  0.5543
   50CHL1  H11A 6141   1.287   1.386  59.567  0.7957 -0.2762 -1.1533
   50CHL1  H11B 6142   1.395   1.409  59.439 -0.7862  2.7703  0.5369
   50CHL1    C9 6143   1.498   1.315  59.613 -0.3306 -0.0149 -0.0426
   50CHL1    H9 6144   1.605   1.338  59.591  0.1907  1.6992  3.4920
   50CHL1   C10 6145   1.467   1.163  59.568 -0.8613  0.0800 -0.0875
   50CHL1   C19 6146   1.314   1.129  59.569 -0.6402  0.3917 -0.2465
   50CHL1  H19A 6147   1.302   1.023  59.535 -0.6895 -1.0075  3.6642
   50CHL1  H19B 6148   1.256   1.154  59.661 -2.0977  0.8180 -1.2335
   50CHL1  H19C 6149   1.274   1.186  59.482  0.2908  1.5430  0.0694
   50CHL1    C1 6150   1.517   1.149  59.419 -0.4526  0.8307 -0.1927
   50CHL1   H1A 6151   1.441   1.214  59.369  0.4917  1.2046 -1.1872
   50CHL1   H1B 6152   1.621   1.185  59.404 -0.3365  0.7766  0.4654
   50CHL1    C2 6153   1.505   1.006  59.359  0.7141 -0.0130 -0.3533
   50CHL1   H2A 6154   1.568   1.007  59.268  2.5075 -1.0758  0.8153
   50CHL1   H2B 6155   1.398   0.985  59.337  0.7819  0.7981 -1.5273
   50CHL1   C20 6156   1.357   1.827  59.800  0.5195 -1.1645  0.1753
   50CHL1   H20 6157   1.273   1.792  59.863  1.0116 -0.5986  1.1512
   50CHL1   C21 6158   1.313   1.855  59.653  0.4425 -0.2675  0.1814
   50CHL1  H21A 6159   1.403   1.873  59.590 -0.8303  0.7556 -1.4463
   50CHL1  H21B 6160   1.259   1.952  59.645 -0.6273 -0.6304  2.4276
   50CHL1  H21C 6161   1.252   1.775  59.605  2.1841 -3.1681  2.4564
   50CHL1   C22 6162   1.414   1.957  59.860 -0.0782 -0.7695 -0.0662
   50CHL1  H22A 6163   1.332   2.029  59.841 -1.7327 -1.4373  3.6561
   50CHL1  H22B 6164   1.410   1.938  59.969  0.9845  0.0371  0.1319
   50CHL1   C23 6165   1.542   2.014  59.812  0.3137 -0.2954  0.4335
   50CHL1  H23A 6166   1.624   1.939  59.820  1.1010  0.5587  0.4724
   50CHL1  H23B 6167   1.552   2.056  59.710  1.6181 -2.9202 -0.6280
   50CHL1   C24 6168   1.600   2.117  59.914  0.2382 -0.2251  0.4861
   50CHL1  H24A 6169   1.521   2.194  59.914 -0.2846 -0.6303  3.8305
   50CHL1  H24B 6170   1.609   2.078  60.018  0.9738 -0.9446  0.1691
   50CHL1   C25 6171   1.739   2.185  59.878  0.3216  0.2581  0.0526
   50CHL1   H25 6172   1.727   2.235  59.779  0.6558  0.0467 -0.0993
   50CHL1   C26 6173   1.779   2.313  59.961  0.5669  0.7713  0.0177
   50CHL1  H26A 6174   1.813   2.296  60.066 -0.0366  1.5042  0.3440
   50CHL1  H26B 6175   1.861   2.362  59.904 -0.9765  2.0994 -1.1700
   50CHL1  H26C 6176   1.694   2.385  59.969  0.5820  0.5792  3.3166
   50CHL1   C27 6177   1.841   2.077  59.877  0.1355 -0.3134 -0.6847
   50CHL1  H27A 6178   1.815   1.992  59.811  0.7533  1.0098 -2.7259
   50CHL1  H27B 6179   1.934   2.107  59.824 -1.6644 -0.1967 -4.0403
   50CHL1  H27C 6180   1.858   2.040  59.980 -0.7097  0.1628 -0.3592
   51CHL1    C3 6181   1.256   2.075  72.826 -0.7501  0.2571 -0.6741
   51CHL1    H3 6182   1.268   2.185  72.837 -1.7053  0.1137  3.1881
   51CHL1    O3 6183   1.278   2.029  72.962  0.4004  0.9041  0.3762
   51CHL1   H3' 6184   1.364   1.988  72.960  0.5949  1.2490  1.3272
   51CHL1    C4 6185   1.110   2.038  72.789 -0.3189 -0.5942  0.2615
   51CHL1   H4A 6186   1.097   1.929  72.801  0.8150 -0.8075 -0.3574
   51CHL1   H4B 6187   1.032   2.077  72.858  1.8082  2.2382  1.2882
   51CHL1    C5 6188   1.085   2.088  72.653 -0.9403 -1.0723  0.5569
   51CHL1    C6 6189   0.991   2.189  72.642  0.3214 -0.4385 -0.0972
   51CHL1    H6 6190   0.945   2.229  72.734 -2.0907 -0.8810 -1.0542
   51CHL1    C7 6191   0.949   2.264  72.517 -0.5608 -1.0401 -0.2459
   51CHL1   H7A 6192   0.840   2.288  72.516 -0.2831  0.2705 -0.5473
   51CHL1   H7B 6193   1.002   2.361  72.520 -0.4925 -1.0567 -0.7714
   51CHL1    C8 6194   0.985   2.169  72.397 -0.0638 -0.0502 -0.1449
   51CHL1    H8 6195   0.906   2.093  72.404 -0.1408 -0.3800 -3.2250
   51CHL1   C14 6196   0.970   2.230  72.263 -0.3434  0.1960 -0.6493
   51CHL1   H14 6197   1.058   2.294  72.241 -0.0061  0.4062  1.1782
   51CHL1   C15 6198   0.839   2.308  72.234  0.2113 -0.0524  0.6337
   51CHL1  H15A 6199   0.751   2.269  72.291 -0.2702 -1.2028 -0.8386
   51CHL1  H15B 6200   0.844   2.413  72.269 -0.1860 -0.3121  1.4996
   51CHL1   C16 6201   0.821   2.292  72.082  0.0952 -0.2381 -0.1694
   51CHL1  H16A 6202   0.719   2.256  72.057 -1.1649  0.9160  2.8678
   51CHL1  H16B 6203   0.822   2.399  72.050  0.2081  0.0672  0.8248
   51CHL1   C17 6204   0.936   2.208  72.025 -0.0249  0.0096  0.4997
   51CHL1   H17 6205   1.017   2.279  71.998 -0.4098 -0.5111 -2.3225
   51CHL1   C13 6206   0.985   2.121  72.149  0.1185  0.4150  0.5501
   51CHL1   C18 6207   0.889   2.000  72.165  0.3082 -0.5261  0.6480
   51CHL1  H18A 6208   0.785   2.032  72.141  0.6494 -1.0304 -1.6673
   51CHL1  H18B 6209   0.912   1.914  72.099  1.4925  1.3997 -1.5622
   51CHL1  H18C 6210   0.885   1.957  72.268  2.3954 -2.0697  0.1434
   51CHL1   C12 6211   1.126   2.075  72.153 -1.1692 -0.5889  0.3986
   51CHL1  H12A 6212   1.158   2.004  72.073 -0.5729 -2.6735  2.3963
   51CHL1  H12B 6213   1.201   2.155  72.133  0.9397 -2.5748 -0.2224
   51CHL1   C11 6214   1.171   2.026  72.289 -1.0120  0.7762 -0.6757
   51CHL1  H11A 6215   1.127   1.925  72.300 -0.4545  0.5500 -0.4731
   51CHL1  H11B 6216   1.282   2.022  72.292 -0.7129  3.0925  5.7347
   51CHL1    C9 6217   1.123   2.109  72.410 -0.8786 -0.1345 -0.0491
   51CHL1    H9 6218   1.185   2.201  72.413 -1.7077  0.4273  0.1532
   51CHL1   C10 6219   1.167   2.040  72.542  0.7941 -0.0425 -0.2895
   51CHL1   C19 6220   1.145   1.882  72.539  0.5562 -0.6243  0.3369
   51CHL1  H19A 6221   1.159   1.839  72.640 -0.5304  0.2069  0.8764
   51CHL1  H19B 6222   1.047   1.864  72.489  0.7407  0.1381 -0.3030
   51CHL1  H19C 6223   1.230   1.842  72.480 -1.5462 -1.4347 -2.3768
   51CHL1    C1 6224   1.314   2.078  72.575 -0.0979  0.3753  0.8270
   51CHL1   H1A 6225   1.380   2.029  72.500 -0.5958  2.2628 -0.9231
   51CHL1   H1B 6226   1.337   2.187  72.578  1.2081  0.0962  3.2054
   51CHL1    C2 6227   1.357   2.036  72.718 -0.0524  0.0818  0.5722
   51CHL1   H2A 6228   1.462   2.064  72.738  0.7205 -2.9607  1.2819
   51CHL1   H2B 6229   1.358   1.925  72.711  2.8388  0.1444 -1.7950
   51CHL1   C20 6230   0.896   2.140  71.893  0.6951  0.4030  1.1785
   51CHL1   H20 6231   0.804   2.083  71.917  0.1088  0.8390  0.0448
   51CHL1   C21 6232   1.012   2.042  71.849 -0.4971 -0.3253 -0.1818
   51CHL1  H21A 6233   1.110   2.089  71.826  0.6849 -2.0535  1.0845
   51CHL1  H21B 6234   0.972   1.994  71.757 -0.4287  0.5803 -0.6920
   51CHL1  H21C 6235   1.025   1.959  71.922  0.3993  1.1153  1.3426
   51CHL1   C22 6236   0.860   2.238  71.786  0.1898 -0.0055  0.5874
   51CHL1  H22A 6237   0.793   2.320  71.820  2.1691  2.1965 -0.5326
   51CHL1  H22B 6238   0.947   2.303  71.762 -0.8267  0.3738 -2.4421
   51CHL1   C23 6239   0.817   2.195  71.644  0.4986  0.3013 -0.4362
   51CHL1  H23A 6240   0.909   2.154  71.596 -0.6824 -2.4455 -0.5630
   51CHL1  H23B 6241   0.730   2.126  71.653 -1.9295  2.9230 -2.1540
   51CHL1   C24 6242   0.759   2.322  71.572 -0.5488  0.0959 -0.2147
   51CHL1  H24A 6243   0.698   2.376  71.647  0.7039 -0.0732  0.9684
   51CHL1  H24B 6244   0.840   2.396  71.552  0.8050 -0.7198  1.9184
   51CHL1   C25 6245   0.667   2.306  71.454  0.0295 -0.2037 -1.0470
   51CHL1   H25 6246   0.580   2.241  71.475 -1.6185  1.2475 -3.0501
   51CHL1   C26 6247   0.612   2.447  71.406  0.3515  0.3308  0.3377
   51CHL1  H26A 6248   0.523   2.466  71.470 -1.2012 -1.1847 -1.2187
   51CHL1  H26B 6249   0.682   2.532  71.417 -0.0297  0.7741 -0.5219
   51CHL1  H26C 6250   0.566   2.449  71.304  1.8226  3.9982 -0.4165
   51CHL1   C27 6251   0.748   2.243  71.335  1.3055 -0.1162  0.0697
   51CHL1  H27A 6252   0.807   2.158  71.376 -0.5897 -1.0417  1.0179
   51CHL1  H27B 6253   0.676   2.202  71.261  0.2462  0.2015  0.8940
   51CHL1  H27C 6254   0.810   2.325  71.293  0.3916  2.2782  3.0032
   52CHL1    C3 6255   2.554   0.810  55.831 -0.9710  1.2398  0.2799
   52CHL1    H3 6256   2.453   0.827  55.789 -0.6908 -1.2828 -1.6915
   52CHL1    O3 6257   2.540   0.748  55.961  1.0856 -0.2348  0.8557
   52CHL1   H3' 6258   2.623   0.766  56.006  1.5627  2.9545 -1.0265
   52CHL1    C4 6259   2.649   0.735  55.744  0.5794  1.4483  0.6235
   52CHL1   H4A 6260   2.755   0.738  55.776  1.1597  0.4641 -1.1083
   52CHL1   H4B 6261   2.615   0.630  55.746 -2.4986  2.3485  1.0649
   52CHL1    C5 6262   2.662   0.801  55.612  0.0071 -0.9072  0.7446
   52CHL1    C6 6263   2.635   0.745  55.495  0.5134 -0.4465  0.1294
   52CHL1    H6 6264   2.599   0.641  55.485 -0.4311 -0.2794  1.4692
   52CHL1    C7 6265   2.641   0.800  55.361  0.1478 -0.8428  0.6489
   52CHL1   H7A 6266   2.704   0.731  55.302  1.9879  1.4544 -0.2189
   52CHL1   H7B 6267   2.546   0.798  55.303  1.9835 -0.4185 -2.5959
   52CHL1    C8 6268   2.697   0.944  55.364  0.0634 -0.3222 -0.1776
   52CHL1    H8 6269   2.807   0.927  55.362 -0.4027 -5.0210  0.9103
   52CHL1   C14 6270   2.655   1.023  55.234 -0.3780 -0.2327 -0.8522
   52CHL1   H14 6271   2.545   1.036  55.239 -0.5644 -0.1736 -3.6786
   52CHL1   C15 6272   2.684   0.971  55.089 -0.3828 -0.1395  0.7800
   52CHL1  H15A 6273   2.788   0.935  55.077 -0.3357  0.6636 -1.8094
   52CHL1  H15B 6274   2.612   0.889  55.068  0.5827 -1.0351  0.8918
   52CHL1   C16 6275   2.665   1.099  55.003  1.6800  0.5383  0.2742
   52CHL1  H16A 6276   2.752   1.110  54.934  0.6188  0.2900 -1.1504
   52CHL1  H16B 6277   2.582   1.091  54.929  3.2489  2.3189 -1.8365
   52CHL1   C17 6278   2.651   1.225  55.097 -0.5039 -0.1408  0.0659
   52CHL1   H17 6279   2.543   1.246  55.110  0.0894  3.6824  0.1156
   52CHL1   C13 6280   2.702   1.174  55.237  0.3335 -0.7783  0.2291
   52CHL1   C18 6281   2.854   1.170  55.232 -0.0715 -0.0563  0.1916
   52CHL1  H18A 6282   2.903   1.115  55.315  3.2859  3.2200  0.6558
   52CHL1  H18B 6283   2.894   1.134  55.134  0.2915  0.1631  0.2544
   52CHL1  H18C 6284   2.895   1.273  55.241 -0.5397  0.5384 -3.2007
   52CHL1   C12 6285   2.636   1.248  55.363 -0.7996 -0.6418  0.4445
   52CHL1  H12A 6286   2.661   1.357  55.365 -0.8173 -0.6425  2.2411
   52CHL1  H12B 6287   2.525   1.243  55.360 -0.9886  0.6313  2.6890
   52CHL1   C11 6288   2.688   1.182  55.484  0.5494 -0.9762  0.0364
   52CHL1  H11A 6289   2.798   1.198  55.488  0.3443  1.0640 -1.0855
   52CHL1  H11B 6290   2.641   1.218  55.578  1.7970 -1.9722  1.0780
   52CHL1    C9 6291   2.652   1.029  55.484  0.7232  0.3807 -0.2639
   52CHL1    H9 6292   2.542   1.034  55.476  0.2811  1.5281  3.8237
   52CHL1   C10 6293   2.694   0.954  55.613  0.4526 -0.1059 -0.0135
   52CHL1   C19 6294   2.848   0.983  55.634  0.2757  0.6247  1.4570
   52CHL1  H19A 6295   2.904   0.914  55.566 -1.9689 -0.4808  0.6416
   52CHL1  H19B 6296   2.875   1.090  55.620  2.7507  0.0127  0.9996
   52CHL1  H19C 6297   2.860   0.974  55.744 -3.1449 -0.0220  1.8728
   52CHL1    C1 6298   2.615   1.027  55.723 -0.2014 -0.6418 -0.5391
   52CHL1   H1A 6299   2.665   1.122  55.752  0.0277 -0.0349 -2.7634
   52CHL1   H1B 6300   2.509   1.035  55.694 -0.8209  0.0210  1.7127
   52CHL1    C2 6301   2.618   0.953  55.852 -0.1436  0.8531 -0.1825
   52CHL1   H2A 6302   2.577   1.008  55.940 -1.4256  1.0458 -0.8815
   52CHL1   H2B 6303   2.724   0.933  55.879 -0.7075  0.2152  1.7307
   52CHL1   C20 6304   2.710   1.352  55.028  0.9110 -0.0074  0.4765
   52CHL1   H20 6305   2.819   1.347  55.010  0.6361  1.2776 -2.1025
   52CHL1   C21 6306   2.706   1.471  55.121 -0.1446 -0.0293  0.2111
   52CHL1  H21A 6307   2.750   1.560  55.072 -2.2125  1.0533  0.2205
   52CHL1  H21B 6308   2.777   1.449  55.203 -0.7056  0.3117  0.8019
   52CHL1  H21C 6309   2.607   1.488  55.168 -1.3377 -1.4767 -1.6241
   52CHL1   C22 6310   2.643   1.389  54.891 -0.3319  0.0549 -0.2780
   52CHL1  H22A 6311   2.704   1.471  54.848  0.8149 -0.5910  0.0744
   52CHL1  H22B 6312   2.645   1.309  54.813 -3.1131  1.0277 -1.4609
   52CHL1   C23 6313   2.495   1.449  54.913  0.0449  0.3624 -0.0413
   52CHL1  H23A 6314   2.434   1.382  54.977 -0.7669  2.2938  1.2814
   52CHL1  H23B 6315   2.489   1.547  54.964  1.2295 -0.9308  2.8184
   52CHL1   C24 6316   2.423   1.440  54.772 -0.6699  0.6587  1.1018
   52CHL1  H24A 6317   2.477   1.460  54.677 -1.0128  0.8887  0.9563
   52CHL1  H24B 6318   2.383   1.337  54.761 -0.5249  0.6739  0.3338
   52CHL1   C25 6319   2.299   1.537  54.770  0.3724  0.0687  0.0079
   52CHL1   H25 6320   2.337   1.641  54.778  0.7486  0.2002 -2.7613
   52CHL1   C26 6321   2.230   1.536  54.629 -0.7253  1.1847 -0.2915
   52CHL1  H26A 6322   2.177   1.439  54.618 -1.7703  1.4325  1.9553
   52CHL1  H26B 6323   2.164   1.624  54.615  0.2949  2.1747  0.8070
   52CHL1  H26C 6324   2.310   1.547  54.553 -0.3313  0.9074  0.0791
   52CHL1   C27 6325   2.190   1.502  54.871  0.0043 -0.6206 -0.5965
   52CHL1  H27A 6326   2.227   1.493  54.976  0.1401  1.4808 -0.4209
   52CHL1  H27B 6327   2.135   1.598  54.875  1.2091  0.3701 -4.0783
   52CHL1  H27C 6328   2.129   1.416  54.836 -1.8017  0.2438  0.2753
   53CHL1    C3 6329   0.174   0.030  56.692  0.4307  0.5368 -0.1836
   53CHL1    H3 6330   0.281   0.002  56.683  0.8122  1.9212 -0.1731
   53CHL1    O3 6331   0.161   0.151  56.757 -0.0279 -0.0041  0.3563
   53CHL1   H3' 6332   0.078   0.134  56.802  0.3937  1.0312  1.6079
   53CHL1    C4 6333   0.130   0.057  56.542  0.3203 -1.3887  0.3451
   53CHL1   H4A 6334   0.035   0.113  56.530  0.0968 -2.2701 -2.8931
   53CHL1   H4B 6335   0.218   0.110  56.500  1.5859 -3.3717  0.3181
   53CHL1    C5 6336   0.112  -0.062  56.451  0.1327  0.1071  0.1278
   53CHL1    C6 6337   0.184  -0.072  56.340 -0.6986  0.0098  0.0503
   53CHL1    H6 6338   0.233   0.022  56.313 -0.3120  0.0187  0.7675
   53CHL1    C7 6339   0.181  -0.180  56.233 -0.2079 -1.6548  0.1198
   53CHL1   H7A 6340   0.163  -0.132  56.134 -0.7749 -1.4014  0.3369
   53CHL1   H7B 6341   0.281  -0.227  56.223  1.3790  1.7579 -1.8877
   53CHL1    C8 6342   0.065  -0.275  56.263  0.6187 -0.4554  0.0780
   53CHL1    H8 6343  -0.029  -0.232  56.223  0.7929 -0.7962 -0.7203
   53CHL1   C14 6344   0.078  -0.410  56.189  0.3834 -0.4313  0.4831
   53CHL1   H14 6345   0.159  -0.468  56.240 -2.1551 -1.8777  3.2252
   53CHL1   C15 6346   0.110  -0.401  56.036  0.4307 -0.1010 -1.0608
   53CHL1  H15A 6347   0.040  -0.323  55.999 -1.6363 -0.9717  0.7723
   53CHL1  H15B 6348   0.213  -0.364  56.021  0.9195 -1.1433 -0.4423
   53CHL1   C16 6349   0.090  -0.538  55.982  0.5380 -0.2188 -1.0767
   53CHL1  H16A 6350   0.035  -0.538  55.885 -3.4847 -0.5261  1.0038
   53CHL1  H16B 6351   0.190  -0.586  55.983  0.9367  0.5881 -1.6169
   53CHL1   C17 6352   0.009  -0.611  56.106  0.6365  0.2141  1.4910
   53CHL1   H17 6353   0.081  -0.658  56.176  0.3184  0.2490  1.8402
   53CHL1   C13 6354  -0.046  -0.499  56.193  0.0918  0.4683  0.4522
   53CHL1   C18 6355  -0.168  -0.440  56.123 -0.4248  0.1619  0.4144
   53CHL1  H18A 6356  -0.257  -0.505  56.109 -1.3610  1.7516 -1.6098
   53CHL1  H18B 6357  -0.211  -0.364  56.192 -1.9832 -1.0190  0.7955
   53CHL1  H18C 6358  -0.137  -0.397  56.025  3.0296 -0.7887  0.9679
   53CHL1   C12 6359  -0.077  -0.532  56.340  0.1867 -0.8939  0.5720
   53CHL1  H12A 6360  -0.178  -0.578  56.345 -1.2030  2.0424  1.0312
   53CHL1  H12B 6361  -0.003  -0.609  56.372  1.6374 -1.2072 -2.9997
   53CHL1   C11 6362  -0.086  -0.407  56.428  0.0139  0.5617  0.1053
   53CHL1  H11A 6363  -0.183  -0.359  56.403 -0.2568 -0.4834 -0.9104
   53CHL1  H11B 6364  -0.090  -0.442  56.534  0.2769 -0.2558 -0.1491
   53CHL1    C9 6365   0.034  -0.307  56.417  0.6433  0.0595  0.1881
   53CHL1    H9 6366   0.126  -0.359  56.451  0.1046 -0.3520  1.0457
   53CHL1   C10 6367   0.022  -0.170  56.501 -1.0586  0.3124  0.5087
   53CHL1   C19 6368  -0.133  -0.126  56.503 -0.2091 -0.0742 -0.1357
   53CHL1  H19A 6369  -0.141  -0.019  56.530 -0.5081  0.0888 -0.8539
   53CHL1  H19B 6370  -0.184  -0.128  56.404 -2.7172  0.8568  1.0648
   53CHL1  H19C 6371  -0.197  -0.180  56.575  0.7877  0.1843  0.9847
   53CHL1    C1 6372   0.074  -0.209  56.648  0.1292 -0.6159 -1.4165
   53CHL1   H1A 6373   0.014  -0.297  56.681 -0.5178 -0.7383 -2.8241
   53CHL1   H1B 6374   0.179  -0.245  56.660  0.4689  0.7667 -0.0069
   53CHL1    C2 6375   0.092  -0.089  56.751 -0.7580  0.2205  0.3397
   53CHL1   H2A 6376   0.152  -0.113  56.841  0.1835  1.4989  0.0733
   53CHL1   H2B 6377  -0.010  -0.053  56.780 -1.8170 -1.9023 -0.5658
   53CHL1   C20 6378  -0.083  -0.725  56.059 -0.4061  0.1821  0.6441
   53CHL1   H20 6379  -0.151  -0.678  55.985 -0.7019 -0.0695  0.7560
   53CHL1   C21 6380  -0.178  -0.772  56.168 -0.4521  0.1152 -0.0190
   53CHL1  H21A 6381  -0.229  -0.860  56.123  0.1683  0.5296 -1.5945
   53CHL1  H21B 6382  -0.241  -0.684  56.190  2.0192  1.6924  1.2502
   53CHL1  H21C 6383  -0.121  -0.815  56.253  1.5310  0.1380 -1.2770
   53CHL1   C22 6384  -0.020  -0.850  55.985 -0.1566  0.3837 -0.3322
   53CHL1  H22A 6385   0.076  -0.818  55.940  0.0311 -3.2749 -3.0817
   53CHL1  H22B 6386   0.007  -0.936  56.051 -1.2979  0.5213  0.3399
   53CHL1   C23 6387  -0.116  -0.903  55.882  0.0942 -0.8909  0.0607
   53CHL1  H23A 6388  -0.200  -0.938  55.946 -0.9383 -1.2557 -1.4499
   53CHL1  H23B 6389  -0.154  -0.816  55.824 -1.9805 -0.3167  2.1335
   53CHL1   C24 6390  -0.075  -1.021  55.789 -0.7702  0.0960 -0.8558
   53CHL1  H24A 6391   0.028  -0.998  55.756 -1.1642  0.1450 -2.1324
   53CHL1  H24B 6392  -0.052  -1.111  55.850 -1.0384 -0.0612 -0.9819
   53CHL1   C25 6393  -0.159  -1.049  55.659 -0.2077  0.5722 -0.9735
   53CHL1   H25 6394  -0.263  -1.024  55.691  0.3190  3.7671 -1.4396
   53CHL1   C26 6395  -0.106  -0.964  55.545  0.6924 -0.0760 -0.4514
   53CHL1  H26A 6396  -0.172  -0.968  55.457 -0.1815 -2.8264  0.2449
   53CHL1  H26B 6397  -0.095  -0.865  55.595  1.5505 -1.7064  2.8638
   53CHL1  H26C 6398  -0.005  -0.996  55.510  0.9023 -0.4590  0.4713
   53CHL1   C27 6399  -0.145  -1.203  55.631 -0.3649 -0.4800 -0.6340
   53CHL1  H27A 6400  -0.037  -1.213  55.608 -0.0097  1.3262  0.0809
   53CHL1  H27B 6401  -0.173  -1.268  55.717 -1.2650 -0.3313 -0.8050
   53CHL1  H27C 6402  -0.183  -1.228  55.530 -4.1831 -1.7996  0.9449
   54CHL1    C3 6403   0.365   0.561  56.367  0.7493  0.5482  0.3193
   54CHL1    H3 6404   0.474   0.578  56.354  1.0404 -1.4443 -0.1462
   54CHL1    O3 6405   0.325   0.614  56.493  1.2075  0.1080  0.5477
   54CHL1   H3' 6406   0.380   0.559  56.550  2.4816 -1.0451 -1.6711
   54CHL1    C4 6407   0.306   0.650  56.251  0.3992  0.1596 -0.0456
   54CHL1   H4A 6408   0.201   0.661  56.286  1.2149  2.2734  1.9802
   54CHL1   H4B 6409   0.340   0.756  56.252  0.5180  0.1547 -1.3909
   54CHL1    C5 6410   0.310   0.580  56.110 -0.2912  0.1428 -0.3374
   54CHL1    C6 6411   0.356   0.652  56.000 -1.1633 -0.1313  0.5167
   54CHL1    H6 6412   0.377   0.759  56.013 -2.9119 -0.0018  3.1519
   54CHL1    C7 6413   0.368   0.609  55.856 -0.3247  0.5386 -0.6194
   54CHL1   H7A 6414   0.305   0.682  55.800 -0.7679  0.1634 -0.6157
   54CHL1   H7B 6415   0.469   0.632  55.814 -0.4640  1.3323 -0.5475
   54CHL1    C8 6416   0.290   0.476  55.844 -0.2115  0.1819 -0.3190
   54CHL1    H8 6417   0.182   0.500  55.854  0.2488  2.0979  0.4780
   54CHL1   C14 6418   0.319   0.412  55.703  0.3960 -0.4028  0.0675
   54CHL1   H14 6419   0.427   0.388  55.713 -0.0426 -2.8550 -0.4974
   54CHL1   C15 6420   0.301   0.505  55.589  0.6415  0.0602 -0.3426
   54CHL1  H15A 6421   0.202   0.556  55.586  1.2142  1.1558 -2.0181
   54CHL1  H15B 6422   0.374   0.586  55.568  0.9123 -0.2569 -0.6088
   54CHL1   C16 6423   0.307   0.420  55.468 -0.6108 -0.6376 -0.2632
   54CHL1  H16A 6424   0.229   0.450  55.395  0.7123  0.3996 -1.2967
   54CHL1  H16B 6425   0.397   0.437  55.404 -0.7038 -0.4051 -0.3285
   54CHL1   C17 6426   0.306   0.276  55.521 -0.8134  0.1657  0.7816
   54CHL1   H17 6427   0.411   0.240  55.525 -0.9347 -0.0979  1.7894
   54CHL1   C13 6428   0.253   0.282  55.663 -0.8619  0.0782 -0.7609
   54CHL1   C18 6429   0.101   0.300  55.651  0.7763 -0.8987  0.4105
   54CHL1  H18A 6430   0.071   0.358  55.741  0.9041  1.5179 -1.0278
   54CHL1  H18B 6431   0.071   0.349  55.556  3.0497 -0.7879 -0.3129
   54CHL1  H18C 6432   0.050   0.201  55.652 -3.0872  0.8403 -1.8346
   54CHL1   C12 6433   0.305   0.188  55.783  0.3263 -0.3187  0.1830
   54CHL1  H12A 6434   0.262   0.094  55.743  0.8131 -0.5748  0.2663
   54CHL1  H12B 6435   0.414   0.178  55.802  0.4651  0.8930  0.1293
   54CHL1   C11 6436   0.244   0.237  55.918  0.0567  0.1209 -0.1939
   54CHL1  H11A 6437   0.134   0.244  55.903  0.3349  1.2702 -2.0797
   54CHL1  H11B 6438   0.245   0.157  55.995 -3.6894 -1.0799 -1.2003
   54CHL1    C9 6439   0.310   0.374  55.954  0.1845 -0.6065 -0.8351
   54CHL1    H9 6440   0.417   0.346  55.962 -0.1000 -1.6524 -0.5143
   54CHL1   C10 6441   0.270   0.427  56.100 -0.2132 -0.7663  0.1258
   54CHL1   C19 6442   0.113   0.415  56.109  0.2366 -0.1608 -0.5630
   54CHL1  H19A 6443   0.068   0.316  56.084  1.3729 -0.2155 -2.5505
   54CHL1  H19B 6444   0.072   0.436  56.210 -0.4372  3.1296 -1.3962
   54CHL1  H19C 6445   0.048   0.484  56.050  2.6359  0.6095 -2.4856
   54CHL1    C1 6446   0.348   0.359  56.217  0.2094 -0.4439  0.0636
   54CHL1   H1A 6447   0.313   0.253  56.212 -1.7549  0.1903 -0.5374
   54CHL1   H1B 6448   0.457   0.368  56.199 -0.1293 -0.3496 -2.1370
   54CHL1    C2 6449   0.324   0.409  56.360  0.3284 -0.4216 -0.5811
   54CHL1   H2A 6450   0.399   0.356  56.422  0.2950 -1.7118 -1.6007
   54CHL1   H2B 6451   0.219   0.391  56.395  0.2622  1.5476  0.3473
   54CHL1   C20 6452   0.244   0.173  55.425  0.6613  1.4359  0.0962
   54CHL1   H20 6453   0.134   0.188  55.416  0.1530 -2.0337 -0.8042
   54CHL1   C21 6454   0.251   0.030  55.489 -0.9847  0.2256  0.3257
   54CHL1  H21A 6455   0.230  -0.041  55.406  1.6783 -1.4039  0.9272
   54CHL1  H21B 6456   0.170   0.008  55.562 -1.5497 -2.8567 -1.0545
   54CHL1  H21C 6457   0.349   0.002  55.533  0.5222  3.2538 -0.7714
   54CHL1   C22 6458   0.292   0.173  55.282  1.7308  1.2781 -0.0365
   54CHL1  H22A 6459   0.237   0.097  55.222 -0.7072  3.0617 -0.2327
   54CHL1  H22B 6460   0.270   0.272  55.235 -1.6519  0.9246  0.4951
   54CHL1   C23 6461   0.437   0.140  55.255  0.2338 -0.4602 -0.6447
   54CHL1  H23A 6462   0.497   0.210  55.318 -0.0520 -1.4994  0.8550
   54CHL1  H23B 6463   0.460   0.039  55.295  1.1907 -0.1796 -0.4484
   54CHL1   C24 6464   0.470   0.162  55.108 -0.1430  0.9760  0.1564
   54CHL1  H24A 6465   0.389   0.103  55.061  1.7862 -1.8025  0.0304
   54CHL1  H24B 6466   0.473   0.265  55.067 -2.0160 -0.0046 -2.7043
   54CHL1   C25 6467   0.615   0.099  55.069 -0.3277  0.0242  0.1805
   54CHL1   H25 6468   0.641   0.031  55.153 -1.9276  0.7066  1.2743
   54CHL1   C26 6469   0.626   0.023  54.934  0.1055 -1.0108  0.6287
   54CHL1  H26A 6470   0.599   0.090  54.849 -2.2261 -0.6420  1.5952
   54CHL1  H26B 6471   0.730  -0.015  54.924  0.2655 -0.3774 -0.2640
   54CHL1  H26C 6472   0.553  -0.060  54.928 -3.5262  1.8592  1.2536
   54CHL1   C27 6473   0.727   0.206  55.058 -0.2092 -0.3040 -0.2534
   54CHL1  H27A 6474   0.711   0.256  54.960 -0.4393 -0.9068 -0.5287
   54CHL1  H27B 6475   0.710   0.275  55.143  1.3524  1.8630 -1.5805
   54CHL1  H27C 6476   0.832   0.172  55.048  0.4626  1.6283 -0.3352
   55CHL1    C3 6477   0.937   0.650  56.772 -0.3312 -0.9543  0.6896
   55CHL1    H3 6478   0.901   0.545  56.782 -2.7967 -0.2383 -0.0338
   55CHL1    O3 6479   0.964   0.694  56.903 -0.3893  0.6455  0.5809
   55CHL1   H3' 6480   1.050   0.655  56.918 -0.4083  0.6275  0.6406
   55CHL1    C4 6481   1.064   0.646  56.676 -0.1755 -0.2051  0.9045
   55CHL1   H4A 6482   1.124   0.739  56.690 -1.4807  1.1928 -1.9973
   55CHL1   H4B 6483   1.131   0.570  56.723  1.2010  1.4100  1.6917
   55CHL1    C5 6484   1.034   0.634  56.525  0.2384 -0.3779  0.7914
   55CHL1    C6 6485   1.096   0.545  56.445  0.4769  0.0261 -0.2041
   55CHL1    H6 6486   1.171   0.484  56.498  0.3147  1.5469  1.9107
   55CHL1    C7 6487   1.045   0.521  56.306 -0.6803  0.8327  0.0090
   55CHL1   H7A 6488   1.130   0.490  56.241  0.3795  1.2447  1.1785
   55CHL1   H7B 6489   0.971   0.438  56.308 -0.1297  0.2880 -1.2083
   55CHL1    C8 6490   0.987   0.649  56.241  0.3344 -0.6997 -1.1741
   55CHL1    H8 6491   1.061   0.731  56.235  2.1368 -1.9678  1.4581
   55CHL1   C14 6492   0.941   0.637  56.099  0.9118  0.0942 -0.1085
   55CHL1   H14 6493   0.873   0.549  56.100  2.0791 -0.8389  0.2022
   55CHL1   C15 6494   1.050   0.591  55.997 -0.2197  0.3421 -0.7047
   55CHL1  H15A 6495   1.145   0.648  56.008 -0.0101 -0.2012  0.4882
   55CHL1  H15B 6496   1.072   0.483  56.008  0.7296  0.5278 -0.6960
   55CHL1   C16 6497   0.999   0.637  55.863  0.2290  0.5456 -0.1852
   55CHL1  H16A 6498   1.069   0.706  55.813 -1.1560  1.3414 -1.0742
   55CHL1  H16B 6499   0.983   0.548  55.798  1.5869  0.5116 -0.4940
   55CHL1   C17 6500   0.860   0.703  55.892  0.0718 -0.0304  0.4053
   55CHL1   H17 6501   0.788   0.618  55.894  0.1633 -0.1192  0.0331
   55CHL1   C13 6502   0.865   0.754  56.042 -0.3006  0.2616 -0.1916
   55CHL1   C18 6503   0.954   0.879  56.038 -0.3571  0.6462  0.1607
   55CHL1  H18A 6504   0.891   0.963  56.002 -1.3001 -0.9494 -2.1645
   55CHL1  H18B 6505   0.986   0.894  56.143  0.1232 -0.7457  0.2396
   55CHL1  H18C 6506   1.054   0.873  55.990 -0.0592 -5.4536  0.6857
   55CHL1   C12 6507   0.740   0.772  56.120  0.3440 -0.3142  0.4957
   55CHL1  H12A 6508   0.696   0.867  56.083  3.8583 -0.5323 -5.6873
   55CHL1  H12B 6509   0.660   0.698  56.096 -2.5909  2.4470  1.1118
   55CHL1   C11 6510   0.758   0.782  56.272  0.1907 -0.3278 -0.0786
   55CHL1  H11A 6511   0.782   0.886  56.300 -1.2147 -0.4105  1.6340
   55CHL1  H11B 6512   0.664   0.770  56.330 -0.8766 -0.7282 -1.8179
   55CHL1    C9 6513   0.871   0.688  56.329  0.7908 -0.1455 -0.2149
   55CHL1    H9 6514   0.801   0.601  56.330 -2.3267  2.2005  0.3367
   55CHL1   C10 6515   0.920   0.723  56.465  0.2473  0.1719  0.3344
   55CHL1   C19 6516   0.989   0.863  56.463 -1.2881  0.2538 -1.4563
   55CHL1  H19A 6517   1.022   0.884  56.567 -5.0663  0.3133 -0.1287
   55CHL1  H19B 6518   1.078   0.861  56.397  0.9048 -0.4260  1.3276
   55CHL1  H19C 6519   0.916   0.942  56.433  0.2816  1.6487 -1.7341
   55CHL1    C1 6520   0.797   0.708  56.561 -0.0473  0.2987 -0.2015
   55CHL1   H1A 6521   0.728   0.791  56.537  0.9153  0.4692 -2.5952
   55CHL1   H1B 6522   0.742   0.612  56.563  1.6780 -0.7223  0.6836
   55CHL1    C2 6523   0.825   0.737  56.707 -0.1631  0.2786  0.7652
   55CHL1   H2A 6524   0.733   0.728  56.770 -1.1671  0.0756 -0.6831
   55CHL1   H2B 6525   0.853   0.845  56.706 -0.8926  0.4753 -0.4112
   55CHL1   C20 6526   0.802   0.797  55.781 -0.2582 -1.3236 -0.7364
   55CHL1   H20 6527   0.738   0.870  55.836  0.9851 -0.7454 -0.0218
   55CHL1   C21 6528   0.722   0.717  55.671 -0.6373  0.5573 -0.4933
   55CHL1  H21A 6529   0.805   0.664  55.620  0.1798 -0.1578  1.4508
   55CHL1  H21B 6530   0.670   0.787  55.602 -0.8594  3.2054  2.1557
   55CHL1  H21C 6531   0.645   0.650  55.717 -0.6116  1.4690  0.9264
   55CHL1   C22 6532   0.910   0.892  55.708 -0.2272 -0.6680  0.1543
   55CHL1  H22A 6533   0.989   0.927  55.778 -0.3658  0.1943 -0.1151
   55CHL1  H22B 6534   0.954   0.829  55.628  1.9409  1.0203 -0.0758
   55CHL1   C23 6535   0.839   1.020  55.649 -0.6329 -0.6686 -0.2222
   55CHL1  H23A 6536   0.747   0.997  55.592  0.5798 -2.6502 -1.5443
   55CHL1  H23B 6537   0.810   1.087  55.732 -0.9308 -0.1839 -0.7194
   55CHL1   C24 6538   0.922   1.095  55.544  0.0783  1.1371  0.0588
   55CHL1  H24A 6539   1.004   1.135  55.608 -0.1543 -1.1910  1.9647
   55CHL1  H24B 6540   0.987   1.021  55.491  0.6916  3.1260 -2.1659
   55CHL1   C25 6541   0.860   1.207  55.461  0.1300 -0.0566 -0.4850
   55CHL1   H25 6542   0.809   1.272  55.535 -3.4020 -2.6663 -0.3597
   55CHL1   C26 6543   0.968   1.275  55.381 -0.4233  0.5761 -0.2655
   55CHL1  H26A 6544   1.061   1.290  55.439  0.5093  1.2338 -1.8664
   55CHL1  H26B 6545   1.003   1.199  55.308 -0.5300 -0.7506  1.0228
   55CHL1  H26C 6546   0.938   1.371  55.334  2.1910 -0.0382 -3.6170
   55CHL1   C27 6547   0.744   1.171  55.369 -0.1573 -0.0365  0.3572
   55CHL1  H27A 6548   0.781   1.106  55.287  0.7499  0.6015  0.2537
   55CHL1  H27B 6549   0.668   1.105  55.416  1.0170 -0.4389  1.7652
   55CHL1  H27C 6550   0.715   1.263  55.312  1.4588  1.4872  1.8843
   56CHL1    C3 6551   2.506   0.385  70.348 -0.7334  0.5475 -0.1575
   56CHL1    H3 6552   2.539   0.477  70.399 -3.4395  1.9536 -0.7267
   56CHL1    O3 6553   2.484   0.430  70.212 -0.8328  0.3589  0.2805
   56CHL1   H3' 6554   2.431   0.359  70.176 -0.4021  0.2256 -0.1015
   56CHL1    C4 6555   2.617   0.281  70.347 -0.3704 -0.6472  0.3766
   56CHL1   H4A 6556   2.623   0.204  70.267  1.8457 -0.2327  0.0776
   56CHL1   H4B 6557   2.710   0.335  70.316 -0.7525 -1.4416 -2.4470
   56CHL1    C5 6558   2.645   0.228  70.485  0.2739  0.8561  0.2512
   56CHL1    C6 6559   2.761   0.228  70.542  0.1223  0.9023 -0.1430
   56CHL1    H6 6560   2.843   0.269  70.482  0.1409  1.4437  0.2497
   56CHL1    C7 6561   2.801   0.165  70.675 -0.2666  0.1173  0.2570
   56CHL1   H7A 6562   2.896   0.110  70.661 -0.1475  0.1740  0.8279
   56CHL1   H7B 6563   2.810   0.239  70.757  0.8251 -1.5907  1.7587
   56CHL1    C8 6564   2.696   0.059  70.718  0.1630 -0.0607 -0.6132
   56CHL1    H8 6565   2.713  -0.027  70.649  0.2050  0.0675 -0.7626
   56CHL1   C14 6566   2.704   0.013  70.867 -0.5372  0.1603 -0.0988
   56CHL1   H14 6567   2.667   0.102  70.923  0.4701 -0.1814  1.1794
   56CHL1   C15 6568   2.845  -0.027  70.920  0.7280 -0.2985 -0.0954
   56CHL1  H15A 6569   2.899  -0.100  70.857  0.0471 -0.2350 -0.7779
   56CHL1  H15B 6570   2.905   0.067  70.931  2.6627 -1.5088  0.1381
   56CHL1   C16 6571   2.817  -0.097  71.049 -0.3519  0.4245 -0.7811
   56CHL1  H16A 6572   2.878  -0.189  71.048  0.9070  1.2330 -2.5441
   56CHL1  H16B 6573   2.839  -0.043  71.144  1.1492 -1.7469  0.1949
   56CHL1   C17 6574   2.667  -0.120  71.052  0.0132  0.3750 -0.2646
   56CHL1   H17 6575   2.627  -0.030  71.103  0.2825  2.3483 -3.3117
   56CHL1   C13 6576   2.611  -0.100  70.903  0.3240 -0.1434  0.1122
   56CHL1   C18 6577   2.651  -0.228  70.816  0.3185 -0.3754 -0.4214
   56CHL1  H18A 6578   2.756  -0.262  70.811  0.6980  0.9636 -3.2997
   56CHL1  H18B 6579   2.583  -0.313  70.841 -1.7397  1.1028 -0.7238
   56CHL1  H18C 6580   2.624  -0.208  70.710 -2.1107  0.2002  0.2369
   56CHL1   C12 6581   2.464  -0.056  70.886  0.1212  0.0343  0.0044
   56CHL1  H12A 6582   2.413  -0.149  70.919 -1.0320  1.2677  1.8846
   56CHL1  H12B 6583   2.439   0.025  70.957 -3.2660  0.7131 -1.7286
   56CHL1   C11 6584   2.449  -0.012  70.740  1.0205 -0.5213 -0.2714
   56CHL1  H11A 6585   2.469  -0.093  70.667 -0.8549 -2.4079  1.2062
   56CHL1  H11B 6586   2.346   0.024  70.717 -0.0844 -1.1090  3.2254
   56CHL1    C9 6587   2.547   0.103  70.698 -0.2242 -0.3967 -0.2911
   56CHL1    H9 6588   2.537   0.193  70.762 -0.9170  0.5887 -1.7122
   56CHL1   C10 6589   2.516   0.166  70.553  0.7020  0.0892 -0.4530
   56CHL1   C19 6590   2.474   0.049  70.454 -0.3624 -0.4698  0.7926
   56CHL1  H19A 6591   2.540  -0.040  70.454  1.6586  0.9348 -0.7222
   56CHL1  H19B 6592   2.373   0.013  70.483 -0.8663  0.1739 -0.1054
   56CHL1  H19C 6593   2.462   0.082  70.348 -0.6332  1.6910  1.4448
   56CHL1    C1 6594   2.399   0.277  70.552  0.0647  0.3417 -0.2325
   56CHL1   H1A 6595   2.305   0.222  70.573  1.8366 -1.6454  3.8346
   56CHL1   H1B 6596   2.412   0.360  70.626  3.3107 -0.9842  0.8885
   56CHL1    C2 6597   2.376   0.350  70.418 -0.2459  0.8089  0.2208
   56CHL1   H2A 6598   2.323   0.444  70.442  1.7648  2.5896 -1.8878
   56CHL1   H2B 6599   2.314   0.294  70.344  2.9170 -0.0087 -2.0213
   56CHL1   C20 6600   2.622  -0.239  71.133 -0.1332  0.2744  0.3015
   56CHL1   H20 6601   2.528  -0.274  71.084  1.0666 -0.4713 -1.5500
   56CHL1   C21 6602   2.601  -0.207  71.286  1.0693  0.3184 -0.5230
   56CHL1  H21A 6603   2.518  -0.133  71.291 -2.7159 -3.5783  0.4082
   56CHL1  H21B 6604   2.694  -0.161  71.325  0.9427  0.6233 -0.5814
   56CHL1  H21C 6605   2.568  -0.288  71.354  4.1967  2.3632  3.9063
   56CHL1   C22 6606   2.715  -0.365  71.126 -0.2799 -0.3275  0.0531
   56CHL1  H22A 6607   2.754  -0.362  71.022 -1.2079  0.0547 -0.2947
   56CHL1  H22B 6608   2.804  -0.354  71.191 -0.7210 -0.9941  0.7907
   56CHL1   C23 6609   2.636  -0.493  71.167  0.1376 -0.3751 -1.0102
   56CHL1  H23A 6610   2.720  -0.555  71.204  1.6123  2.6519  1.2022
   56CHL1  H23B 6611   2.598  -0.466  71.268 -1.5624  0.8345 -1.9355
   56CHL1   C24 6612   2.538  -0.545  71.070 -0.5526 -1.1519 -0.1037
   56CHL1  H24A 6613   2.453  -0.476  71.051 -0.1453 -0.1630  1.4815
   56CHL1  H24B 6614   2.589  -0.549  70.971 -4.1499  1.3631 -2.3060
   56CHL1   C25 6615   2.497  -0.686  71.093 -0.2327 -0.0227 -0.1771
   56CHL1   H25 6616   2.583  -0.741  71.137  1.0342  0.7617 -1.5952
   56CHL1   C26 6617   2.394  -0.718  71.201 -0.3608 -0.3320 -0.8301
   56CHL1  H26A 6618   2.289  -0.701  71.169  0.0143  1.6591 -1.1802
   56CHL1  H26B 6619   2.423  -0.815  71.247 -0.7270 -0.1850 -0.2964
   56CHL1  H26C 6620   2.395  -0.656  71.293  2.4243 -1.5982  0.0676
   56CHL1   C27 6621   2.443  -0.743  70.965 -0.5233 -0.2635  0.5105
   56CHL1  H27A 6622   2.399  -0.845  70.975 -2.8154  0.8135  2.2848
   56CHL1  H27B 6623   2.364  -0.682  70.918  0.4174 -0.4152 -1.3786
   56CHL1  H27C 6624   2.526  -0.755  70.892  0.0899  0.3467  1.0920
   57CHL1    C3 6625   1.937   0.012  56.840 -0.2839 -0.4024 -0.5620
   57CHL1    H3 6626   1.863  -0.057  56.885  1.1889 -0.9606  1.1515
   57CHL1    O3 6627   1.860   0.119  56.785  0.1542  0.0123  0.0069
   57CHL1   H3' 6628   1.884   0.201  56.828 -0.3606  0.1568  0.0249
   57CHL1    C4 6629   2.031   0.068  56.958 -0.1781  0.3256 -0.1258
   57CHL1   H4A 6630   2.099   0.148  56.921  0.6251  0.2655  1.1576
   57CHL1   H4B 6631   1.958   0.116  57.026  0.6848  0.7194  0.5348
   57CHL1    C5 6632   2.122  -0.046  56.998  0.1652  0.9076 -0.3616
   57CHL1    C6 6633   2.139  -0.084  57.127  0.1262  0.3486 -0.2804
   57CHL1    H6 6634   2.072  -0.035  57.199  1.1955  0.6622  0.5139
   57CHL1    C7 6635   2.231  -0.196  57.163  0.6165  0.2261 -0.3010
   57CHL1   H7A 6636   2.259  -0.198  57.271  0.3870  0.2414 -0.2416
   57CHL1   H7B 6637   2.167  -0.287  57.160  3.2900 -1.8635  0.7946
   57CHL1    C8 6638   2.355  -0.219  57.080  0.2432 -0.0241 -0.8210
   57CHL1    H8 6639   2.433  -0.142  57.097  0.0936 -0.4211  2.2737
   57CHL1   C14 6640   2.421  -0.360  57.110  0.0619  0.7256 -0.2905
   57CHL1   H14 6641   2.344  -0.438  57.094 -0.9538  1.4625  0.8241
   57CHL1   C15 6642   2.463  -0.390  57.250  0.5804 -0.5281  0.1626
   57CHL1  H15A 6643   2.524  -0.310  57.297  0.1599 -0.7271  1.0588
   57CHL1  H15B 6644   2.365  -0.410  57.298  0.6741  0.7836  0.9667
   57CHL1   C16 6645   2.551  -0.511  57.228 -1.2109  0.7535 -0.6416
   57CHL1  H16A 6646   2.651  -0.499  57.275 -0.3797 -0.0465 -2.1218
   57CHL1  H16B 6647   2.499  -0.603  57.262 -1.6322  0.6896 -1.4364
   57CHL1   C17 6648   2.583  -0.525  57.073  0.3923 -1.0932  0.1115
   57CHL1   H17 6649   2.519  -0.604  57.030  1.3439  0.3373 -4.5181
   57CHL1   C13 6650   2.545  -0.392  57.014  0.1901  0.2111 -0.3946
   57CHL1   C18 6651   2.657  -0.289  57.050 -0.6113 -0.2169  0.9775
   57CHL1  H18A 6652   2.743  -0.284  56.981  1.2855 -2.8230  2.9556
   57CHL1  H18B 6653   2.617  -0.191  57.017  1.6037  0.9463  1.6131
   57CHL1  H18C 6654   2.681  -0.272  57.157  0.9392  3.1325  0.2227
   57CHL1   C12 6655   2.493  -0.383  56.874  0.5072  0.5515  0.0353
   57CHL1  H12A 6656   2.580  -0.390  56.805  1.6212 -0.8924  1.4943
   57CHL1  H12B 6657   2.432  -0.471  56.843  1.0606  0.5586 -1.1354
   57CHL1   C11 6658   2.425  -0.250  56.836 -0.0892 -0.5158 -0.5701
   57CHL1  H11A 6659   2.496  -0.165  56.840  0.7034 -1.2039  2.3155
   57CHL1  H11B 6660   2.387  -0.264  56.732 -2.7022  0.4832  0.1761
   57CHL1    C9 6661   2.308  -0.215  56.935 -0.1768  1.3188 -0.1232
   57CHL1    H9 6662   2.250  -0.310  56.935  0.3416  0.9867  1.2269
   57CHL1   C10 6663   2.214  -0.100  56.885 -0.7392 -0.1000 -1.2770
   57CHL1   C19 6664   2.294   0.024  56.836 -0.5762 -0.6631 -0.3920
   57CHL1  H19A 6665   2.357   0.057  56.921 -2.3240 -1.5888  1.3335
   57CHL1  H19B 6666   2.375   0.009  56.760 -0.0827  0.0219 -0.0083
   57CHL1  H19C 6667   2.241   0.113  56.798  0.0937 -0.1353 -0.1120
   57CHL1    C1 6668   2.113  -0.150  56.773 -0.0491 -0.0159  0.0546
   57CHL1   H1A 6669   2.188  -0.180  56.696  2.1228  0.9928  1.6826
   57CHL1   H1B 6670   2.066  -0.244  56.807 -0.3227 -0.1151 -0.5783
   57CHL1    C2 6671   2.014  -0.052  56.727 -1.0495  0.1939  0.9286
   57CHL1   H2A 6672   1.954  -0.078  56.637  3.2844  0.0870 -2.2638
   57CHL1   H2B 6673   2.081   0.030  56.691  1.0804 -0.5208  3.0307
   57CHL1   C20 6674   2.725  -0.568  57.037 -0.5928 -0.2074 -0.0365
   57CHL1   H20 6675   2.795  -0.488  57.072  0.3658 -1.7261  1.7130
   57CHL1   C21 6676   2.753  -0.576  56.885 -0.1342  0.3196 -0.2183
   57CHL1  H21A 6677   2.664  -0.615  56.831 -1.1277 -0.4712  1.8703
   57CHL1  H21B 6678   2.846  -0.635  56.870 -1.7515 -2.6578  0.7134
   57CHL1  H21C 6679   2.758  -0.471  56.847 -1.5617 -0.0284 -1.4728
   57CHL1   C22 6680   2.775  -0.699  57.108  0.3365  0.2818  0.2150
   57CHL1  H22A 6681   2.883  -0.725  57.097  0.4984 -0.3990  2.8395
   57CHL1  H22B 6682   2.772  -0.688  57.218  4.6220  0.7244  0.4880
   57CHL1   C23 6683   2.682  -0.818  57.072  0.2196 -0.1433  0.3468
   57CHL1  H23A 6684   2.580  -0.803  57.112 -0.7694 -0.8564 -1.8057
   57CHL1  H23B 6685   2.670  -0.833  56.963  0.6972 -2.5696  0.5548
   57CHL1   C24 6686   2.742  -0.955  57.138 -0.7074  0.3694  0.0690
   57CHL1  H24A 6687   2.849  -0.960  57.109 -0.3011 -0.1065  1.5643
   57CHL1  H24B 6688   2.738  -0.933  57.247  4.7225 -2.1422  1.0977
   57CHL1   C25 6689   2.656  -1.078  57.109 -0.1078 -0.8002  0.0766
   57CHL1   H25 6690   2.558  -1.059  57.157 -0.1420 -1.0494  0.1018
   57CHL1   C26 6691   2.617  -1.125  56.964 -0.1112 -0.4550  0.1164
   57CHL1  H26A 6692   2.687  -1.196  56.917 -1.2307 -0.2816 -1.9038
   57CHL1  H26B 6693   2.518  -1.174  56.974  0.6632 -1.9788  0.5480
   57CHL1  H26C 6694   2.610  -1.049  56.884 -0.4750 -0.0365  0.5373
   57CHL1   C27 6695   2.712  -1.204  57.170 -0.2574  0.1854 -0.5754
   57CHL1  H27A 6696   2.712  -1.187  57.280  0.1123  0.7835 -0.6658
   57CHL1  H27B 6697   2.657  -1.299  57.153 -1.2899  0.4393  1.0218
   57CHL1  H27C 6698   2.818  -1.229  57.149 -0.1313 -1.0373  1.2489
   58CHL1    C3 6699   1.627   1.826  62.143  1.6290  0.5103  0.9405
   58CHL1    H3 6700   1.555   1.744  62.161  1.2885  1.1092  2.4572
   58CHL1    O3 6701   1.622   1.910  62.252  0.1575 -0.0181 -1.0100
   58CHL1   H3' 6702   1.653   1.846  62.315 -0.6715 -0.4909 -1.0712
   58CHL1    C4 6703   1.770   1.773  62.142 -0.3387  0.2251 -0.2259
   58CHL1   H4A 6704   1.843   1.857  62.146  1.5482 -1.1635 -2.8245
   58CHL1   H4B 6705   1.789   1.724  62.240  0.6392 -0.1015 -0.5694
   58CHL1    C5 6706   1.823   1.699  62.025 -0.5943  0.6250  0.5669
   58CHL1    C6 6707   1.874   1.578  62.045 -0.2259  0.6731  0.0142
   58CHL1    H6 6708   1.905   1.553  62.148 -2.9861 -0.9737  0.5394
   58CHL1    C7 6709   1.917   1.485  61.939  1.5559  0.0193 -0.2427
   58CHL1   H7A 6710   2.022   1.453  61.953  1.5797 -0.3782 -1.2859
   58CHL1   H7B 6711   1.858   1.394  61.915 -1.7619  1.6347  1.1781
   58CHL1    C8 6712   1.925   1.557  61.802 -0.4217  0.4466  1.3158
   58CHL1    H8 6713   2.010   1.628  61.806  2.0268 -2.2592  0.3461
   58CHL1   C14 6714   1.952   1.464  61.687  1.1605 -0.8198 -0.1531
   58CHL1   H14 6715   1.869   1.390  61.685  0.5572 -0.1625 -2.2189
   58CHL1   C15 6716   2.084   1.380  61.688 -0.0695 -0.7519 -0.0081
   58CHL1  H15A 6717   2.157   1.462  61.698 -1.2799  0.5367 -1.3067
   58CHL1  H15B 6718   2.088   1.301  61.767 -1.3824  0.0624  0.9199
   58CHL1   C16 6719   2.106   1.336  61.537  0.5284 -0.7064 -0.6121
   58CHL1  H16A 6720   2.208   1.362  61.502  0.5448 -0.5943 -0.4831
   58CHL1  H16B 6721   2.085   1.227  61.532  2.7861 -1.1380 -4.5016
   58CHL1   C17 6722   1.992   1.405  61.463 -0.7478  0.1305  0.3942
   58CHL1   H17 6723   1.900   1.343  61.470 -2.1274  2.0813  0.6458
   58CHL1   C13 6724   1.951   1.526  61.553  0.0602 -0.0442 -0.7959
   58CHL1   C18 6725   2.060   1.641  61.531  0.5964  0.4826  0.0853
   58CHL1  H18A 6726   2.065   1.703  61.623  4.0897 -1.6003  1.4878
   58CHL1  H18B 6727   2.149   1.595  61.483 -1.2384 -1.0769 -2.0523
   58CHL1  H18C 6728   2.018   1.696  61.444 -1.1504 -1.0346 -0.0971
   58CHL1   C12 6729   1.798   1.572  61.523  0.4190 -0.0268 -0.6190
   58CHL1  H12A 6730   1.807   1.626  61.427 -1.5790 -2.1843 -2.0959
   58CHL1  H12B 6731   1.739   1.480  61.504 -3.6424  1.6782  2.3337
   58CHL1   C11 6732   1.747   1.669  61.633 -0.1435  0.0322  0.3989
   58CHL1  H11A 6733   1.792   1.766  61.602  1.6394 -0.8530  0.0521
   58CHL1  H11B 6734   1.637   1.682  61.636  0.0282  1.5879  1.4619
   58CHL1    C9 6735   1.793   1.635  61.777 -0.1020 -0.3241 -0.0072
   58CHL1    H9 6736   1.720   1.554  61.802  3.1005 -2.3530  3.9744
   58CHL1   C10 6737   1.767   1.750  61.883 -0.1039  0.4736 -0.1544
   58CHL1   C19 6738   1.852   1.868  61.848  0.7629 -0.8740 -0.3401
   58CHL1  H19A 6739   1.882   1.933  61.933 -0.4222 -0.5303 -0.1615
   58CHL1  H19B 6740   1.952   1.848  61.805  0.3727 -0.3339 -1.5470
   58CHL1  H19C 6741   1.802   1.936  61.775 -1.4649 -0.1343  1.7026
   58CHL1    C1 6742   1.620   1.788  61.904 -0.0722 -0.1870  0.5407
   58CHL1   H1A 6743   1.587   1.838  61.811  1.3473  1.1534  0.6997
   58CHL1   H1B 6744   1.560   1.702  61.941  0.4492  0.5847  3.3893
   58CHL1    C2 6745   1.600   1.890  62.017  0.2955  0.0909 -0.7497
   58CHL1   H2A 6746   1.498   1.932  61.999 -0.1201 -0.4980  0.1621
   58CHL1   H2B 6747   1.671   1.975  62.007 -1.2048  1.4437 -0.5256
   58CHL1   C20 6748   2.021   1.419  61.307 -0.8476 -0.4517 -0.6888
   58CHL1   H20 6749   2.121   1.465  61.296 -0.4065 -1.8386 -3.3308
   58CHL1   C21 6750   1.915   1.504  61.238 -0.3162 -0.5092  0.5417
   58CHL1  H21A 6751   1.924   1.607  61.280 -0.7821  0.6454 -1.9766
   58CHL1  H21B 6752   1.815   1.456  61.241 -0.8124  0.0163 -3.1417
   58CHL1  H21C 6753   1.942   1.514  61.131 -0.9704  0.0852  0.4276
   58CHL1   C22 6754   2.013   1.276  61.258 -0.9646  0.0005 -0.2500
   58CHL1  H22A 6755   2.037   1.198  61.333  2.2968 -2.3076 -3.3224
   58CHL1  H22B 6756   1.913   1.254  61.216 -1.8209 -1.9157  2.5651
   58CHL1   C23 6757   2.111   1.254  61.134 -0.1969  0.8686 -0.4727
   58CHL1  H23A 6758   2.067   1.167  61.082 -0.6997  1.0774 -0.4054
   58CHL1  H23B 6759   2.109   1.336  61.060  0.7611  0.3582 -1.0832
   58CHL1   C24 6760   2.255   1.231  61.189 -0.6489  0.3854 -0.0350
   58CHL1  H24A 6761   2.293   1.330  61.221  4.3230 -0.2119 -2.8591
   58CHL1  H24B 6762   2.245   1.158  61.272  1.9383 -1.2331 -0.9964
   58CHL1   C25 6763   2.358   1.203  61.075 -0.0512  0.8449  0.4041
   58CHL1   H25 6764   2.339   1.100  61.038  0.7437 -0.2567  2.8435
   58CHL1   C26 6765   2.349   1.295  60.960  0.3554 -0.7350 -0.0025
   58CHL1  H26A 6766   2.376   1.392  61.005 -2.5830 -0.3446  1.1106
   58CHL1  H26B 6767   2.431   1.279  60.887 -0.2400 -2.4365 -0.3662
   58CHL1  H26C 6768   2.257   1.288  60.898  2.1551 -0.8564 -2.8735
   58CHL1   C27 6769   2.495   1.175  61.150 -0.4624  0.2901 -0.6800
   58CHL1  H27A 6770   2.478   1.082  61.209 -1.0921  0.6205 -0.3268
   58CHL1  H27B 6771   2.571   1.163  61.069  0.9257  1.2001  0.4332
   58CHL1  H27C 6772   2.511   1.262  61.218 -0.2146  0.8529 -1.4467
   59CHL1    C3 6773   2.577   1.041  72.501 -0.0034  0.0766 -0.7814
   59CHL1    H3 6774   2.496   1.118  72.501 -0.0620  0.0217 -1.2965
   59CHL1    O3 6775   2.602   1.011  72.638 -0.1939 -0.2960  0.4890
   59CHL1   H3' 6776   2.532   0.953  72.669  0.4301 -1.4805 -0.2203
   59CHL1    C4 6777   2.553   0.905  72.420 -0.4159 -0.0618 -0.8144
   59CHL1   H4A 6778   2.649   0.858  72.451 -0.6809  0.4520  0.8317
   59CHL1   H4B 6779   2.474   0.845  72.469  1.3786 -1.3812  0.5845
   59CHL1    C5 6780   2.553   0.914  72.262 -0.6319 -0.1177 -0.0499
   59CHL1    C6 6781   2.452   0.859  72.188 -0.0572 -0.2349  0.0312
   59CHL1    H6 6782   2.394   0.804  72.263 -0.2652  0.4496  0.3799
   59CHL1    C7 6783   2.438   0.858  72.042  0.5474 -0.1878  0.1775
   59CHL1   H7A 6784   2.421   0.754  72.008  0.0523 -0.1895  0.4239
   59CHL1   H7B 6785   2.352   0.921  72.012  1.7271 -0.0557 -3.4801
   59CHL1    C8 6786   2.573   0.913  71.979  0.1481 -0.7887  1.0719
   59CHL1    H8 6787   2.653   0.836  71.977  0.4867 -0.4414 -1.4259
   59CHL1   C14 6788   2.558   0.948  71.823  0.3562 -0.6820 -0.2869
   59CHL1   H14 6789   2.482   1.029  71.817 -0.2014 -1.1706  0.1421
   59CHL1   C15 6790   2.497   0.841  71.726  0.2884 -0.8143  0.1286
   59CHL1  H15A 6791   2.535   0.738  71.744  1.0315 -1.3076 -3.5176
   59CHL1  H15B 6792   2.386   0.840  71.729  0.3151 -1.0101  1.5709
   59CHL1   C16 6793   2.541   0.881  71.585  0.3939 -0.2579  0.2965
   59CHL1  H16A 6794   2.614   0.804  71.551 -1.6957 -3.2643  2.0945
   59CHL1  H16B 6795   2.458   0.888  71.511  2.6037 -0.1215 -2.3093
   59CHL1   C17 6796   2.629   1.012  71.605 -0.1253  0.0797 -0.2068
   59CHL1   H17 6797   2.567   1.103  71.613 -0.2892  0.0181 -0.7434
   59CHL1   C13 6798   2.669   1.009  71.754  0.3271  0.2461  0.1498
   59CHL1   C18 6799   2.793   0.926  71.756  0.1570  0.3334  0.1715
   59CHL1  H18A 6800   2.765   0.822  71.732 -2.7777  1.6259 -2.7540
   59CHL1  H18B 6801   2.874   0.951  71.684 -0.5897  3.2492  0.2065
   59CHL1  H18C 6802   2.840   0.916  71.856 -1.7076 -1.7252  0.9127
   59CHL1   C12 6803   2.708   1.142  71.832  0.3129  0.7187  1.1167
   59CHL1  H12A 6804   2.799   1.184  71.784  1.1050  0.2866  2.2003
   59CHL1  H12B 6805   2.623   1.214  71.831 -0.5502 -0.2069 -1.4234
   59CHL1   C11 6806   2.728   1.119  71.983  0.0112  0.1253 -0.7869
   59CHL1  H11A 6807   2.836   1.093  71.994 -0.3705 -0.6254  1.7179
   59CHL1  H11B 6808   2.726   1.220  72.027 -0.0026 -0.8921  1.6769
   59CHL1    C9 6809   2.618   1.038  72.053  0.2029  0.1962  0.2073
   59CHL1    H9 6810   2.526   1.100  72.060 -1.6576 -2.4231  0.7018
   59CHL1   C10 6811   2.664   0.996  72.194  0.6528  0.2477 -0.0629
   59CHL1   C19 6812   2.799   0.930  72.170  0.2416  0.0024  0.3806
   59CHL1  H19A 6813   2.878   1.006  72.153 -1.8079  2.1166 -0.3498
   59CHL1  H19B 6814   2.825   0.863  72.254  2.7836  0.0792 -0.2530
   59CHL1  H19C 6815   2.799   0.870  72.076 -2.4382  0.7560 -0.1907
   59CHL1    C1 6816   2.688   1.126  72.280  0.0243 -0.2538  0.3701
   59CHL1   H1A 6817   2.788   1.156  72.242  0.9537 -1.9906  1.2882
   59CHL1   H1B 6818   2.615   1.208  72.267 -0.1902  0.3365  4.0875
   59CHL1    C2 6819   2.701   1.108  72.431  0.9451 -0.3268 -0.5701
   59CHL1   H2A 6820   2.694   1.210  72.473 -1.4619 -0.8202  0.4511
   59CHL1   H2B 6821   2.790   1.057  72.473 -0.9605 -2.0269  1.6890
   59CHL1   C20 6822   2.727   1.052  71.495  0.8172 -0.1064  0.4737
   59CHL1   H20 6823   2.810   0.978  71.496  1.1252  0.1308 -1.9634
   59CHL1   C21 6824   2.792   1.186  71.524  0.0067 -0.2915 -0.8089
   59CHL1  H21A 6825   2.870   1.183  71.603 -1.0216 -1.2684  0.2048
   59CHL1  H21B 6826   2.706   1.251  71.550 -0.0898 -0.8144  0.2493
   59CHL1  H21C 6827   2.843   1.227  71.435  3.1140 -2.2785 -0.1291
   59CHL1   C22 6828   2.662   1.055  71.355  0.7772  0.2370  0.2210
   59CHL1  H22A 6829   2.731   1.072  71.270  1.8664 -1.2253  0.7632
   59CHL1  H22B 6830   2.639   0.949  71.331  4.0499 -0.3190 -1.0068
   59CHL1   C23 6831   2.529   1.135  71.332 -0.2705  0.0220  0.0334
   59CHL1  H23A 6832   2.447   1.085  71.388  0.7355 -1.5989  0.1333
   59CHL1  H23B 6833   2.534   1.235  71.380  2.4062  0.2767 -0.5931
   59CHL1   C24 6834   2.504   1.144  71.184  0.3720  1.2325  0.2487
   59CHL1  H24A 6835   2.606   1.168  71.145 -0.0602  0.9872 -1.0982
   59CHL1  H24B 6836   2.466   1.051  71.137 -3.3362  1.6422  2.1441
   59CHL1   C25 6837   2.414   1.260  71.133 -0.1223  0.6374  0.1557
   59CHL1   H25 6838   2.459   1.351  71.178  0.8573 -0.6091  1.7996
   59CHL1   C26 6839   2.424   1.274  70.975  0.0556 -0.2765 -0.0255
   59CHL1  H26A 6840   2.387   1.178  70.933  2.3436 -0.8904 -0.8037
   59CHL1  H26B 6841   2.380   1.370  70.940 -0.2331 -0.0872  0.8336
   59CHL1  H26C 6842   2.530   1.274  70.940  0.1074 -0.7403  0.1294
   59CHL1   C27 6843   2.270   1.244  71.188 -0.2226 -0.3374  0.1111
   59CHL1  H27A 6844   2.210   1.311  71.123  0.6266  1.1550  0.7929
   59CHL1  H27B 6845   2.238   1.142  71.162 -0.1407 -1.0388  2.5095
   59CHL1  H27C 6846   2.265   1.267  71.297  2.2008  0.1026  0.1889
   60CHL1    C3 6847   1.425   0.445  62.143  0.4837 -0.7225  0.0887
   60CHL1    H3 6848   1.531   0.460  62.173 -0.1590 -1.4575  3.0168
   60CHL1    O3 6849   1.346   0.430  62.259  0.5185 -0.3816 -0.3926
   60CHL1   H3' 6850   1.387   0.487  62.323 -1.8869 -0.3044  1.2045
   60CHL1    C4 6851   1.374   0.555  62.044 -0.3013 -0.4285  0.0163
   60CHL1   H4A 6852   1.263   0.552  62.049 -0.2408 -1.2477  2.7617
   60CHL1   H4B 6853   1.397   0.653  62.090  1.2092  0.1086 -1.7802
   60CHL1    C5 6854   1.440   0.546  61.910  0.4784 -0.2925 -0.8147
   60CHL1    C6 6855   1.505   0.652  61.858  0.1944 -0.1985 -0.0090
   60CHL1    H6 6856   1.508   0.743  61.920  2.7650  0.3043 -0.7266
   60CHL1    C7 6857   1.553   0.667  61.713  0.5035 -0.0435 -1.0255
   60CHL1   H7A 6858   1.511   0.759  61.666 -0.5221 -1.3262 -2.7463
   60CHL1   H7B 6859   1.664   0.665  61.716  0.6272  2.7261  1.4761
   60CHL1    C8 6860   1.515   0.544  61.630 -0.7089  0.1675  0.8403
   60CHL1    H8 6861   1.413   0.553  61.586 -0.5666  1.0681  0.6694
   60CHL1   C14 6862   1.620   0.522  61.520  1.7741 -0.1151  0.1663
   60CHL1   H14 6863   1.716   0.506  61.574  2.3369  3.0898  0.2979
   60CHL1   C15 6864   1.646   0.645  61.427 -0.4030  0.0728  0.1085
   60CHL1  H15A 6865   1.556   0.701  61.393 -1.0719 -0.3814  1.0784
   60CHL1  H15B 6866   1.715   0.713  61.483  2.0922 -0.2850 -2.3228
   60CHL1   C16 6867   1.733   0.588  61.310 -0.7878  0.1894  0.0417
   60CHL1  H16A 6868   1.693   0.633  61.217 -2.9316  0.8466  1.2227
   60CHL1  H16B 6869   1.843   0.606  61.320 -0.6384  1.9388 -3.2990
   60CHL1   C17 6870   1.709   0.436  61.314 -1.3770 -0.1287 -0.2192
   60CHL1   H17 6871   1.798   0.395  61.365 -1.1240  0.0046 -0.5535
   60CHL1   C13 6872   1.594   0.404  61.417 -0.8837  0.2850 -0.6241
   60CHL1   C18 6873   1.460   0.432  61.348  0.1417  0.0383  0.9893
   60CHL1  H18A 6874   1.469   0.533  61.303  0.6807  0.4310  1.9507
   60CHL1  H18B 6875   1.442   0.356  61.270  3.7201 -1.4842  1.4321
   60CHL1  H18C 6876   1.376   0.433  61.420 -2.0766 -1.2267 -1.4262
   60CHL1   C12 6877   1.602   0.271  61.495  0.5924  0.2217  0.2164
   60CHL1  H12A 6878   1.556   0.185  61.443 -4.0296  1.0993  2.3300
   60CHL1  H12B 6879   1.704   0.254  61.537  2.4011  1.7234 -3.1855
   60CHL1   C11 6880   1.515   0.278  61.622  0.2476 -0.9968  0.0722
   60CHL1  H11A 6881   1.411   0.261  61.585  0.2256 -1.0265  0.1485
   60CHL1  H11B 6882   1.524   0.194  61.693 -2.8215 -0.4207  1.3333
   60CHL1    C9 6883   1.520   0.416  61.705 -0.3750  0.5421  0.4963
   60CHL1    H9 6884   1.619   0.415  61.757 -0.2214  1.4089  0.2428
   60CHL1   C10 6885   1.439   0.409  61.845  0.5954 -0.3107  0.2814
   60CHL1   C19 6886   1.288   0.369  61.814 -0.0999 -0.2961 -0.0211
   60CHL1  H19A 6887   1.230   0.364  61.908  1.5194 -2.8178  0.9359
   60CHL1  H19B 6888   1.233   0.432  61.740 -1.3195 -0.9167  0.3318
   60CHL1  H19C 6889   1.295   0.260  61.797  3.0303 -0.0920 -0.5764
   60CHL1    C1 6890   1.493   0.304  61.942 -0.1266  0.5752 -0.8659
   60CHL1   H1A 6891   1.515   0.204  61.899 -0.0016 -0.5097  1.5358
   60CHL1   H1B 6892   1.595   0.329  61.977  0.0383 -3.4497  2.1736
   60CHL1    C2 6893   1.417   0.307  62.078  0.6549  0.5307  0.3391
   60CHL1   H2A 6894   1.482   0.243  62.141  1.8593  0.8751 -0.5140
   60CHL1   H2B 6895   1.312   0.272  62.083 -0.3575  2.6022 -2.9039
   60CHL1   C20 6896   1.701   0.375  61.173 -0.0090  0.2723 -0.4105
   60CHL1   H20 6897   1.618   0.431  61.124 -1.6653 -0.9997  0.8416
   60CHL1   C21 6898   1.669   0.226  61.181 -0.8682 -0.4261 -0.0838
   60CHL1  H21A 6899   1.757   0.157  61.186  1.3785  2.0811 -1.8212
   60CHL1  H21B 6900   1.631   0.200  61.080  0.7947 -3.6340 -0.0264
   60CHL1  H21C 6901   1.588   0.200  61.252 -1.7446 -0.3123 -1.0278
   60CHL1   C22 6902   1.822   0.402  61.077 -0.3425 -0.1903 -0.2308
   60CHL1  H22A 6903   1.824   0.513  61.072  2.0615  0.1406  3.5158
   60CHL1  H22B 6904   1.910   0.363  61.134 -0.1207 -0.6489 -0.8679
   60CHL1   C23 6905   1.806   0.338  60.934 -0.2414 -0.3059  0.6422
   60CHL1  H23A 6906   1.803   0.227  60.938  1.6698 -0.5382 -1.7913
   60CHL1  H23B 6907   1.709   0.371  60.893  1.6853  2.0845 -2.4828
   60CHL1   C24 6908   1.911   0.394  60.833  0.0259 -0.1183 -1.1247
   60CHL1  H24A 6909   1.913   0.501  60.863  0.4753 -0.2395 -0.6959
   60CHL1  H24B 6910   2.007   0.342  60.852 -2.1226 -2.9437  4.5191
   60CHL1   C25 6911   1.872   0.384  60.685  0.3074 -1.1543 -0.0751
   60CHL1   H25 6912   1.766   0.418  60.686  0.3585 -0.8028 -2.0034
   60CHL1   C26 6913   1.943   0.492  60.592  0.2778  0.0364  0.9554
   60CHL1  H26A 6914   1.937   0.458  60.486  0.7795  3.5767 -0.3462
   60CHL1  H26B 6915   1.884   0.585  60.608  1.6800  1.2283 -0.4315
   60CHL1  H26C 6916   2.049   0.503  60.625 -0.7511  1.5175  4.1384
   60CHL1   C27 6917   1.879   0.235  60.638  0.2151  1.0187 -0.1844
   60CHL1  H27A 6918   1.982   0.223  60.599  0.2542  0.6467  0.0240
   60CHL1  H27B 6919   1.864   0.146  60.703 -1.2887  2.1728  1.1497
   60CHL1  H27C 6920   1.820   0.218  60.545  0.7015  0.1636 -0.3502
   61CHL1    C3 6921   0.906   0.043  47.640  0.1114  0.0592 -0.0656
   61CHL1    H3 6922   0.812   0.033  47.581  0.3982  2.8969 -1.1535
   61CHL1    O3 6923   0.971  -0.083  47.651  0.5486 -0.3327 -0.5640
   61CHL1   H3' 6924   1.018  -0.069  47.734 -1.7307 -0.8995  0.9215
   61CHL1    C4 6925   1.001   0.136  47.564  0.2754 -0.0881 -0.4344
   61CHL1   H4A 6926   1.103   0.140  47.608  0.0356  1.3522  0.0582
   61CHL1   H4B 6927   1.021   0.096  47.463  2.0904  3.0187 -1.4621
   61CHL1    C5 6928   0.940   0.271  47.559  0.9537  0.4544  0.5370
   61CHL1    C6 6929   0.908   0.330  47.440  0.2845 -0.3494  0.1580
   61CHL1    H6 6930   0.930   0.273  47.348 -2.9044  0.0810 -0.9942
   61CHL1    C7 6931   0.857   0.475  47.431 -0.7263  1.1549  0.1501
   61CHL1   H7A 6932   0.908   0.539  47.356  0.3613 -1.1128 -1.1597
   61CHL1   H7B 6933   0.750   0.452  47.412 -0.1896  1.3232 -3.7195
   61CHL1    C8 6934   0.849   0.547  47.567  0.2278 -0.5896 -0.1713
   61CHL1    H8 6935   0.954   0.574  47.589  0.2508 -2.0085  1.6989
   61CHL1   C14 6936   0.754   0.669  47.557 -1.1203 -0.4241 -0.3635
   61CHL1   H14 6937   0.657   0.635  47.515  0.6612 -2.9406 -2.7537
   61CHL1   C15 6938   0.781   0.791  47.465 -0.7963  0.5613 -0.0277
   61CHL1  H15A 6939   0.890   0.808  47.473 -0.9548  1.4607  0.2726
   61CHL1  H15B 6940   0.749   0.771  47.361  0.0491  1.3873 -0.4513
   61CHL1   C16 6941   0.703   0.910  47.519  0.7945 -0.2356  0.7201
   61CHL1  H16A 6942   0.773   0.995  47.531 -1.5084  2.0876 -1.3020
   61CHL1  H16B 6943   0.621   0.943  47.452  1.2475 -1.6985 -0.6237
   61CHL1   C17 6944   0.653   0.859  47.659  0.2397 -0.4557  0.6228
   61CHL1   H17 6945   0.551   0.821  47.634 -1.5621  4.1813 -0.1712
   61CHL1   C13 6946   0.728   0.736  47.699 -1.0611  1.2805 -0.2606
   61CHL1   C18 6947   0.856   0.792  47.756 -0.7913 -0.5898 -0.4744
   61CHL1  H18A 6948   0.820   0.826  47.856 -1.4635 -0.7719 -0.6491
   61CHL1  H18B 6949   0.933   0.715  47.779 -1.0514 -0.6080  0.3857
   61CHL1  H18C 6950   0.896   0.881  47.703  0.2304  0.7624  2.3468
   61CHL1   C12 6951   0.663   0.630  47.797  0.7374  0.3221  0.2094
   61CHL1  H12A 6952   0.654   0.670  47.900 -1.6048  2.7429 -0.8353
   61CHL1  H12B 6953   0.559   0.609  47.763  0.7305  1.1127 -0.2771
   61CHL1   C11 6954   0.756   0.512  47.810 -0.3218  0.3493  0.4672
   61CHL1  H11A 6955   0.843   0.554  47.865 -0.3455 -0.7443  1.3933
   61CHL1  H11B 6956   0.720   0.428  47.873 -1.4076  0.1719 -0.3625
   61CHL1    C9 6957   0.809   0.457  47.674  0.4112 -0.2374 -0.4762
   61CHL1    H9 6958   0.722   0.413  47.620  0.8145 -0.5406 -0.8787
   61CHL1   C10 6959   0.902   0.329  47.693  0.2459 -0.0232  0.0380
   61CHL1   C19 6960   1.023   0.364  47.779  0.9378  0.2196 -0.0874
   61CHL1  H19A 6961   1.095   0.431  47.727  0.9299 -0.0792 -0.4877
   61CHL1  H19B 6962   0.996   0.418  47.873  2.3422  1.1907 -0.2089
   61CHL1  H19C 6963   1.081   0.277  47.817  1.9675  0.6295 -0.6622
   61CHL1    C1 6964   0.811   0.223  47.775 -0.4784 -0.1587 -0.1156
   61CHL1   H1A 6965   0.814   0.249  47.883 -3.0623 -3.8619  1.0354
   61CHL1   H1B 6966   0.708   0.221  47.733 -0.6867 -0.2385  0.3937
   61CHL1    C2 6967   0.867   0.091  47.783  0.0774  0.2658 -0.6666
   61CHL1   H2A 6968   0.786   0.031  47.829  1.5215 -0.0710  1.5757
   61CHL1   H2B 6969   0.957   0.102  47.848 -0.3910  3.1645 -0.3991
   61CHL1   C20 6970   0.617   0.966  47.764  0.3128 -0.2140 -0.2306
   61CHL1   H20 6971   0.631   0.914  47.861 -2.8615 -0.7434  0.0442
   61CHL1   C21 6972   0.461   0.996  47.759  0.4372  0.1844 -0.6164
   61CHL1  H21A 6973   0.424   1.012  47.656 -1.9694 -1.4448 -0.0877
   61CHL1  H21B 6974   0.441   1.079  47.830 -0.0025 -1.4654  1.2827
   61CHL1  H21C 6975   0.419   0.905  47.807  3.9026 -2.0236 -1.3566
   61CHL1   C22 6976   0.694   1.094  47.743  0.8083 -0.2356 -0.5415
   61CHL1  H22A 6977   0.799   1.069  47.716  1.0419  0.9780 -0.8038
   61CHL1  H22B 6978   0.645   1.141  47.655 -2.6363 -3.1013 -0.3741
   61CHL1   C23 6979   0.688   1.189  47.859  0.3893  0.0264 -0.5142
   61CHL1  H23A 6980   0.584   1.227  47.863  0.5317  0.3129  1.5030
   61CHL1  H23B 6981   0.718   1.133  47.950  1.6043 -1.8407 -1.9976
   61CHL1   C24 6982   0.773   1.316  47.836 -0.2691  0.4770 -0.3632
   61CHL1  H24A 6983   0.878   1.289  47.811 -0.2312 -0.1846  0.4773
   61CHL1  H24B 6984   0.727   1.383  47.760 -0.7416 -0.5363 -0.9906
   61CHL1   C25 6985   0.786   1.394  47.974 -0.1270 -0.5365  0.2720
   61CHL1   H25 6986   0.799   1.319  48.054  1.1503  0.5925  1.1720
   61CHL1   C26 6987   0.898   1.492  47.986 -0.1905  0.3257  1.1343
   61CHL1  H26A 6988   0.895   1.545  48.084 -1.0957  0.7650  0.8812
   61CHL1  H26B 6989   1.001   1.462  47.959 -0.4950 -1.4669  1.8447
   61CHL1  H26C 6990   0.875   1.568  47.908  0.7937 -0.9551 -0.4867
   61CHL1   C27 6991   0.645   1.455  48.001 -1.3169  0.4549 -0.1826
   61CHL1  H27A 6992   0.631   1.475  48.109  2.1599 -1.4763  0.7621
   61CHL1  H27B 6993   0.625   1.539  47.931  1.7042  0.2257 -1.4634
   61CHL1  H27C 6994   0.575   1.370  47.986 -1.0438  0.0332  0.8894
   62CHL1    C3 6995   2.194   1.040  56.408 -0.7443 -0.9445  0.1382
   62CHL1    H3 6996   2.180   1.149  56.420  0.1609 -0.5380 -1.9266
   62CHL1    O3 6997   2.228   0.988  56.533 -0.6251  0.0477 -0.4508
   62CHL1   H3' 6998   2.303   1.029  56.575 -1.5392 -2.1904  3.9358
   62CHL1    C4 6999   2.067   0.974  56.348  0.4168 -0.0252 -0.1044
   62CHL1   H4A 7000   2.071   0.863  56.357  0.8929  0.1604  3.8326
   62CHL1   H4B 7001   1.979   0.994  56.412 -0.4513 -0.3064 -1.1747
   62CHL1    C5 7002   2.050   1.025  56.207 -0.0605 -0.0243  0.2178
   62CHL1    C6 7003   1.938   1.091  56.180 -0.0895 -0.0276 -0.2699
   62CHL1    H6 7004   1.869   1.116  56.262  2.0147 -0.6790  1.8278
   62CHL1    C7 7005   1.905   1.138  56.039  0.2441 -0.2747  0.5546
   62CHL1   H7A 7006   1.800   1.106  56.021  1.3166 -3.2131 -1.1292
   62CHL1   H7B 7007   1.919   1.249  56.036  3.8868 -0.6396 -1.7600
   62CHL1    C8 7008   1.986   1.079  55.928  0.2378 -0.6822 -0.7846
   62CHL1    H8 7009   1.980   0.968  55.922  0.1353 -0.9481  2.3867
   62CHL1   C14 7010   1.957   1.146  55.794  0.6437  0.5217 -0.5200
   62CHL1   H14 7011   1.984   1.251  55.820  3.8133 -1.1046  3.8601
   62CHL1   C15 7012   1.811   1.142  55.740 -0.4034 -0.7974 -0.4281
   62CHL1  H15A 7013   1.783   1.035  55.740  0.2045 -0.9777 -1.4266
   62CHL1  H15B 7014   1.740   1.209  55.792  1.8093  1.6036 -0.3160
   62CHL1   C16 7015   1.836   1.185  55.593  0.5589 -0.0562 -1.2059
   62CHL1  H16A 7016   1.783   1.112  55.528  0.6288 -1.1963 -0.0413
   62CHL1  H16B 7017   1.791   1.286  55.582  1.0322  0.1315 -1.4455
   62CHL1   C17 7018   1.989   1.189  55.569 -0.6715  0.6929  1.5082
   62CHL1   H17 7019   2.011   1.297  55.577  0.1509  0.8106 -1.4625
   62CHL1   C13 7020   2.043   1.104  55.682 -0.2757  0.0221 -0.1771
   62CHL1   C18 7021   2.038   0.952  55.650  0.4413  0.5083 -0.2240
   62CHL1  H18A 7022   2.107   0.940  55.563  2.2645  1.8313  0.9676
   62CHL1  H18B 7023   2.063   0.892  55.739 -1.5576  2.2414  1.6417
   62CHL1  H18C 7024   1.933   0.937  55.615  0.6762  0.7863 -1.0910
   62CHL1   C12 7025   2.187   1.146  55.722 -0.2862 -0.7338 -0.2069
   62CHL1  H12A 7026   2.270   1.121  55.652  1.3687  0.7810  1.0980
   62CHL1  H12B 7027   2.196   1.254  55.749 -0.1639  0.5580 -4.6358
   62CHL1   C11 7028   2.233   1.074  55.853 -0.7466 -0.5956  0.2593
   62CHL1  H11A 7029   2.254   0.971  55.817  1.4498  1.2627 -4.5899
   62CHL1  H11B 7030   2.329   1.112  55.894  2.3076 -1.8123 -4.9393
   62CHL1    C9 7031   2.126   1.097  55.974  0.8849 -0.1210 -0.2707
   62CHL1    H9 7032   2.138   1.203  56.008 -0.2076 -0.1729  0.2871
   62CHL1   C10 7033   2.158   1.007  56.102 -0.0525 -0.5088  0.3924
   62CHL1   C19 7034   2.164   0.861  56.065 -0.4710  0.7353  0.1736
   62CHL1  H19A 7035   2.235   0.847  55.980  2.7143  0.1521  2.7496
   62CHL1  H19B 7036   2.204   0.806  56.153 -0.0689  2.2819  0.9960
   62CHL1  H19C 7037   2.070   0.812  56.032  0.4056  0.1092 -1.5342
   62CHL1    C1 7038   2.291   1.060  56.165  0.3221 -1.0861  0.8587
   62CHL1   H1A 7039   2.380   1.020  56.112 -1.4528 -1.3547 -2.1813
   62CHL1   H1B 7040   2.298   1.171  56.169  2.0101 -1.2175  2.7243
   62CHL1    C2 7041   2.317   1.031  56.317 -0.1266 -0.9149 -0.4135
   62CHL1   H2A 7042   2.394   1.103  56.353 -2.2810  2.6025 -2.2470
   62CHL1   H2B 7043   2.355   0.927  56.320  0.9915 -0.6341 -2.5275
   62CHL1   C20 7044   2.021   1.147  55.421  0.2948 -0.2164 -0.1814
   62CHL1   H20 7045   2.018   1.038  55.397 -0.3930 -0.2758  0.1626
   62CHL1   C21 7046   2.171   1.172  55.393 -1.2663 -0.2887  0.0648
   62CHL1  H21A 7047   2.190   1.260  55.459 -1.2763  0.4051 -0.8422
   62CHL1  H21B 7048   2.191   1.194  55.286  1.7921  0.7671  0.7528
   62CHL1  H21C 7049   2.233   1.086  55.425 -3.3016 -1.5411  0.8613
   62CHL1   C22 7050   1.934   1.230  55.315 -0.1930  0.8616  0.4288
   62CHL1  H22A 7051   1.845   1.286  55.349  2.1712  3.6808  2.5522
   62CHL1  H22B 7052   1.998   1.310  55.271 -1.1018  1.4746  0.2036
   62CHL1   C23 7053   1.872   1.145  55.204 -0.3553  0.1969 -0.3339
   62CHL1  H23A 7054   1.954   1.088  55.155 -2.0819 -1.7936 -1.0680
   62CHL1  H23B 7055   1.799   1.072  55.245 -2.2170  2.0628 -0.1769
   62CHL1   C24 7056   1.812   1.225  55.093  0.3661 -0.6670 -0.0115
   62CHL1  H24A 7057   1.740   1.298  55.136 -1.1051 -2.0656 -0.0323
   62CHL1  H24B 7058   1.891   1.287  55.046  1.1327 -4.0646 -3.7848
   62CHL1   C25 7059   1.721   1.143  54.987 -0.7042  0.3503 -0.2801
   62CHL1   H25 7060   1.784   1.065  54.940 -2.0916 -2.6184  2.3679
   62CHL1   C26 7061   1.610   1.056  55.055  0.3728  0.8453 -0.2556
   62CHL1  H26A 7062   1.648   0.960  55.097  1.6449  0.9357 -1.1267
   62CHL1  H26B 7063   1.569   1.126  55.131  0.1579 -0.0355  0.4440
   62CHL1  H26C 7064   1.532   1.029  54.982 -0.4665  0.8795  0.6113
   62CHL1   C27 7065   1.671   1.235  54.875  0.2700  0.2617 -0.2986
   62CHL1  H27A 7066   1.759   1.291  54.838  0.0701 -1.3171 -3.4659
   62CHL1  H27B 7067   1.643   1.169  54.791  1.8400 -0.9421  0.0815
   62CHL1  H27C 7068   1.596   1.307  54.914 -0.3217 -0.8500  0.6814
   63CHL1    C3 7069   2.681   2.333  73.039  0.1900 -0.9742  0.6948
   63CHL1    H3 7070   2.605   2.408  73.011 -0.2611 -1.8815 -0.5945
   63CHL1    O3 7071   2.755   2.367  73.153 -0.3125 -0.3594 -0.3948
   63CHL1   H3' 7072   2.841   2.406  73.136 -0.6347  0.7382  0.3282
   63CHL1    C4 7073   2.601   2.205  73.063  0.0974  0.3092  1.4590
   63CHL1   H4A 7074   2.666   2.120  73.091 -0.3147 -0.0740  1.2744
   63CHL1   H4B 7075   2.540   2.224  73.153  2.6091 -0.2467  3.3950
   63CHL1    C5 7076   2.511   2.161  72.947 -0.4287  0.1062 -0.0739
   63CHL1    C6 7077   2.378   2.161  72.955  0.0632  0.2748  0.0869
   63CHL1    H6 7078   2.333   2.175  73.054 -1.4352  0.5730 -0.6083
   63CHL1    C7 7079   2.289   2.126  72.846 -0.6744  0.9136  0.1872
   63CHL1   H7A 7080   2.215   2.046  72.867 -0.4881 -0.3644 -3.4753
   63CHL1   H7B 7081   2.240   2.216  72.805  1.2204  1.1673 -1.6545
   63CHL1    C8 7082   2.369   2.065  72.717  0.5341  0.6276 -0.1475
   63CHL1    H8 7083   2.400   1.966  72.756  2.2296  1.2010  0.0172
   63CHL1   C14 7084   2.278   2.038  72.597  0.6150 -0.1683  0.8551
   63CHL1   H14 7085   2.256   2.139  72.554 -3.6489 -1.7997 -1.4565
   63CHL1   C15 7086   2.146   1.975  72.618 -0.1800  0.3239 -0.0189
   63CHL1  H15A 7087   2.160   1.896  72.695  1.1423  1.3890  0.9001
   63CHL1  H15B 7088   2.074   2.055  72.646 -0.3402 -0.4326  1.9503
   63CHL1   C16 7089   2.103   1.918  72.477  0.1528  0.0892 -0.0911
   63CHL1  H16A 7090   2.101   1.807  72.477  0.2999  0.0878  0.2164
   63CHL1  H16B 7091   2.010   1.968  72.444  0.9763  0.5796 -1.7743
   63CHL1   C17 7092   2.219   1.962  72.377  0.1619 -0.0923 -0.6252
   63CHL1   H17 7093   2.187   2.058  72.331  2.5207  1.0654 -0.0404
   63CHL1   C13 7094   2.341   1.977  72.474  0.0360  0.6651 -0.0409
   63CHL1   C18 7095   2.393   1.834  72.510 -0.9449 -0.0032 -0.2223
   63CHL1  H18A 7096   2.319   1.777  72.570 -0.6123  1.0050  1.2036
   63CHL1  H18B 7097   2.431   1.781  72.420 -2.1200  1.4343 -1.6261
   63CHL1  H18C 7098   2.480   1.841  72.579  0.3432 -0.7146 -1.7150
   63CHL1   C12 7099   2.459   2.069  72.432 -0.3026  0.8059 -0.3819
   63CHL1  H12A 7100   2.511   2.004  72.359 -1.0633  0.3309 -0.5089
   63CHL1  H12B 7101   2.425   2.165  72.385 -0.6749  1.0778  0.4305
   63CHL1   C11 7102   2.557   2.108  72.543 -0.1361  0.1457 -0.3617
   63CHL1  H11A 7103   2.635   2.031  72.558 -0.7350 -1.3527 -3.7867
   63CHL1  H11B 7104   2.616   2.196  72.510  0.4465 -0.3524 -0.6775
   63CHL1    C9 7105   2.497   2.141  72.686 -0.8518  0.9748  0.1182
   63CHL1    H9 7106   2.466   2.245  72.663 -0.6924  0.2264 -4.2927
   63CHL1   C10 7107   2.591   2.154  72.813 -0.5702  0.0053  0.0441
   63CHL1   C19 7108   2.676   2.019  72.831 -0.7031  0.1647 -0.8542
   63CHL1  H19A 7109   2.762   2.024  72.901 -1.4994  1.2037  0.0839
   63CHL1  H19B 7110   2.617   1.935  72.872 -2.2801  1.5754 -0.1280
   63CHL1  H19C 7111   2.736   1.998  72.740  1.3489 -1.2555  0.7492
   63CHL1    C1 7112   2.690   2.283  72.798  0.4113  0.0858 -0.7195
   63CHL1   H1A 7113   2.759   2.266  72.713  4.0221  0.4964  1.9378
   63CHL1   H1B 7114   2.637   2.380  72.782 -1.0246 -0.2741  1.3993
   63CHL1    C2 7115   2.778   2.306  72.922 -0.6863 -0.4223  0.2043
   63CHL1   H2A 7116   2.850   2.387  72.894 -0.6203 -0.9391 -1.1496
   63CHL1   H2B 7117   2.838   2.215  72.943 -2.2264 -1.6745 -0.6431
   63CHL1   C20 7118   2.228   1.861  72.256  0.2091 -0.0362  1.1016
   63CHL1   H20 7119   2.275   1.766  72.287  1.6477 -0.9135 -3.1557
   63CHL1   C21 7120   2.306   1.933  72.149  0.2292  0.1862 -0.1297
   63CHL1  H21A 7121   2.296   1.869  72.058  0.4298 -0.0008 -0.0215
   63CHL1  H21B 7122   2.415   1.943  72.167  0.1264 -0.1618  0.7592
   63CHL1  H21C 7123   2.272   2.038  72.133 -0.0119 -0.0211 -1.0472
   63CHL1   C22 7124   2.083   1.840  72.206 -0.2571  0.3745 -0.2358
   63CHL1  H22A 7125   2.030   1.787  72.289 -0.1085 -0.5041 -0.6864
   63CHL1  H22B 7126   2.031   1.934  72.180 -1.5050 -0.8120 -2.3262
   63CHL1   C23 7127   2.075   1.741  72.085  0.3900  0.1859 -0.0698
   63CHL1  H23A 7128   2.130   1.789  72.001  3.4141  1.3323  2.3695
   63CHL1  H23B 7129   2.123   1.642  72.101 -0.7200 -0.3696 -0.1001
   63CHL1   C24 7130   1.926   1.720  72.041 -0.7406 -0.9469  0.2097
   63CHL1  H24A 7131   1.878   1.662  72.123  1.4935 -1.3326  1.3272
   63CHL1  H24B 7132   1.872   1.816  72.028  1.0927 -0.1444 -2.5736
   63CHL1   C25 7133   1.898   1.640  71.909 -0.4435 -0.0703  0.3348
   63CHL1   H25 7134   1.944   1.539  71.916 -0.6953 -0.1532  0.8337
   63CHL1   C26 7135   1.751   1.630  71.894 -0.1027 -0.2127  0.2773
   63CHL1  H26A 7136   1.710   1.578  71.984  1.0651  1.1469  1.6302
   63CHL1  H26B 7137   1.706   1.731  71.899  1.0848  0.3351 -0.0377
   63CHL1  H26C 7138   1.724   1.569  71.805 -0.2802  1.7206 -1.0438
   63CHL1   C27 7139   1.957   1.710  71.793 -0.3157  1.3317 -0.5189
   63CHL1  H27A 7140   1.935   1.642  71.707 -0.1950  1.5656 -0.7389
   63CHL1  H27B 7141   1.899   1.803  71.777 -0.5144  0.9461 -2.2850
   63CHL1  H27C 7142   2.068   1.719  71.787 -0.3402  1.1216 -1.4323
   64CHL1    C3 7143   2.027   2.398  62.568  0.1264 -0.7792  0.7060
   64CHL1    H3 7144   1.948   2.466  62.531 -1.5153 -2.0393  1.7956
   64CHL1    O3 7145   1.999   2.389  62.708  0.4036  0.1867 -0.3096
   64CHL1   H3' 7146   2.066   2.328  62.739 -1.1240 -1.5441 -0.2733
   64CHL1    C4 7147   2.016   2.262  62.496 -0.5049  0.0478  0.4180
   64CHL1   H4A 7148   2.094   2.205  62.552 -0.6490 -1.7527 -1.1195
   64CHL1   H4B 7149   1.919   2.214  62.519  0.1649 -1.1211  0.9392
   64CHL1    C5 7150   2.053   2.255  62.355  0.1632 -0.6365  0.3794
   64CHL1    C6 7151   1.966   2.204  62.259  0.8418  0.4834 -0.1850
   64CHL1    H6 7152   1.877   2.147  62.291  0.2419  1.8093  0.5806
   64CHL1    C7 7153   1.988   2.212  62.110  0.4800  0.9803 -0.3491
   64CHL1   H7A 7154   1.958   2.116  62.063  0.2811 -0.4803  2.4979
   64CHL1   H7B 7155   1.919   2.284  62.063  1.1905  1.6209 -0.4263
   64CHL1    C8 7156   2.133   2.241  62.062 -1.1392  0.5195  0.6192
   64CHL1    H8 7157   2.192   2.147  62.067 -2.3052 -0.3669 -1.3400
   64CHL1   C14 7158   2.129   2.291  61.923  0.4482 -0.0766 -1.2174
   64CHL1   H14 7159   2.058   2.376  61.922  0.0870 -0.3176  0.9952
   64CHL1   C15 7160   2.080   2.188  61.813  0.5142  0.5670  0.1845
   64CHL1  H15A 7161   2.127   2.092  61.841  1.6007  0.7865 -0.7949
   64CHL1  H15B 7162   1.969   2.185  61.815  0.3767  1.0209 -2.7322
   64CHL1   C16 7163   2.136   2.246  61.680  1.4420  0.1845 -0.1550
   64CHL1  H16A 7164   2.190   2.165  61.626 -0.1028 -0.8748 -0.1706
   64CHL1  H16B 7165   2.069   2.280  61.599  2.9967  0.6044 -1.3017
   64CHL1   C17 7166   2.219   2.369  61.717  0.4140 -0.8079 -0.4461
   64CHL1   H17 7167   2.153   2.457  61.730  2.0677  1.1692 -3.8966
   64CHL1   C13 7168   2.262   2.341  61.871 -0.2396 -0.1031  0.3662
   64CHL1   C18 7169   2.367   2.236  61.877  0.0050 -0.5738 -0.1413
   64CHL1  H18A 7170   2.350   2.157  61.800  1.0486  2.6586 -4.0491
   64CHL1  H18B 7171   2.458   2.285  61.836 -0.8198 -1.1278 -2.8687
   64CHL1  H18C 7172   2.386   2.198  61.980 -0.1913  3.0253  1.3847
   64CHL1   C12 7173   2.312   2.464  61.946 -0.3524  0.7830  0.8418
   64CHL1  H12A 7174   2.406   2.506  61.905 -0.8958  0.6024 -0.6342
   64CHL1  H12B 7175   2.232   2.541  61.947  0.6053  2.0218 -2.9641
   64CHL1   C11 7176   2.313   2.432  62.099  0.2014 -1.1948  0.1424
   64CHL1  H11A 7177   2.398   2.360  62.106 -1.8069 -3.8473 -0.7460
   64CHL1  H11B 7178   2.327   2.521  62.163  1.4665 -0.2189 -1.4338
   64CHL1    C9 7179   2.182   2.361  62.151 -0.1720 -0.4809  0.1363
   64CHL1    H9 7180   2.101   2.436  62.132  2.1615  1.7189 -1.9008
   64CHL1   C10 7181   2.175   2.337  62.308 -0.2844 -0.2465  0.9603
   64CHL1   C19 7182   2.304   2.269  62.345  0.2496 -0.5754 -0.1069
   64CHL1  H19A 7183   2.305   2.221  62.445  0.1043 -0.0701  0.1470
   64CHL1  H19B 7184   2.318   2.180  62.280 -0.8183 -1.4499  0.8163
   64CHL1  H19C 7185   2.390   2.340  62.340 -0.7617  0.6133 -1.5549
   64CHL1    C1 7186   2.170   2.476  62.387  0.2139 -0.2551 -0.1455
   64CHL1   H1A 7187   2.258   2.537  62.359 -1.3517  1.4178 -1.7060
   64CHL1   H1B 7188   2.091   2.543  62.347 -0.3676 -2.3801 -2.8786
   64CHL1    C2 7189   2.151   2.472  62.533 -0.0912 -0.2826 -0.0284
   64CHL1   H2A 7190   2.143   2.571  62.582  2.0223  0.1057 -0.3743
   64CHL1   H2B 7191   2.243   2.430  62.580 -0.6827 -1.2629  0.2938
   64CHL1   C20 7192   2.324   2.430  61.617 -0.8040  0.1737  0.1806
   64CHL1   H20 7193   2.390   2.499  61.673  1.9728  0.4186 -3.0642
   64CHL1   C21 7194   2.252   2.536  61.524  0.0573  0.3366 -0.4340
   64CHL1  H21A 7195   2.193   2.478  61.450  2.7464 -0.8615 -1.7881
   64CHL1  H21B 7196   2.327   2.603  61.478  0.5550  2.0838  2.6146
   64CHL1  H21C 7197   2.193   2.602  61.591 -0.8049 -1.0357  0.1991
   64CHL1   C22 7198   2.419   2.329  61.555  0.2555  0.0575 -0.0397
   64CHL1  H22A 7199   2.432   2.254  61.636 -2.1981  1.1460  1.4516
   64CHL1  H22B 7200   2.353   2.279  61.481 -2.3154  1.7815  0.9774
   64CHL1   C23 7201   2.542   2.387  61.496 -0.4823 -0.1937  0.2031
   64CHL1  H23A 7202   2.504   2.451  61.414  2.1784  0.3969 -0.6470
   64CHL1  H23B 7203   2.601   2.444  61.571 -2.2024 -0.5696  1.9560
   64CHL1   C24 7204   2.631   2.282  61.443  0.2272  0.1110  0.4561
   64CHL1  H24A 7205   2.667   2.209  61.519 -1.3759 -2.0441 -0.7575
   64CHL1  H24B 7206   2.586   2.228  61.357  0.9818 -1.0510  0.7677
   64CHL1   C25 7207   2.762   2.339  61.373  0.0308 -0.6649  1.0074
   64CHL1   H25 7208   2.817   2.400  61.447  3.0207 -1.2399 -0.6058
   64CHL1   C26 7209   2.856   2.238  61.320 -0.4057  0.6889  0.3217
   64CHL1  H26A 7210   2.917   2.276  61.236  0.0709  0.4599  0.5626
   64CHL1  H26B 7211   2.916   2.192  61.402 -1.5890 -2.6233 -0.4964
   64CHL1  H26C 7212   2.793   2.163  61.268  0.7264  0.0848 -0.2109
   64CHL1   C27 7213   2.730   2.432  61.260 -0.6684 -0.7775 -0.1926
   64CHL1  H27A 7214   2.830   2.455  61.218 -0.2724 -3.1736 -0.7084
   64CHL1  H27B 7215   2.680   2.373  61.180  0.6263 -3.6904  0.9812
   64CHL1  H27C 7216   2.682   2.520  61.307  2.7714 -0.1047  2.4333
   65CHL1    C3 7217   0.244   0.366  71.017  0.4106 -0.4364 -0.3563
   65CHL1    H3 7218   0.271   0.333  70.915 -0.6630  0.1732 -0.8586
   65CHL1    O3 7219   0.243   0.251  71.095  0.6863  0.2815 -0.6911
   65CHL1   H3' 7220   0.155   0.214  71.088  0.3134  0.9398  0.3836
   65CHL1    C4 7221   0.335   0.471  71.073 -0.9321 -0.4032  0.3241
   65CHL1   H4A 7222   0.288   0.484  71.173  1.2925  0.5541  1.2912
   65CHL1   H4B 7223   0.435   0.431  71.099 -1.1380  0.2876  2.3239
   65CHL1    C5 7224   0.335   0.600  70.992  0.3737 -0.1947 -0.0698
   65CHL1    C6 7225   0.449   0.648  70.943 -0.0269  0.1452 -0.5323
   65CHL1    H6 7226   0.539   0.586  70.959  0.2227  0.5665 -0.2660
   65CHL1    C7 7227   0.458   0.777  70.869 -1.0624  0.2924 -0.5096
   65CHL1   H7A 7228   0.544   0.835  70.907 -2.3060  0.6985  1.8609
   65CHL1   H7B 7229   0.486   0.760  70.762 -1.1828 -0.7294 -0.3944
   65CHL1    C8 7230   0.334   0.862  70.898  1.2360  0.3691  0.5819
   65CHL1    H8 7231   0.334   0.891  71.005  1.1141 -1.6731  1.1674
   65CHL1   C14 7232   0.321   0.986  70.804  0.1139  0.3175 -0.3469
   65CHL1   H14 7233   0.316   0.930  70.708 -1.5739 -0.0761 -0.0534
   65CHL1   C15 7234   0.429   1.092  70.796  0.5701 -0.3246 -0.1571
   65CHL1  H15A 7235   0.433   1.145  70.893 -1.0162  0.7041 -0.6008
   65CHL1  H15B 7236   0.530   1.057  70.768  1.3981  0.0266  2.2060
   65CHL1   C16 7237   0.382   1.188  70.684  0.4972 -0.2116 -0.1671
   65CHL1  H16A 7238   0.432   1.285  70.707 -0.6983  0.1243  1.1670
   65CHL1  H16B 7239   0.412   1.143  70.587  0.2459 -2.2672  0.6745
   65CHL1   C17 7240   0.229   1.176  70.692  1.5429  0.0816 -0.0946
   65CHL1   H17 7241   0.200   1.126  70.597 -1.4931 -1.2190  1.3691
   65CHL1   C13 7242   0.189   1.064  70.795  0.8595 -0.2201  0.4470
   65CHL1   C18 7243   0.150   1.112  70.941  0.2565  0.7336  1.2814
   65CHL1  H18A 7244   0.059   1.175  70.937  0.0545  0.3979 -1.2569
   65CHL1  H18B 7245   0.139   1.025  71.008 -1.8874  1.4997  2.0108
   65CHL1  H18C 7246   0.237   1.174  70.973 -1.0322  4.7986 -2.0361
   65CHL1   C12 7247   0.089   0.961  70.744 -0.0736 -0.4022  0.9777
   65CHL1  H12A 7248  -0.009   1.013  70.736  0.1800 -0.0975 -0.5125
   65CHL1  H12B 7249   0.120   0.926  70.643 -1.2700 -0.2214  0.5364
   65CHL1   C11 7250   0.078   0.833  70.826  0.4676  0.7562 -0.5575
   65CHL1  H11A 7251   0.016   0.872  70.909 -0.1749 -0.6265 -0.3574
   65CHL1  H11B 7252   0.015   0.767  70.762  1.5342  0.3016 -1.1681
   65CHL1    C9 7253   0.214   0.769  70.869  0.0954 -0.2005  0.1754
   65CHL1    H9 7254   0.238   0.722  70.772  1.8732 -1.0644  0.9920
   65CHL1   C10 7255   0.195   0.657  70.979  0.2004 -0.2643  0.5175
   65CHL1   C19 7256   0.136   0.726  71.104 -0.6540  0.1991  1.0364
   65CHL1  H19A 7257   0.159   0.654  71.185  1.6204 -0.1491  0.1520
   65CHL1  H19B 7258   0.189   0.823  71.109  2.2184 -1.1010 -1.3057
   65CHL1  H19C 7259   0.025   0.734  71.095 -0.8869 -1.8028  1.7231
   65CHL1    C1 7260   0.097   0.547  70.925  0.7232 -0.7708  0.5845
   65CHL1   H1A 7261  -0.005   0.593  70.925  1.5939  1.3012  0.2179
   65CHL1   H1B 7262   0.130   0.534  70.820 -1.6477  2.0459 -0.6723
   65CHL1    C2 7263   0.104   0.420  71.010  0.6579 -0.0888 -0.4282
   65CHL1   H2A 7264   0.038   0.341  70.966 -4.8210  1.4581  3.9086
   65CHL1   H2B 7265   0.045   0.427  71.103  1.9273  1.1127  0.3265
   65CHL1   C20 7266   0.157   1.313  70.707 -0.3809  0.0338 -0.0770
   65CHL1   H20 7267   0.134   1.344  70.812  0.6952  2.0061 -0.3872
   65CHL1   C21 7268   0.011   1.289  70.646 -0.5089 -0.5250 -0.2363
   65CHL1  H21A 7269   0.012   1.260  70.539  0.5687  1.9047 -0.9540
   65CHL1  H21B 7270  -0.054   1.379  70.651 -0.6531 -0.6907  1.1306
   65CHL1  H21C 7271  -0.042   1.214  70.709 -0.2518  0.4685  1.2048
   65CHL1   C22 7272   0.222   1.436  70.647  0.8704 -0.5678  0.2453
   65CHL1  H22A 7273   0.144   1.514  70.654 -0.5768 -2.0694  1.9545
   65CHL1  H22B 7274   0.315   1.471  70.697  0.8904  0.0162 -0.2023
   65CHL1   C23 7275   0.248   1.414  70.491 -0.3289 -0.2655 -1.1659
   65CHL1  H23A 7276   0.301   1.318  70.476 -1.7724 -1.4821  1.0088
   65CHL1  H23B 7277   0.146   1.398  70.449 -1.3308  1.5600  0.4298
   65CHL1   C24 7278   0.296   1.548  70.423 -0.3218 -0.0578 -0.5731
   65CHL1  H24A 7279   0.212   1.621  70.419  0.5890  1.2088  1.6653
   65CHL1  H24B 7280   0.372   1.585  70.495 -0.9031 -1.7166  0.9548
   65CHL1   C25 7281   0.350   1.528  70.274  0.7866  0.4510 -0.2871
   65CHL1   H25 7282   0.412   1.436  70.269 -1.5688 -1.2347  0.1950
   65CHL1   C26 7283   0.232   1.505  70.179  0.4918 -0.2037  1.3120
   65CHL1  H26A 7284   0.270   1.512  70.074  1.9813  0.6246  1.8740
   65CHL1  H26B 7285   0.176   1.409  70.183  1.8708 -1.2627 -1.6619
   65CHL1  H26C 7286   0.167   1.595  70.180  0.4626 -0.1413 -0.8584
   65CHL1   C27 7287   0.435   1.649  70.225 -0.2869 -0.5572  0.4960
   65CHL1  H27A 7288   0.508   1.697  70.294  1.7330  0.3902 -2.1338
   65CHL1  H27B 7289   0.482   1.626  70.127  0.3149 -4.1199  1.4648
   65CHL1  H27C 7290   0.359   1.725  70.197 -2.3596 -3.0655 -1.0942
   66CHL1    C3 7291   1.251   0.689  53.647 -0.2928 -1.1026  0.2627
   66CHL1    H3 7292   1.152   0.715  53.604 -0.6390 -3.4208 -0.4760
   66CHL1    O3 7293   1.354   0.705  53.552 -0.1846  0.6037  0.2546
   66CHL1   H3' 7294   1.440   0.690  53.591  1.0255  2.3581 -1.5002
   66CHL1    C4 7295   1.294   0.782  53.761 -0.2679  0.2737 -0.4973
   66CHL1   H4A 7296   1.401   0.763  53.783 -1.1892 -2.8318  2.1735
   66CHL1   H4B 7297   1.281   0.887  53.727 -0.4671  0.0788 -1.0275
   66CHL1    C5 7298   1.205   0.758  53.888 -0.8216  0.1236  0.4657
   66CHL1    C6 7299   1.132   0.858  53.945 -0.3794  0.4897 -0.3181
   66CHL1    H6 7300   1.151   0.957  53.900 -1.4171 -0.2452 -2.5149
   66CHL1    C7 7301   1.047   0.846  54.071  0.1670  0.8793 -0.0976
   66CHL1   H7A 7302   1.058   0.935  54.138  0.3121  2.1938 -1.7926
   66CHL1   H7B 7303   0.947   0.848  54.024  1.1127  0.7369 -2.2530
   66CHL1    C8 7304   1.071   0.708  54.135  0.0844 -0.3384  0.5326
   66CHL1    H8 7305   1.166   0.716  54.192 -0.2966 -0.2998  1.1705
   66CHL1   C14 7306   0.949   0.679  54.219 -0.3969 -0.2364 -0.5649
   66CHL1   H14 7307   0.868   0.675  54.144 -0.1786  1.3393 -0.9104
   66CHL1   C15 7308   0.905   0.790  54.321  0.4150  0.0505  0.2923
   66CHL1  H15A 7309   0.997   0.834  54.367 -1.9212  3.0741  2.4595
   66CHL1  H15B 7310   0.847   0.869  54.270 -1.3715 -1.6594 -0.4170
   66CHL1   C16 7311   0.816   0.723  54.422 -0.3440  0.0201  0.1752
   66CHL1  H16A 7312   0.856   0.751  54.522  1.5418  0.6914 -0.7191
   66CHL1  H16B 7313   0.710   0.757  54.420 -0.1508  0.6464  0.3334
   66CHL1   C17 7314   0.837   0.571  54.393 -1.1409  0.2627 -1.2020
   66CHL1   H17 7315   0.764   0.535  54.317 -0.2333 -0.7399 -1.6400
   66CHL1   C13 7316   0.957   0.555  54.302 -0.1741  0.3033 -0.7795
   66CHL1   C18 7317   1.082   0.559  54.401  0.6095 -0.0103  0.4075
   66CHL1  H18A 7318   1.076   0.637  54.480  0.2031 -0.8193  1.1937
   66CHL1  H18B 7319   1.107   0.463  54.452 -3.0048 -0.9412  0.6361
   66CHL1  H18C 7320   1.166   0.586  54.334 -0.8020  0.9254 -1.0352
   66CHL1   C12 7321   0.983   0.427  54.213 -0.3758  0.6452  0.1040
   66CHL1  H12A 7322   1.014   0.350  54.286  1.9603  3.3718  2.2136
   66CHL1  H12B 7323   0.891   0.396  54.159 -1.0414 -1.7245  2.4073
   66CHL1   C11 7324   1.087   0.450  54.106  0.5989  0.1873 -0.2574
   66CHL1  H11A 7325   1.181   0.451  54.165 -1.2449  2.2581  3.0137
   66CHL1  H11B 7326   1.091   0.372  54.027  0.7392  1.1534 -1.2110
   66CHL1    C9 7327   1.088   0.590  54.036  0.5752 -0.4866  0.0137
   66CHL1    H9 7328   0.994   0.569  53.979  0.7324 -0.5762 -0.2127
   66CHL1   C10 7329   1.202   0.610  53.935 -0.4369  0.4319  1.1197
   66CHL1   C19 7330   1.339   0.597  54.006 -1.2061  0.0890 -0.4832
   66CHL1  H19A 7331   1.342   0.494  54.047  2.9508  0.2215 -0.0323
   66CHL1  H19B 7332   1.423   0.607  53.935 -2.5538  4.1121 -1.7733
   66CHL1  H19C 7333   1.354   0.678  54.081  2.7633  0.8531 -1.8957
   66CHL1    C1 7334   1.189   0.511  53.818 -0.0103  0.0906  0.0709
   66CHL1   H1A 7335   1.224   0.413  53.856  0.0018 -0.8399 -2.1993
   66CHL1   H1B 7336   1.078   0.514  53.805 -0.2358  4.7867  1.3179
   66CHL1    C2 7337   1.266   0.546  53.691  0.0805 -0.2259  0.1692
   66CHL1   H2A 7338   1.250   0.475  53.607 -0.1125  1.7798 -1.5685
   66CHL1   H2B 7339   1.375   0.543  53.715  0.1936  1.5379  0.0032
   66CHL1   C20 7340   0.828   0.470  54.510 -0.1836  0.2736  1.2077
   66CHL1   H20 7341   0.902   0.396  54.472 -0.3763  0.6192  0.1122
   66CHL1   C21 7342   0.690   0.404  54.491 -0.5957  0.4170 -0.4719
   66CHL1  H21A 7343   0.612   0.477  54.523 -1.0931  1.5704 -3.9046
   66CHL1  H21B 7344   0.694   0.307  54.545  1.2907  1.0467  0.6392
   66CHL1  H21C 7345   0.671   0.368  54.388 -0.2839  2.1998 -1.1980
   66CHL1   C22 7346   0.856   0.518  54.651 -0.0210 -0.6279  0.5666
   66CHL1  H22A 7347   0.920   0.608  54.657 -1.6448  0.5844  0.2676
   66CHL1  H22B 7348   0.761   0.565  54.685 -0.0782  1.5454 -2.2647
   66CHL1   C23 7349   0.903   0.412  54.746 -0.4105 -0.0951  0.4638
   66CHL1  H23A 7350   0.909   0.459  54.846  2.1252 -1.4222  1.0180
   66CHL1  H23B 7351   0.829   0.329  54.738 -2.2161  1.5820 -2.0545
   66CHL1   C24 7352   1.044   0.367  54.707 -0.0179 -0.1703  0.3320
   66CHL1  H24A 7353   1.028   0.322  54.607  0.9640  0.6528 -0.2145
   66CHL1  H24B 7354   1.111   0.454  54.691 -1.5560  0.9149 -0.4055
   66CHL1   C25 7355   1.122   0.267  54.798 -0.8345  0.4595 -0.7712
   66CHL1   H25 7356   1.058   0.182  54.830 -0.0905  0.3573  0.5216
   66CHL1   C26 7357   1.242   0.216  54.719 -0.3988 -0.3757 -0.5194
   66CHL1  H26A 7358   1.207   0.175  54.622 -1.9548 -1.3031  0.3750
   66CHL1  H26B 7359   1.315   0.292  54.685  1.7233 -2.4355 -0.8546
   66CHL1  H26C 7360   1.297   0.132  54.768  0.7529  1.1882  0.9915
   66CHL1   C27 7361   1.169   0.339  54.929 -0.3701  0.5436 -0.0031
   66CHL1  H27A 7362   1.223   0.268  54.995 -0.6158 -0.0713 -0.4521
   66CHL1  H27B 7363   1.229   0.426  54.894 -0.7792  0.6208 -0.5208
   66CHL1  H27C 7364   1.070   0.365  54.972 -0.9954 -0.6526 -0.6595
   67CHL1    C3 7365   1.588   1.690  60.450 -0.3395  0.3444 -1.3358
   67CHL1    H3 7366   1.510   1.765  60.427 -0.0172  1.1504  0.0838
   67CHL1    O3 7367   1.541   1.563  60.428  0.0716  0.0596  0.1517
   67CHL1   H3' 7368   1.600   1.501  60.472 -0.4140 -0.5352 -0.0147
   67CHL1    C4 7369   1.709   1.721  60.355  0.5031  0.1989 -1.0654
   67CHL1   H4A 7370   1.784   1.640  60.368  2.0533  1.5734 -0.9839
   67CHL1   H4B 7371   1.666   1.722  60.253 -1.4988 -1.8625 -0.3151
   67CHL1    C5 7372   1.773   1.854  60.385  0.0004  0.1545 -0.1861
   67CHL1    C6 7373   1.788   1.953  60.294  0.1500 -0.2647  0.0846
   67CHL1    H6 7374   1.748   1.936  60.193  1.0432 -3.0450  0.1361
   67CHL1    C7 7375   1.856   2.083  60.329  0.0205 -0.7103  0.2830
   67CHL1   H7A 7376   1.932   2.112  60.252  1.9799 -3.0166  1.2242
   67CHL1   H7B 7377   1.782   2.166  60.333 -0.3464 -1.0896  2.0454
   67CHL1    C8 7378   1.932   2.083  60.466 -0.1481 -0.8892 -0.1822
   67CHL1    H8 7379   2.028   2.029  60.448 -0.4220 -1.0240 -1.3142
   67CHL1   C14 7380   1.960   2.226  60.502  0.3436  0.1634 -0.6967
   67CHL1   H14 7381   1.867   2.286  60.492  3.2043  4.9771 -1.9242
   67CHL1   C15 7382   2.051   2.319  60.420 -0.8422  0.4052  0.2647
   67CHL1  H15A 7383   2.133   2.255  60.380 -0.8090 -1.1831  2.6860
   67CHL1  H15B 7384   1.999   2.355  60.328 -1.5498 -1.1413  0.0315
   67CHL1   C16 7385   2.095   2.435  60.505  0.3224 -0.4815 -0.2392
   67CHL1  H16A 7386   2.205   2.450  60.503  0.2391  0.1371 -0.2389
   67CHL1  H16B 7387   2.048   2.530  60.473  0.9201  1.0613  3.0293
   67CHL1   C17 7388   2.033   2.409  60.648  0.0788  0.6138 -1.0069
   67CHL1   H17 7389   1.933   2.455  60.634  0.7894  2.4901 -0.1948
   67CHL1   C13 7390   2.020   2.249  60.652  0.0571 -0.4849 -0.5988
   67CHL1   C18 7391   2.153   2.179  60.675 -0.2119 -0.8013 -0.3499
   67CHL1  H18A 7392   2.133   2.070  60.661 -1.8734 -0.4939 -0.4609
   67CHL1  H18B 7393   2.229   2.196  60.595 -0.3342  0.5405 -0.2044
   67CHL1  H18C 7394   2.197   2.207  60.774  0.4123  2.9754 -1.5330
   67CHL1   C12 7395   1.917   2.186  60.753 -0.8538  1.6359 -0.2350
   67CHL1  H12A 7396   1.948   2.194  60.860  2.4569 -2.8316 -0.5754
   67CHL1  H12B 7397   1.816   2.231  60.745 -1.4760  0.5815  1.2193
   67CHL1   C11 7398   1.896   2.036  60.721  1.2304  0.1290 -0.8388
   67CHL1  H11A 7399   1.989   1.986  60.757 -1.0988 -2.8471  1.6355
   67CHL1  H11B 7400   1.835   1.981  60.796  2.3566 -1.5541 -1.0916
   67CHL1    C9 7401   1.842   2.014  60.575 -0.9659 -0.9028  0.0391
   67CHL1    H9 7402   1.745   2.069  60.577 -0.6178 -0.2923  0.8391
   67CHL1   C10 7403   1.807   1.868  60.540 -0.6688  0.3669 -0.0318
   67CHL1   C19 7404   1.945   1.782  60.549 -0.5342  0.2878  0.0833
   67CHL1  H19A 7405   1.912   1.676  60.551 -2.3045  0.7066 -2.3575
   67CHL1  H19B 7406   2.007   1.793  60.457  0.3271  0.7378  0.7036
   67CHL1  H19C 7407   1.984   1.817  60.647 -3.7980 -0.6500  1.8660
   67CHL1    C1 7408   1.692   1.826  60.630 -0.0065  0.4166  0.4446
   67CHL1   H1A 7409   1.732   1.803  60.731 -0.5144 -0.1013  0.5356
   67CHL1   H1B 7410   1.616   1.905  60.650 -1.4005 -0.7965  0.1639
   67CHL1    C2 7411   1.618   1.695  60.603  1.2971 -0.0775  0.6352
   67CHL1   H2A 7412   1.526   1.690  60.665  0.9883 -0.1194  0.1780
   67CHL1   H2B 7413   1.698   1.623  60.631  0.9797  0.5554  3.5003
   67CHL1   C20 7414   2.116   2.479  60.764 -0.5773  0.1218  0.1844
   67CHL1   H20 7415   2.216   2.432  60.767  2.2664  5.1921 -2.3949
   67CHL1   C21 7416   2.033   2.464  60.884 -0.6930 -0.3272 -0.7612
   67CHL1  H21A 7417   2.038   2.553  60.950  0.0342  0.6607 -2.1109
   67CHL1  H21B 7418   2.057   2.385  60.958  1.9718  2.6248  1.8212
   67CHL1  H21C 7419   1.931   2.447  60.843  0.6985 -2.3277 -3.7602
   67CHL1   C22 7420   2.142   2.633  60.732 -0.7776  0.1674  0.3278
   67CHL1  H22A 7421   2.173   2.646  60.626  3.6810  1.8763  1.6023
   67CHL1  H22B 7422   2.048   2.691  60.742 -0.3890  0.8525  0.0324
   67CHL1   C23 7423   2.252   2.711  60.813  0.7711  0.9320 -0.7976
   67CHL1  H23A 7424   2.223   2.719  60.920  0.0802  0.8098 -0.9738
   67CHL1  H23B 7425   2.347   2.658  60.790  0.5995  0.6774 -0.9096
   67CHL1   C24 7426   2.266   2.851  60.750 -0.2833  0.4368 -0.1814
   67CHL1  H24A 7427   2.276   2.836  60.641 -0.4956  1.2442 -0.3186
   67CHL1  H24B 7428   2.162   2.886  60.769  0.0402  0.3160  2.1165
   67CHL1   C25 7429   2.364   2.946  60.824  1.0741 -0.1746  0.8257
   67CHL1   H25 7430   2.456   2.890  60.850  1.0497 -0.7762 -0.3190
   67CHL1   C26 7431   2.418   3.057  60.732 -0.5321  0.3407  0.3667
   67CHL1  H26A 7432   2.455   3.007  60.639  0.7044  0.2166  0.9137
   67CHL1  H26B 7433   2.339   3.135  60.722 -1.5922 -0.8000 -0.4780
   67CHL1  H26C 7434   2.506   3.098  60.786  0.0018 -0.5959  0.2275
   67CHL1   C27 7435   2.308   3.005  60.956 -0.1634  0.6349  0.1835
   67CHL1  H27A 7436   2.295   2.923  61.029  1.5008 -0.5192 -0.7647
   67CHL1  H27B 7437   2.382   3.071  61.004  0.7522 -2.3159  3.2208
   67CHL1  H27C 7438   2.214   3.065  60.951  0.2753  1.2639 -0.9521
   68CHL1    C3 7439   0.886   0.021  67.626 -0.3921  0.7473 -0.2525
   68CHL1    H3 7440   0.810   0.051  67.701  1.4326  0.8764  1.6245
   68CHL1    O3 7441   0.847   0.069  67.500  0.1260 -0.5402 -0.1320
   68CHL1   H3' 7442   0.891   0.017  67.432 -1.0465 -0.0307 -1.3263
   68CHL1    C4 7443   1.013   0.100  67.658 -0.0087  0.2567  0.1075
   68CHL1   H4A 7444   1.069   0.117  67.564 -0.1520  0.5256  0.0698
   68CHL1   H4B 7445   0.993   0.207  67.677 -1.5959  0.6528 -3.1387
   68CHL1    C5 7446   1.102   0.026  67.763 -0.1888 -0.8732 -0.3052
   68CHL1    C6 7447   1.152   0.097  67.866 -0.5220  0.7141 -0.2587
   68CHL1    H6 7448   1.143   0.207  67.868  0.7873  0.8293  0.4070
   68CHL1    C7 7449   1.248   0.038  67.968 -0.5228 -0.1640  0.7042
   68CHL1   H7A 7450   1.338   0.101  67.954 -2.3461  2.7257  1.1506
   68CHL1   H7B 7451   1.215   0.026  68.073  0.7252  0.4603  1.1805
   68CHL1    C8 7452   1.302  -0.107  67.917  0.1989 -0.8661  0.4237
   68CHL1    H8 7453   1.368  -0.096  67.828  0.5409  0.3420  0.8185
   68CHL1   C14 7454   1.367  -0.176  68.036 -0.0127 -0.2548 -0.0905
   68CHL1   H14 7455   1.290  -0.164  68.115  2.7479  0.5650  2.6807
   68CHL1   C15 7456   1.487  -0.102  68.107  0.1350  0.3416  1.0158
   68CHL1  H15A 7457   1.550  -0.052  68.029 -1.5738  0.1979 -0.5138
   68CHL1  H15B 7458   1.431  -0.026  68.166 -1.6480 -0.5831  0.5605
   68CHL1   C16 7459   1.557  -0.208  68.192 -0.0901  0.0874  0.5400
   68CHL1  H16A 7460   1.663  -0.209  68.159 -0.3320  1.2514 -0.3268
   68CHL1  H16B 7461   1.550  -0.186  68.301 -3.3192 -0.6709  0.6001
   68CHL1   C17 7462   1.490  -0.353  68.156  0.4563  0.1466 -0.5079
   68CHL1   H17 7463   1.409  -0.360  68.232 -1.0530  0.3647 -2.0311
   68CHL1   C13 7464   1.415  -0.318  68.020 -0.2826  0.3138 -0.8906
   68CHL1   C18 7465   1.531  -0.328  67.917 -0.0561  0.5981 -1.1850
   68CHL1  H18A 7466   1.558  -0.436  67.908  0.8380  0.7012  0.0067
   68CHL1  H18B 7467   1.481  -0.314  67.819 -0.9402  1.2717 -0.6468
   68CHL1  H18C 7468   1.616  -0.258  67.932 -2.1019  2.3050  5.4260
   68CHL1   C12 7469   1.290  -0.405  67.977 -0.7492 -0.1939 -0.5349
   68CHL1  H12A 7470   1.330  -0.508  67.962 -0.8205  0.0332 -2.6458
   68CHL1  H12B 7471   1.215  -0.409  68.058  0.9796 -1.2084  1.1039
   68CHL1   C11 7472   1.223  -0.345  67.851 -0.4845 -0.5009  0.2331
   68CHL1  H11A 7473   1.291  -0.355  67.764 -1.3515  0.7649 -0.6218
   68CHL1  H11B 7474   1.140  -0.409  67.816  1.2048 -1.7845 -1.6196
   68CHL1    C9 7475   1.180  -0.192  67.875  0.3076  0.9042  0.0546
   68CHL1    H9 7476   1.107  -0.179  67.957 -1.0825  0.2772 -1.0506
   68CHL1   C10 7477   1.122  -0.123  67.743  0.5126  0.5038 -0.5078
   68CHL1   C19 7478   1.202  -0.157  67.613 -0.0323 -0.3298 -0.3809
   68CHL1  H19A 7479   1.307  -0.122  67.617 -0.5054  1.3259 -1.6923
   68CHL1  H19B 7480   1.197  -0.266  67.589  1.3340 -1.0445  2.1419
   68CHL1  H19C 7481   1.162  -0.098  67.528 -1.6973  1.2739  1.4188
   68CHL1    C1 7482   0.983  -0.183  67.731  1.4564 -0.7191 -0.6900
   68CHL1   H1A 7483   0.977  -0.294  67.740 -1.6203 -0.4548  2.6488
   68CHL1   H1B 7484   0.920  -0.167  67.821  2.1677 -2.5094  0.1725
   68CHL1    C2 7485   0.892  -0.128  67.613 -0.1711 -0.3246 -0.1701
   68CHL1   H2A 7486   0.788  -0.168  67.621 -1.4533  2.0553 -3.0852
   68CHL1   H2B 7487   0.937  -0.167  67.520 -1.3665 -3.4677  0.4323
   68CHL1   C20 7488   1.577  -0.472  68.178 -0.8264  0.2296  0.2529
   68CHL1   H20 7489   1.661  -0.469  68.106 -2.0921 -0.4100 -1.3109
   68CHL1   C21 7490   1.499  -0.599  68.156  0.2536  0.0607 -1.3391
   68CHL1  H21A 7491   1.459  -0.621  68.055  1.7638  1.8868 -2.3898
   68CHL1  H21B 7492   1.413  -0.608  68.227  1.7079 -1.2293  0.3519
   68CHL1  H21C 7493   1.543  -0.695  68.189 -3.6470 -0.3580  4.1212
   68CHL1   C22 7494   1.639  -0.468  68.324 -0.0113  1.0169  0.2154
   68CHL1  H22A 7495   1.678  -0.366  68.346 -0.5568  0.9739  1.4950
   68CHL1  H22B 7496   1.555  -0.495  68.392 -2.2030 -2.2911 -3.3880
   68CHL1   C23 7497   1.758  -0.567  68.330 -0.0576 -0.0760  0.4931
   68CHL1  H23A 7498   1.739  -0.665  68.280  1.4158 -0.5704  0.8717
   68CHL1  H23B 7499   1.850  -0.527  68.282 -1.5993 -0.0392 -2.7693
   68CHL1   C24 7500   1.797  -0.617  68.470 -0.3800  0.4807  0.0683
   68CHL1  H24A 7501   1.849  -0.536  68.525  2.6413 -1.1980 -0.0687
   68CHL1  H24B 7502   1.715  -0.651  68.537  1.1551 -1.6192  1.0286
   68CHL1   C25 7503   1.900  -0.729  68.441  0.1835 -1.0278  0.2688
   68CHL1   H25 7504   1.978  -0.695  68.370  2.0508 -3.4415  1.0019
   68CHL1   C26 7505   1.988  -0.753  68.562  0.1194  0.9400 -0.5611
   68CHL1  H26A 7506   1.932  -0.773  68.656 -1.7631  2.5610 -1.2634
   68CHL1  H26B 7507   2.063  -0.835  68.551  0.1789  0.9673 -0.3748
   68CHL1  H26C 7508   2.040  -0.661  68.598  0.2240  0.0908  1.6612
   68CHL1   C27 7509   1.842  -0.870  68.395 -0.3803  0.1242 -0.0875
   68CHL1  H27A 7510   1.924  -0.945  68.397 -0.5545 -0.2974 -3.3147
   68CHL1  H27B 7511   1.751  -0.899  68.453  0.3248 -1.4293  0.3052
   68CHL1  H27C 7512   1.816  -0.858  68.288  0.2609  1.1097 -0.1489
   69CHL1    C3 7513   0.482   2.311  45.132 -0.3595  0.8195  0.5811
   69CHL1    H3 7514   0.530   2.218  45.172  2.1796  2.1132  0.7690
   69CHL1    O3 7515   0.349   2.278  45.103  0.4943 -0.4212  0.0023
   69CHL1   H3' 7516   0.313   2.351  45.051 -0.5544 -0.0688  1.1637
   69CHL1    C4 7517   0.477   2.415  45.239 -0.3076  0.5113  1.2837
   69CHL1   H4A 7518   0.405   2.497  45.221  1.5309  1.4960 -2.3136
   69CHL1   H4B 7519   0.433   2.364  45.328 -0.0791 -0.9797  0.5784
   69CHL1    C5 7520   0.612   2.481  45.269  1.1493 -0.1126 -0.3145
   69CHL1    C6 7521   0.665   2.484  45.394  0.6939 -0.2500  0.0267
   69CHL1    H6 7522   0.603   2.450  45.478  0.8118  1.9936  1.0968
   69CHL1    C7 7523   0.784   2.567  45.433 -0.6959  0.3512 -1.2014
   69CHL1   H7A 7524   0.770   2.632  45.523  1.1733 -0.8919  0.0720
   69CHL1   H7B 7525   0.866   2.494  45.451 -1.1074  0.3233  0.7863
   69CHL1    C8 7526   0.831   2.658  45.319  0.0282  0.1743 -0.0565
   69CHL1    H8 7527   0.760   2.739  45.291 -1.2694 -1.6342 -2.3730
   69CHL1   C14 7528   0.962   2.721  45.350  0.2277  0.1709  0.2313
   69CHL1   H14 7529   1.028   2.636  45.379 -0.0658 -0.9496 -2.1855
   69CHL1   C15 7530   0.974   2.822  45.464 -0.4117 -0.5859  0.1967
   69CHL1  H15A 7531   0.898   2.903  45.468  1.8899  1.6214  1.6242
   69CHL1  H15B 7532   0.975   2.775  45.564 -1.9252 -3.1540 -0.8712
   69CHL1   C16 7533   1.118   2.868  45.444 -0.6836 -0.0771  0.2275
   69CHL1  H16A 7534   1.121   2.979  45.451  1.5271 -0.1792  2.4167
   69CHL1  H16B 7535   1.176   2.839  45.534  0.2408  1.5864  0.1980
   69CHL1   C17 7536   1.185   2.817  45.315 -0.2694 -0.5561  0.0076
   69CHL1   H17 7537   1.237   2.720  45.334 -1.3320 -1.5274 -1.7550
   69CHL1   C13 7538   1.054   2.772  45.237 -0.7749  0.5052 -0.0224
   69CHL1   C18 7539   0.986   2.900  45.169 -1.0192 -0.0181  0.5591
   69CHL1  H18A 7540   1.038   2.951  45.085 -0.1747 -5.1122 -2.4740
   69CHL1  H18B 7541   0.885   2.880  45.128 -0.3359 -1.8264 -0.3909
   69CHL1  H18C 7542   0.971   2.970  45.254 -0.8514 -0.5918  1.0685
   69CHL1   C12 7543   1.061   2.663  45.135 -0.5723 -0.7547 -0.2709
   69CHL1  H12A 7544   1.114   2.702  45.047 -2.2173 -2.0851 -1.9466
   69CHL1  H12B 7545   1.115   2.584  45.192 -0.9392  1.3019  3.2701
   69CHL1   C11 7546   0.919   2.628  45.074 -0.2272  1.4000  0.1622
   69CHL1  H11A 7547   0.878   2.717  45.021 -2.0664  1.6261  1.8560
   69CHL1  H11B 7548   0.932   2.558  44.988 -1.5439 -0.1324  1.1673
   69CHL1    C9 7549   0.832   2.575  45.189  0.3974  0.2540  0.3855
   69CHL1    H9 7550   0.886   2.479  45.203  2.0909  1.3485  1.8602
   69CHL1   C10 7551   0.692   2.532  45.142  0.8812 -0.8205  0.0800
   69CHL1   C19 7552   0.617   2.657  45.081 -0.1194  0.3072 -0.3742
   69CHL1  H19A 7553   0.651   2.674  44.976  0.1286  3.3671  0.0979
   69CHL1  H19B 7554   0.508   2.641  45.070 -0.4751  0.2244  2.4852
   69CHL1  H19C 7555   0.642   2.750  45.136  0.1474 -0.3280  0.6070
   69CHL1    C1 7556   0.692   2.416  45.040 -0.5628  0.3796  0.0482
   69CHL1   H1A 7557   0.748   2.449  44.950 -1.3815  1.2095 -0.1750
   69CHL1   H1B 7558   0.758   2.332  45.071 -1.4664 -0.7046 -0.8511
   69CHL1    C2 7559   0.556   2.360  45.002  0.0922  0.6009 -0.6360
   69CHL1   H2A 7560   0.579   2.277  44.932  1.3236  1.3072 -1.1015
   69CHL1   H2B 7561   0.497   2.442  44.955 -0.6483  1.0091  0.9452
   69CHL1   C20 7562   1.280   2.918  45.256  0.1787  0.6822 -0.0564
   69CHL1   H20 7563   1.224   2.996  45.200  0.0721 -0.0044 -0.9373
   69CHL1   C21 7564   1.363   2.836  45.156  0.8827  0.4571  0.2502
   69CHL1  H21A 7565   1.294   2.769  45.099 -1.7773  0.2822  3.3537
   69CHL1  H21B 7566   1.440   2.781  45.213 -0.5949 -2.2956 -0.2149
   69CHL1  H21C 7567   1.401   2.903  45.076 -0.6934 -0.1872 -1.1061
   69CHL1   C22 7568   1.376   2.980  45.351  0.8013 -0.3173  0.8850
   69CHL1  H22A 7569   1.318   3.018  45.438 -0.2691 -0.4686  0.2495
   69CHL1  H22B 7570   1.420   2.900  45.414  0.5560  0.3073  1.8703
   69CHL1   C23 7571   1.484   3.080  45.305 -0.0813 -0.9994  0.1407
   69CHL1  H23A 7572   1.524   3.058  45.204 -0.7907  2.9746 -1.1635
   69CHL1  H23B 7573   1.440   3.180  45.288  0.0347 -1.6005 -5.2091
   69CHL1   C24 7574   1.596   3.084  45.414  0.6848  0.0860 -0.7415
   69CHL1  H24A 7575   1.611   2.976  45.435  0.5486  0.2218  0.0959
   69CHL1  H24B 7576   1.694   3.118  45.373  1.1925 -1.1292 -0.5813
   69CHL1   C25 7577   1.572   3.138  45.551 -0.0361 -0.2990 -0.0616
   69CHL1   H25 7578   1.472   3.116  45.595 -0.0326  1.4913  0.9339
   69CHL1   C26 7579   1.676   3.074  45.643  0.7710 -0.0591  0.7358
   69CHL1  H26A 7580   1.777   3.106  45.608  0.0665  1.0710 -0.3248
   69CHL1  H26B 7581   1.652   3.123  45.739  1.2117  0.4192  0.6071
   69CHL1  H26C 7582   1.654   2.966  45.661 -1.5059  0.4509  1.3092
   69CHL1   C27 7583   1.585   3.292  45.561  0.4908  0.0501  1.1183
   69CHL1  H27A 7584   1.513   3.339  45.491 -0.3640  0.5059  2.2778
   69CHL1  H27B 7585   1.568   3.326  45.665  2.8278  1.0657  1.2291
   69CHL1  H27C 7586   1.685   3.329  45.529  0.4622 -0.8963 -0.1556
   70CHL1    C3 7587   0.259   0.315  50.975 -1.0088 -1.2052 -0.3335
   70CHL1    H3 7588   0.202   0.220  50.980 -3.4438  0.1952  0.2185
   70CHL1    O3 7589   0.279   0.356  51.108  0.1014 -0.0178  0.1406
   70CHL1   H3' 7590   0.312   0.446  51.106 -0.5135  0.2057 -1.3497
   70CHL1    C4 7591   0.393   0.292  50.904  0.1190 -0.0800 -0.2535
   70CHL1   H4A 7592   0.450   0.387  50.913  0.7418 -0.5546  1.0210
   70CHL1   H4B 7593   0.458   0.235  50.975  1.1875  0.2642 -0.9267
   70CHL1    C5 7594   0.391   0.242  50.758  0.4876  0.2448 -0.7146
   70CHL1    C6 7595   0.444   0.134  50.718  0.1204  0.6027  0.2144
   70CHL1    H6 7596   0.489   0.064  50.789  0.6577  0.1311 -0.5807
   70CHL1    C7 7597   0.419   0.080  50.581  0.9479  0.4224 -0.1097
   70CHL1   H7A 7598   0.509   0.041  50.529 -0.7295  1.7886 -4.4425
   70CHL1   H7B 7599   0.368  -0.017  50.595  0.5381  0.8519  1.6168
   70CHL1    C8 7600   0.363   0.181  50.480 -0.6568 -0.4485  0.0099
   70CHL1    H8 7601   0.436   0.261  50.458  0.7334 -1.4521  0.7405
   70CHL1   C14 7602   0.320   0.107  50.353  0.5789  0.0299 -0.1368
   70CHL1   H14 7603   0.232   0.055  50.397 -1.4460  0.8772 -2.8826
   70CHL1   C15 7604   0.417   0.005  50.291  0.0662  0.4746  0.9375
   70CHL1  H15A 7605   0.519   0.049  50.286  1.2730 -1.9949  1.9537
   70CHL1  H15B 7606   0.433  -0.088  50.349  0.4202  0.1390  0.3147
   70CHL1   C16 7607   0.353  -0.030  50.152 -0.0941  0.0741 -0.0570
   70CHL1  H16A 7608   0.441  -0.001  50.091 -0.1240  2.8183  1.0553
   70CHL1  H16B 7609   0.329  -0.138  50.147  4.1915 -1.0215 -1.0764
   70CHL1   C17 7610   0.228   0.060  50.142 -0.1287  0.2692  0.4228
   70CHL1   H17 7611   0.156   0.001  50.203  1.6277 -1.1111  1.2818
   70CHL1   C13 7612   0.260   0.184  50.239  0.3459 -0.1981 -0.3721
   70CHL1   C18 7613   0.373   0.276  50.170 -0.7514  0.1968 -0.5113
   70CHL1  H18A 7614   0.416   0.336  50.253 -0.1991  0.5823 -1.0756
   70CHL1  H18B 7615   0.455   0.212  50.130 -1.9266 -2.9907  1.7716
   70CHL1  H18C 7616   0.326   0.338  50.091  0.5527 -1.7419 -2.9461
   70CHL1   C12 7617   0.134   0.267  50.299 -0.7151 -0.2574 -0.4889
   70CHL1  H12A 7618   0.097   0.344  50.228  0.2607 -0.0669 -0.8009
   70CHL1  H12B 7619   0.057   0.196  50.336 -0.6777 -0.3619 -0.6160
   70CHL1   C11 7620   0.174   0.341  50.430  0.2571 -0.2841  0.2917
   70CHL1  H11A 7621   0.252   0.413  50.398 -0.0232 -0.4249 -0.7444
   70CHL1  H11B 7622   0.086   0.392  50.474 -1.7905 -1.4588 -2.1990
   70CHL1    C9 7623   0.245   0.257  50.540 -0.2123 -0.6783 -1.1008
   70CHL1    H9 7624   0.177   0.177  50.578  0.0218  0.6903  2.6440
   70CHL1   C10 7625   0.291   0.329  50.676  1.1466 -0.2142  0.5799
   70CHL1   C19 7626   0.354   0.468  50.645 -0.3703 -0.3311  0.5456
   70CHL1  H19A 7627   0.366   0.534  50.734  0.5526  0.3931 -0.0865
   70CHL1  H19B 7628   0.448   0.460  50.586 -0.7656  0.7890 -0.2814
   70CHL1  H19C 7629   0.276   0.526  50.590 -4.8989 -2.7113  3.7596
   70CHL1    C1 7630   0.164   0.356  50.748 -0.0368 -0.1774 -0.1005
   70CHL1   H1A 7631   0.093   0.418  50.688 -1.9128 -1.1950  0.9645
   70CHL1   H1B 7632   0.106   0.261  50.755 -0.0227 -0.3932 -2.4102
   70CHL1    C2 7633   0.171   0.410  50.891 -0.5915  0.0847  0.1593
   70CHL1   H2A 7634   0.067   0.417  50.929 -1.5722  1.1207 -2.4948
   70CHL1   H2B 7635   0.198   0.518  50.897 -3.1457  0.7622  0.6141
   70CHL1   C20 7636   0.183   0.113  50.011  0.0748  0.0829  1.2500
   70CHL1   H20 7637   0.185   0.223  50.004 -2.9063  0.1393 -0.1481
   70CHL1   C21 7638   0.038   0.062  49.985  0.0465 -0.6524  0.3886
   70CHL1  H21A 7639   0.037  -0.047  50.003  0.6716 -1.1111 -2.0255
   70CHL1  H21B 7640   0.005   0.074  49.880 -0.4732 -1.3293  0.4700
   70CHL1  H21C 7641  -0.035   0.113  50.052 -0.8302 -0.3241 -0.7931
   70CHL1   C22 7642   0.273   0.070  49.893  0.4206  0.2948  0.3085
   70CHL1  H22A 7643   0.371   0.122  49.903 -0.1100  1.1132  1.6005
   70CHL1  H22B 7644   0.282  -0.041  49.902 -2.5012 -0.3121 -2.3897
   70CHL1   C23 7645   0.224   0.122  49.757 -0.2124 -0.2121  0.4724
   70CHL1  H23A 7646   0.124   0.079  49.738 -0.1286 -0.7357  1.1580
   70CHL1  H23B 7647   0.208   0.230  49.780 -2.0726 -0.8454  2.5194
   70CHL1   C24 7648   0.322   0.101  49.639  0.2252  0.1551 -0.2832
   70CHL1  H24A 7649   0.425   0.123  49.674  0.7242  1.6589 -2.4454
   70CHL1  H24B 7650   0.317  -0.009  49.629 -1.5301  0.1623  0.0568
   70CHL1   C25 7651   0.283   0.170  49.506 -0.7704  0.1838 -1.1124
   70CHL1   H25 7652   0.370   0.147  49.441  1.7257  0.5588  1.8556
   70CHL1   C26 7653   0.159   0.101  49.452  0.1248 -0.5555  0.4493
   70CHL1  H26A 7654   0.083   0.108  49.532  3.1973 -0.0752  3.5792
   70CHL1  H26B 7655   0.117   0.155  49.364 -2.6921 -0.2492  1.8605
   70CHL1  H26C 7656   0.181  -0.005  49.424 -1.6978  0.0372 -4.1721
   70CHL1   C27 7657   0.275   0.331  49.521 -0.5606  0.6174 -0.1363
   70CHL1  H27A 7658   0.362   0.374  49.576  0.2513 -0.9871 -0.1178
   70CHL1  H27B 7659   0.287   0.373  49.419 -2.4226 -3.6331 -2.3250
   70CHL1  H27C 7660   0.179   0.356  49.571 -0.6356  0.4577 -0.2002
   71CHL1    C3 7661   1.250   0.994  50.808  0.2201  0.5959 -0.0570
   71CHL1    H3 7662   1.141   0.976  50.818  0.0846  2.0067  1.2735
   71CHL1    O3 7663   1.306   0.954  50.931  0.4456 -0.3369  0.3141
   71CHL1   H3' 7664   1.398   0.977  50.914  0.0199  0.1202 -1.6484
   71CHL1    C4 7665   1.311   0.905  50.693 -0.0374 -0.0431 -0.7354
   71CHL1   H4A 7666   1.421   0.915  50.708  0.0279  1.1121 -1.8545
   71CHL1   H4B 7667   1.284   0.798  50.709  0.5876  0.1328  1.8820
   71CHL1    C5 7668   1.265   0.943  50.555  0.1860  0.3890  1.0889
   71CHL1    C6 7669   1.212   0.865  50.459  0.6466  0.0920  0.0369
   71CHL1    H6 7670   1.202   0.756  50.463  0.4399 -0.1204 -3.4271
   71CHL1    C7 7671   1.190   0.911  50.322 -0.2176 -0.3614 -0.1459
   71CHL1   H7A 7672   1.217   0.835  50.246 -0.3943 -0.7652  0.1917
   71CHL1   H7B 7673   1.083   0.933  50.302 -0.0503 -1.0239 -1.9056
   71CHL1    C8 7674   1.256   1.045  50.283  0.6388 -0.3289 -0.7272
   71CHL1    H8 7675   1.364   1.023  50.267  0.7766 -1.2377  1.1243
   71CHL1   C14 7676   1.190   1.097  50.152  0.6022  0.4613  0.1923
   71CHL1   H14 7677   1.088   1.123  50.187  2.1326 -0.4769  6.3919
   71CHL1   C15 7678   1.185   0.996  50.033  0.0530  0.0717 -0.4678
   71CHL1  H15A 7679   1.280   0.937  50.027  0.7640  1.2664 -1.5438
   71CHL1  H15B 7680   1.096   0.934  50.055 -0.0612  0.7775  1.2850
   71CHL1   C16 7681   1.178   1.086  49.907  0.0616 -0.6161  0.1751
   71CHL1  H16A 7682   1.249   1.064  49.824 -0.3203  0.6605 -0.5262
   71CHL1  H16B 7683   1.071   1.086  49.878  0.4460 -0.6009 -1.3756
   71CHL1   C17 7684   1.201   1.232  49.955  0.2600  0.2808 -0.9158
   71CHL1   H17 7685   1.100   1.278  49.963 -0.6556 -1.6187 -0.9779
   71CHL1   C13 7686   1.266   1.215  50.096 -0.1775 -0.1645 -0.7608
   71CHL1   C18 7687   1.417   1.177  50.068 -0.4741  0.8777 -0.7511
   71CHL1  H18A 7688   1.467   1.272  50.040 -1.0827  1.5578  0.3934
   71CHL1  H18B 7689   1.475   1.160  50.161 -2.8346  0.5269  0.7383
   71CHL1  H18C 7690   1.437   1.095  49.995 -0.9900 -0.8229  0.9575
   71CHL1   C12 7691   1.256   1.328  50.201  0.1505  0.7373  0.5962
   71CHL1  H12A 7692   1.321   1.413  50.172  1.7758 -0.8718 -0.7276
   71CHL1  H12B 7693   1.150   1.357  50.219 -0.9686 -3.0003  0.9519
   71CHL1   C11 7694   1.301   1.291  50.347  0.3529  0.3259  0.0796
   71CHL1  H11A 7695   1.411   1.304  50.356  1.1529 -4.9331  0.7753
   71CHL1  H11B 7696   1.260   1.369  50.415 -1.0576 -1.4848  1.4189
   71CHL1    C9 7697   1.252   1.150  50.393  0.6787  0.0766  0.4930
   71CHL1    H9 7698   1.143   1.162  50.411  1.0122  1.6879  1.7132
   71CHL1   C10 7699   1.304   1.098  50.531  0.2937  0.4917 -0.6328
   71CHL1   C19 7700   1.457   1.088  50.521  0.1417  0.0836 -0.2595
   71CHL1  H19A 7701   1.506   1.063  50.617 -0.0011 -0.4007 -0.3064
   71CHL1  H19B 7702   1.501   1.019  50.445  0.6222 -2.8258  2.4373
   71CHL1  H19C 7703   1.500   1.187  50.494  0.2595 -0.1424 -0.9333
   71CHL1    C1 7704   1.249   1.185  50.642  0.6625 -0.2804 -0.1277
   71CHL1   H1A 7705   1.281   1.291  50.647  2.3748 -0.7861  3.7329
   71CHL1   H1B 7706   1.140   1.206  50.636  1.2753  3.8894  0.3510
   71CHL1    C2 7707   1.283   1.136  50.782  0.0186  0.0182 -0.1192
   71CHL1   H2A 7708   1.227   1.191  50.861  0.6063 -0.7928  0.8735
   71CHL1   H2B 7709   1.392   1.140  50.799 -0.0271 -2.3636  1.1610
   71CHL1   C20 7710   1.271   1.316  49.840 -0.2415  0.3113  0.4633
   71CHL1   H20 7711   1.381   1.298  49.839  0.5509  4.0315 -2.5993
   71CHL1   C21 7712   1.265   1.466  49.878  0.2742 -0.1208  0.0433
   71CHL1  H21A 7713   1.324   1.495  49.968  1.8958  3.7557 -2.0186
   71CHL1  H21B 7714   1.160   1.502  49.879  0.2645 -0.0038 -2.1289
   71CHL1  H21C 7715   1.322   1.508  49.793 -0.3182 -2.7688 -1.7916
   71CHL1   C22 7716   1.219   1.286  49.692  0.3039  0.1874 -0.1691
   71CHL1  H22A 7717   1.288   1.344  49.629  1.2529  0.5111  1.1383
   71CHL1  H22B 7718   1.218   1.183  49.650 -0.9404  1.2756 -3.0865
   71CHL1   C23 7719   1.065   1.339  49.662  0.9081  0.3615  0.3239
   71CHL1  H23A 7720   1.001   1.304  49.746 -1.4443  0.8298 -1.1659
   71CHL1  H23B 7721   1.075   1.450  49.662  2.5787  0.2465 -0.4389
   71CHL1   C24 7722   1.017   1.281  49.528 -0.6379 -0.0238 -0.1204
   71CHL1  H24A 7723   1.087   1.326  49.455  0.5038 -1.2891  0.1526
   71CHL1  H24B 7724   1.032   1.170  49.530 -2.6997 -0.3408 -0.3400
   71CHL1   C25 7725   0.868   1.301  49.497  0.9336  0.3571  0.0283
   71CHL1   H25 7726   0.800   1.268  49.578  1.2386  0.1143  0.1879
   71CHL1   C26 7727   0.833   1.454  49.491 -0.3979 -0.0470 -0.7049
   71CHL1  H26A 7728   0.904   1.504  49.422  1.9692  0.8779  2.1763
   71CHL1  H26B 7729   0.727   1.475  49.465 -0.5144 -0.5408 -0.6446
   71CHL1  H26C 7730   0.855   1.491  49.594  1.5150  0.5176 -1.2845
   71CHL1   C27 7731   0.831   1.228  49.367 -0.2044 -0.2551  0.3287
   71CHL1  H27A 7732   0.823   1.118  49.376  0.9748 -0.3368  0.5962
   71CHL1  H27B 7733   0.738   1.273  49.326  0.3520  0.0746 -0.6137
   71CHL1  H27C 7734   0.910   1.249  49.291 -0.8989 -1.0770 -0.6492
   72CHL1    C3 7735   1.036   2.186  44.802  0.8353 -0.0465  0.1306
   72CHL1    H3 7736   1.070   2.183  44.696 -1.2669  2.4392 -0.7192
   72CHL1    O3 7737   1.074   2.313  44.852 -0.3802 -0.6762  0.7486
   72CHL1   H3' 7738   1.094   2.295  44.944 -2.2531 -0.7449  1.1794
   72CHL1    C4 7739   0.884   2.174  44.794 -0.0360  0.0564 -0.2647
   72CHL1   H4A 7740   0.852   2.201  44.897 -0.7080  0.7997 -0.6533
   72CHL1   H4B 7741   0.850   2.262  44.735  1.1656  1.8320  1.5542
   72CHL1    C5 7742   0.841   2.037  44.754 -0.7879 -0.2044  0.2985
   72CHL1    C6 7743   0.769   2.025  44.641  0.3605  0.3949 -0.1566
   72CHL1    H6 7744   0.746   2.111  44.577 -0.3143 -0.2974 -0.8702
   72CHL1    C7 7745   0.728   1.890  44.595  0.4532 -0.2274  0.1288
   72CHL1   H7A 7746   0.617   1.889  44.583  0.3139 -2.3589  1.0746
   72CHL1   H7B 7747   0.770   1.868  44.495  1.2489  1.6348  0.0139
   72CHL1    C8 7748   0.749   1.767  44.691  0.4178  0.3817  0.5461
   72CHL1    H8 7749   0.673   1.763  44.772  1.2870 -2.9052  1.3399
   72CHL1   C14 7750   0.754   1.639  44.607  0.3938 -0.4933 -0.1971
   72CHL1   H14 7751   0.836   1.654  44.533  1.5833 -1.0856  0.9616
   72CHL1   C15 7752   0.631   1.602  44.529 -0.5601 -0.5787 -0.5081
   72CHL1  H15A 7753   0.543   1.617  44.595  0.5051  0.0427  0.8235
   72CHL1  H15B 7754   0.622   1.649  44.428  0.4010 -2.4522 -1.5199
   72CHL1   C16 7755   0.647   1.451  44.500 -0.3958  0.7683  1.1914
   72CHL1  H16A 7756   0.555   1.400  44.538 -0.7570  2.2833  2.4693
   72CHL1  H16B 7757   0.669   1.425  44.395 -1.0879  2.5517  0.5648
   72CHL1   C17 7758   0.781   1.409  44.574  0.1052 -0.7006 -0.1333
   72CHL1   H17 7759   0.865   1.447  44.512 -1.2566  2.6132 -0.1535
   72CHL1   C13 7760   0.781   1.515  44.695 -0.6922  0.7262  1.3916
   72CHL1   C18 7761   0.676   1.477  44.797  0.5274  0.4353  0.0014
   72CHL1  H18A 7762   0.710   1.389  44.856 -2.6252 -0.3787  0.8069
   72CHL1  H18B 7763   0.661   1.558  44.872  1.5944  0.1546  0.5400
   72CHL1  H18C 7764   0.577   1.454  44.752  0.5698 -2.0320  0.9903
   72CHL1   C12 7765   0.917   1.537  44.753  0.1244  0.0848  0.3476
   72CHL1  H12A 7766   0.941   1.460  44.829  0.2890  0.9448  1.1876
   72CHL1  H12B 7767   1.000   1.540  44.679  1.8993 -0.9681  2.1927
   72CHL1   C11 7768   0.922   1.668  44.841  0.3531  0.3561  0.7495
   72CHL1  H11A 7769   0.850   1.657  44.924  1.3410 -0.7174  1.4906
   72CHL1  H11B 7770   1.022   1.681  44.889  0.3545 -1.6503  1.3682
   72CHL1    C9 7771   0.885   1.793  44.758  0.4119  0.8712  0.5166
   72CHL1    H9 7772   0.957   1.785  44.674  0.1211  0.0934  0.3226
   72CHL1   C10 7773   0.906   1.928  44.837 -0.2785  0.9228 -0.6327
   72CHL1   C19 7774   0.839   1.927  44.977 -0.0227 -0.3905 -0.3584
   72CHL1  H19A 7775   0.878   1.847  45.043 -2.1320 -0.5957  0.7306
   72CHL1  H19B 7776   0.864   2.020  45.032  0.7831 -0.8310  0.0332
   72CHL1  H19C 7777   0.729   1.914  44.981  0.0134 -1.8275 -2.5607
   72CHL1    C1 7778   1.063   1.946  44.850 -0.3592  0.4268  0.3694
   72CHL1   H1A 7779   1.096   1.867  44.920 -0.1256 -2.0649 -2.3848
   72CHL1   H1B 7780   1.107   1.922  44.751 -0.2912 -1.0125  0.7293
   72CHL1    C2 7781   1.094   2.085  44.895  0.0269  0.8678  0.2982
   72CHL1   H2A 7782   1.204   2.101  44.892 -0.0914  1.5359 -1.2590
   72CHL1   H2B 7783   1.048   2.092  44.996 -0.1630  0.1360  0.2695
   72CHL1   C20 7784   0.779   1.261  44.616 -0.8071 -0.2895  0.7213
   72CHL1   H20 7785   0.681   1.241  44.666 -0.6202 -3.1578  0.1502
   72CHL1   C21 7786   0.904   1.213  44.701 -0.3504 -0.0668  0.0556
   72CHL1  H21A 7787   1.003   1.245  44.663 -0.8005  1.5812  0.1810
   72CHL1  H21B 7788   0.917   1.104  44.711  2.1093  0.1901  0.1184
   72CHL1  H21C 7789   0.893   1.250  44.805  0.3308 -3.8540  1.6306
   72CHL1   C22 7790   0.777   1.159  44.494 -0.5205 -0.3645  0.9503
   72CHL1  H22A 7791   0.801   1.058  44.531  3.6743  0.0185 -0.2116
   72CHL1  H22B 7792   0.675   1.169  44.450  0.2768 -0.2275 -0.9720
   72CHL1   C23 7793   0.869   1.195  44.371 -0.2043 -0.3697 -0.6392
   72CHL1  H23A 7794   0.857   1.300  44.335  1.4291  0.3143  0.6632
   72CHL1  H23B 7795   0.970   1.198  44.418 -0.2479  0.5832 -0.5831
   72CHL1   C24 7796   0.867   1.103  44.250 -0.3433  0.7831 -0.6389
   72CHL1  H24A 7797   0.837   0.998  44.272  2.1505 -0.1546 -1.3749
   72CHL1  H24B 7798   0.781   1.140  44.189 -0.2592  1.4476 -0.3640
   72CHL1   C25 7799   0.994   1.109  44.167 -0.4536 -0.4251 -0.0739
   72CHL1   H25 7800   1.072   1.083  44.241  1.6072  0.5547 -1.7698
   72CHL1   C26 7801   0.990   1.005  44.064 -0.0090  1.3506  0.6293
   72CHL1  H26A 7802   1.086   1.005  44.008  0.6555 -0.2021  1.7137
   72CHL1  H26B 7803   0.983   0.900  44.099  1.8613  0.6944 -0.7365
   72CHL1  H26C 7804   0.907   1.026  43.994  1.7224  0.0418 -2.0002
   72CHL1   C27 7805   1.037   1.240  44.115 -0.2909 -0.0661 -0.0866
   72CHL1  H27A 7806   1.017   1.308  44.201 -3.6150 -1.3324  0.3033
   72CHL1  H27B 7807   1.140   1.238  44.075 -0.9305 -0.6807 -1.7883
   72CHL1  H27C 7808   0.968   1.283  44.039 -1.3458  0.4918  1.1545
   73CHL1    C3 7809   0.390   0.002  53.571  0.3359 -0.1869 -0.5959
   73CHL1    H3 7810   0.376  -0.108  53.579  3.2671 -0.5412  0.8145
   73CHL1    O3 7811   0.446   0.058  53.455  0.0584 -1.2814 -0.6307
   73CHL1   H3' 7812   0.368   0.084  53.406 -0.2724 -0.5174  0.2649
   73CHL1    C4 7813   0.255   0.060  53.594  0.5985  0.1054  0.5285
   73CHL1   H4A 7814   0.269   0.165  53.559  3.5731 -0.4046 -0.0704
   73CHL1   H4B 7815   0.190   0.011  53.519  1.0404 -0.0579  0.2472
   73CHL1    C5 7816   0.207   0.026  53.733 -0.1807 -0.4306  0.6576
   73CHL1    C6 7817   0.078  -0.016  53.759 -1.1038  0.8560  0.3473
   73CHL1    H6 7818   0.012  -0.025  53.671  1.6249 -5.9191 -1.6289
   73CHL1    C7 7819   0.021  -0.025  53.893  0.3839  0.1118 -1.0094
   73CHL1   H7A 7820  -0.078   0.026  53.893 -0.4916 -1.5101  0.0548
   73CHL1   H7B 7821  -0.004  -0.128  53.925  1.9768 -0.7222 -2.3376
   73CHL1    C8 7822   0.116   0.023  54.010 -0.2186 -0.4747  0.6984
   73CHL1    H8 7823   0.092   0.131  54.021 -1.7406 -0.7554  0.3632
   73CHL1   C14 7824   0.071  -0.042  54.142  0.0002  0.1573  0.7343
   73CHL1   H14 7825   0.103  -0.148  54.139  1.4757  0.5520 -2.1335
   73CHL1   C15 7826  -0.079  -0.051  54.181 -0.4940 -0.4419 -0.3328
   73CHL1  H15A 7827  -0.140   0.035  54.147 -1.4890 -0.9094  0.2053
   73CHL1  H15B 7828  -0.121  -0.139  54.128  0.4972  0.1342 -2.1621
   73CHL1   C16 7829  -0.083  -0.062  54.331 -0.2971 -0.8190 -0.4861
   73CHL1  H16A 7830  -0.119   0.031  54.379  1.2233 -1.0861  1.2778
   73CHL1  H16B 7831  -0.146  -0.149  54.358  3.7434 -3.1970  2.2212
   73CHL1   C17 7832   0.068  -0.082  54.375 -0.2073  0.3058  0.2363
   73CHL1   H17 7833   0.100  -0.186  54.352 -1.6287 -0.0706 -0.1228
   73CHL1   C13 7834   0.147   0.005  54.264  0.4115  0.3117  0.4426
   73CHL1   C18 7835   0.125   0.160  54.294 -0.3000 -0.0882 -0.0215
   73CHL1  H18A 7836   0.019   0.191  54.304 -0.6103 -0.7952 -0.9545
   73CHL1  H18B 7837   0.169   0.174  54.395  1.1811 -2.7585 -0.1967
   73CHL1  H18C 7838   0.171   0.225  54.216 -2.3682  0.2569 -1.0198
   73CHL1   C12 7839   0.297  -0.029  54.240  0.3042 -0.2462  0.5982
   73CHL1  H12A 7840   0.349   0.014  54.328  2.5099  1.3320 -1.3483
   73CHL1  H12B 7841   0.306  -0.140  54.244  0.8127 -0.1720  1.8330
   73CHL1   C11 7842   0.351   0.026  54.105 -0.6893 -0.7861 -1.2247
   73CHL1  H11A 7843   0.362   0.135  54.125 -3.3179 -0.8604  1.2984
   73CHL1  H11B 7844   0.452  -0.018  54.097  1.4171  2.2022  4.0100
   73CHL1    C9 7845   0.256   0.000  53.979 -0.2689  0.1635 -0.1321
   73CHL1    H9 7846   0.279  -0.108  53.966  0.0945 -0.0527  1.9628
   73CHL1   C10 7847   0.301   0.061  53.848  0.4063  0.3602 -0.2957
   73CHL1   C19 7848   0.320   0.218  53.848  0.8890  0.3089 -0.5396
   73CHL1  H19A 7849   0.419   0.250  53.886  0.4762  4.5478 -2.4354
   73CHL1  H19B 7850   0.311   0.261  53.746 -1.0440  2.1648  0.3347
   73CHL1  H19C 7851   0.241   0.249  53.920 -1.2681 -3.3846 -1.0360
   73CHL1    C1 7852   0.446   0.007  53.831  0.0534  0.3033  0.6707
   73CHL1   H1A 7853   0.527   0.040  53.899  1.4856 -0.7118 -0.4765
   73CHL1   H1B 7854   0.443  -0.104  53.829 -1.9809  0.2404 -3.2617
   73CHL1    C2 7855   0.491   0.034  53.686 -0.6301 -0.8169  0.5794
   73CHL1   H2A 7856   0.582  -0.024  53.663 -0.1693  0.4207 -0.8482
   73CHL1   H2B 7857   0.515   0.142  53.684  1.8018 -1.2097  3.1414
   73CHL1   C20 7858   0.091  -0.045  54.522 -0.7414 -0.7769 -0.4140
   73CHL1   H20 7859   0.073   0.064  54.536  0.5052 -0.2436 -2.5025
   73CHL1   C21 7860   0.239  -0.075  54.559 -0.3460 -0.9651 -0.8600
   73CHL1  H21A 7861   0.292   0.021  54.541  0.6167 -1.1204  0.8989
   73CHL1  H21B 7862   0.290  -0.154  54.500 -0.4847 -0.8854 -1.0879
   73CHL1  H21C 7863   0.260  -0.091  54.667  0.2989  1.3633 -0.5813
   73CHL1   C22 7864  -0.018  -0.115  54.619 -0.6492 -0.3308  0.2531
   73CHL1  H22A 7865  -0.123  -0.113  54.581 -0.4632  0.9315 -0.2452
   73CHL1  H22B 7866   0.027  -0.215  54.633 -2.7483 -1.1314  1.6907
   73CHL1   C23 7867  -0.022  -0.041  54.750  0.0790 -0.5992 -0.4888
   73CHL1  H23A 7868   0.041   0.050  54.745 -1.6433  0.5951 -2.2979
   73CHL1  H23B 7869  -0.127  -0.003  54.749  0.5319  0.7211 -0.3329
   73CHL1   C24 7870   0.012  -0.131  54.864 -0.5793 -0.6315 -0.2077
   73CHL1  H24A 7871  -0.059  -0.216  54.854 -0.3874 -0.8955  0.5942
   73CHL1  H24B 7872   0.117  -0.168  54.867 -0.1656  0.4912 -0.0853
   73CHL1   C25 7873  -0.008  -0.059  54.998  1.3177  0.0508 -0.2145
   73CHL1   H25 7874   0.062   0.028  55.004  2.4132 -0.6519 -2.0026
   73CHL1   C26 7875  -0.148  -0.005  55.026 -0.0035  0.5356  0.0213
   73CHL1  H26A 7876  -0.230  -0.070  54.988  1.3134 -0.9910 -0.2775
   73CHL1  H26B 7877  -0.167   0.005  55.135  0.0301  1.0937 -0.0251
   73CHL1  H26C 7878  -0.156   0.093  54.975  0.5976 -0.3888 -1.9189
   73CHL1   C27 7879   0.034  -0.152  55.108 -0.1268 -0.3386  0.0516
   73CHL1  H27A 7880  -0.047  -0.226  55.126  0.3645 -1.1296 -0.9423
   73CHL1  H27B 7881   0.121  -0.208  55.069 -0.7192 -0.9260 -0.4615
   73CHL1  H27C 7882   0.055  -0.103  55.206  0.0685 -1.5356  0.6217
   74CHL1    C3 7883   1.489   1.321  53.915 -0.8496  0.3439  0.1610
   74CHL1    H3 7884   1.598   1.312  53.930 -1.1078 -1.6985  1.0607
   74CHL1    O3 7885   1.463   1.369  53.777 -0.4301 -0.1055  0.2384
   74CHL1   H3' 7886   1.447   1.282  53.739 -1.4472 -1.0005  2.5254
   74CHL1    C4 7887   1.430   1.182  53.925 -0.0384 -0.0894  0.4933
   74CHL1   H4A 7888   1.324   1.183  53.892  0.7635 -2.2787 -2.6080
   74CHL1   H4B 7889   1.480   1.120  53.848 -0.0134  0.1648  0.3054
   74CHL1    C5 7890   1.423   1.107  54.057 -0.3552 -0.4224  0.1871
   74CHL1    C6 7891   1.490   0.992  54.083  0.1339  0.1674 -0.4344
   74CHL1    H6 7892   1.520   0.922  54.004 -1.5688  2.0775 -2.9830
   74CHL1    C7 7893   1.489   0.936  54.224 -0.9209 -0.2639 -0.8030
   74CHL1   H7A 7894   1.456   0.830  54.215  1.0683 -0.9015 -0.9487
   74CHL1   H7B 7895   1.586   0.956  54.275 -1.8106 -0.5730  1.1195
   74CHL1    C8 7896   1.385   1.010  54.312  1.1324  0.0985  0.2356
   74CHL1    H8 7897   1.286   0.974  54.277  1.0190  0.2408  0.4052
   74CHL1   C14 7898   1.382   0.974  54.454 -0.1537  0.7720 -1.0587
   74CHL1   H14 7899   1.484   0.997  54.489 -0.6292  0.7091  0.4439
   74CHL1   C15 7900   1.375   0.817  54.486  0.8740 -0.6109  0.3385
   74CHL1  H15A 7901   1.290   0.765  54.435  0.4179  0.4328  0.0002
   74CHL1  H15B 7902   1.470   0.770  54.456  0.7363  0.2030 -1.5333
   74CHL1   C16 7903   1.340   0.811  54.637 -0.2685 -0.6666 -0.1087
   74CHL1  H16A 7904   1.238   0.769  54.651 -1.9167  1.9845 -2.8261
   74CHL1  H16B 7905   1.422   0.764  54.694 -3.0955 -2.8472  2.5439
   74CHL1   C17 7906   1.327   0.958  54.692  0.1707  0.7428 -0.2074
   74CHL1   H17 7907   1.427   0.985  54.730 -0.3506  0.0680  1.7704
   74CHL1   C13 7908   1.294   1.037  54.561  0.3128 -0.2632 -0.0994
   74CHL1   C18 7909   1.144   1.009  54.525  0.0784  1.0090  0.1682
   74CHL1  H18A 7910   1.134   1.039  54.419  1.3210  1.1720  0.0879
   74CHL1  H18B 7911   1.126   0.899  54.531  1.4573  0.8188  2.0016
   74CHL1  H18C 7912   1.067   1.059  54.587  0.9380 -0.4884  2.5966
   74CHL1   C12 7913   1.332   1.184  54.556 -0.3124  0.0861 -0.0747
   74CHL1  H12A 7914   1.261   1.230  54.628 -0.6925 -0.1267 -0.3121
   74CHL1  H12B 7915   1.439   1.208  54.576  0.8013 -1.6499 -3.3013
   74CHL1   C11 7916   1.315   1.243  54.416  0.2777  1.0175  0.2385
   74CHL1  H11A 7917   1.205   1.244  54.401 -0.3996  0.3716  4.0118
   74CHL1  H11B 7918   1.353   1.347  54.410  1.6059  0.4611 -2.3034
   74CHL1    C9 7919   1.393   1.161  54.309  0.1826  0.2426  0.8744
   74CHL1    H9 7920   1.498   1.190  54.333  0.4722 -0.5301  0.5550
   74CHL1   C10 7921   1.364   1.203  54.161  0.1355  0.2440  0.2580
   74CHL1   C19 7922   1.212   1.203  54.131 -0.3304 -0.3112  0.0198
   74CHL1  H19A 7923   1.172   1.300  54.169 -0.6335 -0.5937  0.4303
   74CHL1  H19B 7924   1.174   1.210  54.027 -2.5219 -1.5254  0.6651
   74CHL1  H19C 7925   1.168   1.115  54.183  1.0876 -1.4231 -0.6134
   74CHL1    C1 7926   1.428   1.342  54.157  0.0455 -0.1180 -0.1122
   74CHL1   H1A 7927   1.369   1.411  54.220  0.5443  0.6548 -0.4777
   74CHL1   H1B 7928   1.534   1.334  54.190  0.4015 -0.8354 -1.3474
   74CHL1    C2 7929   1.425   1.405  54.020  0.7087  0.0002  0.5385
   74CHL1   H2A 7930   1.477   1.504  54.020  0.1259  0.4423 -2.7723
   74CHL1   H2B 7931   1.322   1.423  53.984  0.0452 -3.3753  0.4638
   74CHL1   C20 7932   1.247   0.980  54.825  0.9046  1.1793  0.9353
   74CHL1   H20 7933   1.139   0.972  54.799  0.3782 -2.4084  3.5193
   74CHL1   C21 7934   1.283   1.115  54.890 -1.0040 -0.6594  0.5631
   74CHL1  H21A 7935   1.258   1.107  54.998 -4.0714 -1.0766 -0.0850
   74CHL1  H21B 7936   1.219   1.189  54.837 -0.7349 -0.2036  0.8574
   74CHL1  H21C 7937   1.388   1.140  54.862 -1.8575  1.1511 -1.2379
   74CHL1   C22 7938   1.253   0.860  54.920  0.3000 -0.4147 -0.7115
   74CHL1  H22A 7939   1.251   0.759  54.873  4.3493 -1.0181  0.0812
   74CHL1  H22B 7940   1.345   0.876  54.980 -1.0927 -1.9230  2.0111
   74CHL1   C23 7941   1.138   0.869  55.025  1.0645 -0.5782 -0.5035
   74CHL1  H23A 7942   1.164   0.938  55.108  2.8885 -2.3125  0.4531
   74CHL1  H23B 7943   1.051   0.877  54.956  0.3313  0.3782  0.5204
   74CHL1   C24 7944   1.123   0.735  55.098  0.3643 -0.6854  0.0743
   74CHL1  H24A 7945   1.128   0.662  55.014  1.2277 -2.5255  1.6527
   74CHL1  H24B 7946   1.209   0.714  55.165 -1.8062 -1.9075  2.6753
   74CHL1   C25 7947   0.999   0.728  55.191  0.7986 -1.0748 -0.5023
   74CHL1   H25 7948   0.908   0.740  55.128  2.6790  1.4156 -3.0298
   74CHL1   C26 7949   1.001   0.592  55.253  0.0258  0.1359  0.4384
   74CHL1  H26A 7950   0.913   0.574  55.318  0.8692  1.0668  1.8836
   74CHL1  H26B 7951   1.001   0.515  55.173  0.6823 -0.7502  1.2687
   74CHL1  H26C 7952   1.093   0.576  55.313  2.3067  0.3409 -2.7635
   74CHL1   C27 7953   0.997   0.835  55.311  0.0003  0.2362  0.1868
   74CHL1  H27A 7954   1.000   0.943  55.286  0.0493  0.0261 -0.7568
   74CHL1  H27B 7955   0.919   0.817  55.389  2.3310 -3.0922  1.9873
   74CHL1  H27C 7956   1.091   0.824  55.370 -0.7238  1.6977  1.7207
   75CHL1    C3 7957   0.662   2.338  43.306 -0.8946  0.1612 -0.4557
   75CHL1    H3 7958   0.672   2.228  43.316 -2.9614  0.0116  0.5232
   75CHL1    O3 7959   0.606   2.374  43.182 -0.0737 -0.2750  0.3866
   75CHL1   H3' 7960   0.599   2.470  43.183 -1.0940 -0.2300 -2.1828
   75CHL1    C4 7961   0.564   2.375  43.425 -0.8395 -0.2093 -0.4249
   75CHL1   H4A 7962   0.559   2.486  43.419 -3.4920 -0.1229  1.5938
   75CHL1   H4B 7963   0.455   2.357  43.417 -1.4551  0.0147  4.4312
   75CHL1    C5 7964   0.619   2.343  43.566  0.6341  1.0190  0.4165
   75CHL1    C6 7965   0.558   2.245  43.637 -0.4462  0.5312 -0.1339
   75CHL1    H6 7966   0.457   2.208  43.613 -0.4949 -0.7255  1.7858
   75CHL1    C7 7967   0.614   2.200  43.769 -0.0128  0.6317  0.6385
   75CHL1   H7A 7968   0.533   2.206  43.844 -1.2840  3.1208 -0.7923
   75CHL1   H7B 7969   0.648   2.095  43.760  1.7009  1.1013  1.3216
   75CHL1    C8 7970   0.725   2.274  43.823  0.1520  0.5382  0.1997
   75CHL1    H8 7971   0.699   2.379  43.848  2.7164  1.2449  0.2137
   75CHL1   C14 7972   0.803   2.211  43.939 -0.4143 -0.1599  0.7979
   75CHL1   H14 7973   0.824   2.108  43.905 -0.2225 -0.9365  3.1091
   75CHL1   C15 7974   0.723   2.187  44.063 -0.5035 -0.5438 -0.1558
   75CHL1  H15A 7975   0.653   2.270  44.086  1.6120  2.0728 -2.4200
   75CHL1  H15B 7976   0.657   2.100  44.042 -1.4280  0.6056 -2.3853
   75CHL1   C16 7977   0.830   2.151  44.171  0.8358 -0.1429 -0.2345
   75CHL1  H16A 7978   0.815   2.213  44.261  0.3280  0.0110 -0.4280
   75CHL1  H16B 7979   0.820   2.043  44.197 -1.6586  0.1702  0.3488
   75CHL1   C17 7980   0.968   2.180  44.105  0.1564 -0.7753  0.2843
   75CHL1   H17 7981   0.996   2.088  44.048 -2.1156  0.4153 -3.0576
   75CHL1   C13 7982   0.936   2.272  43.988  0.2534 -0.4764  0.2972
   75CHL1   C18 7983   0.909   2.420  44.029 -0.3424  0.6000 -0.4353
   75CHL1  H18A 7984   0.859   2.472  43.945  0.8528  0.5062 -1.2156
   75CHL1  H18B 7985   0.847   2.429  44.121 -0.5531 -1.3579 -0.3424
   75CHL1  H18C 7986   0.998   2.485  44.041  0.2075  0.2003 -2.1840
   75CHL1   C12 7987   1.026   2.276  43.855 -0.1885  0.0762 -0.5775
   75CHL1  H12A 7988   1.129   2.312  43.877  0.1260 -0.9830 -0.2855
   75CHL1  H12B 7989   1.040   2.170  43.827 -0.7673 -0.7308  1.8995
   75CHL1   C11 7990   0.969   2.350  43.740  0.3977 -0.1647  0.0029
   75CHL1  H11A 7991   0.963   2.461  43.753  1.3263 -0.1860  0.7893
   75CHL1  H11B 7992   1.032   2.347  43.649  1.3785  0.7580  0.6341
   75CHL1    C9 7993   0.825   2.297  43.709  0.2619  0.1682 -0.7116
   75CHL1    H9 7994   0.846   2.195  43.670 -1.1197 -1.1651  1.8171
   75CHL1   C10 7995   0.764   2.385  43.593  0.2617  0.3650  0.6222
   75CHL1   C19 7996   0.753   2.533  43.621 -0.3291 -0.0583 -0.4590
   75CHL1  H19A 7997   0.663   2.548  43.685 -0.8240  0.6651 -1.2978
   75CHL1  H19B 7998   0.843   2.586  43.658 -0.7748  0.1899  0.2993
   75CHL1  H19C 7999   0.717   2.580  43.527  1.2242  0.2286 -0.9438
   75CHL1    C1 8000   0.852   2.359  43.470 -0.2557  1.0761  0.8740
   75CHL1   H1A 8001   0.955   2.402  43.478  0.0459  0.0576  3.6500
   75CHL1   H1B 8002   0.868   2.250  43.458 -0.9514  1.2281 -2.3203
   75CHL1    C2 8003   0.800   2.408  43.335  0.3309  0.8383  0.1936
   75CHL1   H2A 8004   0.868   2.370  43.255  1.8099  0.8786  1.3880
   75CHL1   H2B 8005   0.806   2.518  43.319  0.4315  0.9330  0.8597
   75CHL1   C20 8006   1.072   2.231  44.201  0.0236 -0.4603 -0.3991
   75CHL1   H20 8007   1.032   2.326  44.243  0.2631 -0.1721 -0.8123
   75CHL1   C21 8008   1.206   2.256  44.131  0.6617  0.0946 -0.3148
   75CHL1  H21A 8009   1.235   2.167  44.071  1.5317  0.1265  0.0448
   75CHL1  H21B 8010   1.278   2.260  44.215  0.8077  2.7074 -0.4907
   75CHL1  H21C 8011   1.225   2.358  44.092 -0.2780  1.1413  1.8007
   75CHL1   C22 8012   1.092   2.141  44.325  0.8914  1.1422  0.2782
   75CHL1  H22A 8013   1.173   2.184  44.387  1.7721 -2.1274  1.6242
   75CHL1  H22B 8014   0.998   2.136  44.383 -0.3522  1.4052 -1.6220
   75CHL1   C23 8015   1.143   2.001  44.286 -0.3074 -0.2246 -0.2398
   75CHL1  H23A 8016   1.078   1.962  44.205 -1.1238  2.1282 -0.7926
   75CHL1  H23B 8017   1.243   2.023  44.244 -0.9979  2.0629 -0.8515
   75CHL1   C24 8018   1.156   1.901  44.401  0.0073  0.0029 -0.9971
   75CHL1  H24A 8019   1.215   1.941  44.487  0.3341  1.4402 -1.8622
   75CHL1  H24B 8020   1.052   1.889  44.439 -0.4912  2.8103 -1.2231
   75CHL1   C25 8021   1.206   1.763  44.361 -0.1953  0.2575  1.1399
   75CHL1   H25 8022   1.300   1.772  44.302 -1.1803  0.7534 -0.4337
   75CHL1   C26 8023   1.226   1.677  44.480 -0.0470  0.1333  0.4637
   75CHL1  H26A 8024   1.310   1.715  44.542 -0.7391  2.5489  0.0247
   75CHL1  H26B 8025   1.142   1.686  44.552 -0.7429 -0.1948 -0.2811
   75CHL1  H26C 8026   1.244   1.571  44.452  0.1870  0.3819 -0.3433
   75CHL1   C27 8027   1.106   1.695  44.269  0.0468 -0.0992 -0.0341
   75CHL1  H27A 8028   1.015   1.663  44.324 -3.2805  3.9578 -2.5742
   75CHL1  H27B 8029   1.059   1.761  44.194  1.5567  1.2956  0.1954
   75CHL1  H27C 8030   1.148   1.609  44.213 -0.1104  0.3982 -0.9307
   76CHL1    C3 8031   0.669   1.407  53.507  0.0686  0.2836  0.0548
   76CHL1    H3 8032   0.737   1.491  53.531 -1.6159  1.3454  1.2814
   76CHL1    O3 8033   0.652   1.384  53.370 -0.5969 -0.9401  0.7113
   76CHL1   H3' 8034   0.603   1.465  53.353 -0.1226 -1.0150 -1.2982
   76CHL1    C4 8035   0.709   1.274  53.574 -0.4394 -0.4970  0.8450
   76CHL1   H4A 8036   0.621   1.208  53.560 -0.6287  0.0570 -0.7175
   76CHL1   H4B 8037   0.804   1.245  53.523 -1.1961 -0.9990 -0.3076
   76CHL1    C5 8038   0.719   1.286  53.724  0.5899  0.3509 -0.0982
   76CHL1    C6 8039   0.828   1.235  53.789 -0.2750 -0.1899 -0.0823
   76CHL1    H6 8040   0.903   1.178  53.732 -0.9394 -0.9344 -0.2188
   76CHL1    C7 8041   0.835   1.221  53.935 -0.1128  0.7587 -0.3037
   76CHL1   H7A 8042   0.866   1.117  53.955 -1.5177  0.2686 -0.5590
   76CHL1   H7B 8043   0.920   1.278  53.979  2.4561 -1.2644 -2.3295
   76CHL1    C8 8044   0.707   1.262  54.016  0.3104 -0.0475  1.3786
   76CHL1    H8 8045   0.644   1.171  54.008  1.3082 -0.9721  3.2028
   76CHL1   C14 8046   0.734   1.276  54.166  0.2748  0.0361  0.2896
   76CHL1   H14 8047   0.810   1.357  54.168  0.5401 -0.1716 -0.8886
   76CHL1   C15 8048   0.791   1.157  54.251  1.0259  1.0581  0.3617
   76CHL1  H15A 8049   0.731   1.067  54.224  0.7798  1.1968  0.4380
   76CHL1  H15B 8050   0.898   1.138  54.229  0.1627 -2.4652 -1.7292
   76CHL1   C16 8051   0.753   1.198  54.401  0.5271  1.4047 -0.2411
   76CHL1  H16A 8052   0.693   1.111  54.435  1.1142  0.7355 -0.8654
   76CHL1  H16B 8053   0.837   1.202  54.473 -2.4518 -2.1768  3.9508
   76CHL1   C17 8054   0.673   1.328  54.397  0.5462  0.3099  0.0890
   76CHL1   H17 8055   0.748   1.409  54.407  2.2366 -1.0501 -1.0760
   76CHL1   C13 8056   0.617   1.334  54.247  0.3648 -0.1993  0.8217
   76CHL1   C18 8057   0.498   1.234  54.233 -0.2082 -0.0301  0.5670
   76CHL1  H18A 8058   0.423   1.252  54.312  0.4907 -1.4558  1.6080
   76CHL1  H18B 8059   0.445   1.219  54.137 -1.8917 -2.7009  1.7984
   76CHL1  H18C 8060   0.531   1.132  54.263 -1.8920 -0.4706  1.0081
   76CHL1   C12 8061   0.575   1.466  54.186  0.5132  0.3900 -0.0832
   76CHL1  H12A 8062   0.490   1.510  54.241 -0.4790  0.5004 -1.6386
   76CHL1  H12B 8063   0.653   1.545  54.185 -0.9205  1.8544 -1.0090
   76CHL1   C11 8064   0.527   1.450  54.039  0.3420  0.2532  0.1835
   76CHL1  H11A 8065   0.436   1.386  54.043  0.8815 -0.9442 -3.1530
   76CHL1  H11B 8066   0.500   1.551  54.001  0.3248  0.9301  1.9034
   76CHL1    C9 8067   0.640   1.385  53.953 -0.2019  0.5213 -0.0555
   76CHL1    H9 8068   0.714   1.467  53.947  2.6946 -1.8078  1.3591
   76CHL1   C10 8069   0.598   1.349  53.802 -0.1719 -1.0890 -0.3881
   76CHL1   C19 8070   0.465   1.268  53.805  0.5561  0.2880  0.3923
   76CHL1  H19A 8071   0.500   1.169  53.841  0.4488 -0.3627 -1.1953
   76CHL1  H19B 8072   0.380   1.311  53.862 -1.2561 -1.6232 -0.7014
   76CHL1  H19C 8073   0.427   1.257  53.701 -0.9790  0.4717  0.9054
   76CHL1    C1 8074   0.581   1.486  53.726 -0.0025  0.3706  0.0052
   76CHL1   H1A 8075   0.492   1.531  53.775  0.9887 -0.0695  2.3773
   76CHL1   H1B 8076   0.670   1.551  53.743 -0.9367  1.4450  1.0125
   76CHL1    C2 8077   0.545   1.459  53.573  1.6304 -0.2239 -0.6203
   76CHL1   H2A 8078   0.521   1.559  53.533  0.4423  0.1168  0.8218
   76CHL1   H2B 8079   0.460   1.387  53.564  3.1024 -1.8703 -2.0902
   76CHL1   C20 8080   0.577   1.346  54.515 -0.0206  0.3949 -0.0182
   76CHL1   H20 8081   0.476   1.361  54.470 -0.1973 -2.0175 -0.5856
   76CHL1   C21 8082   0.609   1.462  54.606  0.8044 -0.0500 -0.1180
   76CHL1  H21A 8083   0.509   1.474  54.653 -0.6843 -0.7307 -2.8540
   76CHL1  H21B 8084   0.634   1.560  54.559  2.2275  1.0725  2.7570
   76CHL1  H21C 8085   0.688   1.443  54.681  0.8675 -1.8028 -0.5744
   76CHL1   C22 8086   0.523   1.207  54.585  0.5354  0.3907  0.1988
   76CHL1  H22A 8087   0.426   1.229  54.634 -1.4744  0.2827 -3.4080
   76CHL1  H22B 8088   0.504   1.139  54.499 -0.1015  0.9790 -0.1328
   76CHL1   C23 8089   0.618   1.153  54.686 -0.3039 -0.5032 -0.0771
   76CHL1  H23A 8090   0.726   1.152  54.657  0.6989 -2.3376  3.2188
   76CHL1  H23B 8091   0.612   1.230  54.765 -0.0510 -0.7100  0.1466
   76CHL1   C24 8092   0.569   1.014  54.730 -0.2766  0.7211 -0.3023
   76CHL1  H24A 8093   0.459   1.016  54.740 -0.1229  1.0524  1.5769
   76CHL1  H24B 8094   0.587   0.938  54.650  0.2163 -0.3062  0.7454
   76CHL1   C25 8095   0.621   0.974  54.865 -0.8728 -0.0396  0.3354
   76CHL1   H25 8096   0.595   1.045  54.946  0.5375 -0.9880  1.6583
   76CHL1   C26 8097   0.548   0.841  54.898  0.2519  0.1753 -0.0906
   76CHL1  H26A 8098   0.533   0.768  54.815 -1.3340  1.7184 -1.2541
   76CHL1  H26B 8099   0.600   0.794  54.983 -4.5614 -1.8865  2.0423
   76CHL1  H26C 8100   0.448   0.862  54.940  1.9257  3.1144  2.9441
   76CHL1   C27 8101   0.777   0.949  54.860  0.1638 -0.5507 -0.0900
   76CHL1  H27A 8102   0.808   0.937  54.754 -1.6483  4.2465 -1.4239
   76CHL1  H27B 8103   0.827   1.029  54.919 -0.5408  0.6479 -1.0509
   76CHL1  H27C 8104   0.816   0.855  54.905  3.9346  0.7391 -0.3070
   77CHL1    C3 8105   0.385   1.031  52.975 -0.1765 -0.3845  0.8435
   77CHL1    H3 8106   0.294   1.062  52.919 -0.1609 -0.9505  0.4876
   77CHL1    O3 8107   0.477   1.011  52.873  0.2509  0.7235  0.2853
   77CHL1   H3' 8108   0.529   1.090  52.858  2.5538 -0.7730 -0.1630
   77CHL1    C4 8109   0.446   1.131  53.069  0.4848  0.3006  0.2338
   77CHL1   H4A 8110   0.536   1.087  53.118 -0.6529 -0.5237  1.6703
   77CHL1   H4B 8111   0.470   1.220  53.007 -1.2632  1.1023  0.6572
   77CHL1    C5 8112   0.362   1.164  53.186  0.3599 -0.2268 -0.1600
   77CHL1    C6 8113   0.329   1.289  53.223  0.0813  0.6415 -0.1127
   77CHL1    H6 8114   0.385   1.373  53.180 -2.9591  2.8136 -0.0996
   77CHL1    C7 8115   0.255   1.317  53.358  0.1031  0.5601  0.4337
   77CHL1   H7A 8116   0.308   1.392  53.421 -0.4179  1.4261 -0.1534
   77CHL1   H7B 8117   0.163   1.369  53.325 -0.5021 -1.6674 -1.7160
   77CHL1    C8 8118   0.222   1.194  53.436  1.3471 -0.0009  0.2112
   77CHL1    H8 8119   0.305   1.174  53.508 -0.4502 -0.3137  2.2967
   77CHL1   C14 8120   0.084   1.223  53.515 -0.5068 -0.3403 -0.8465
   77CHL1   H14 8121   0.001   1.234  53.441 -1.0111  0.8092 -0.1428
   77CHL1   C15 8122   0.088   1.349  53.597  0.0535  0.1247  1.0784
   77CHL1  H15A 8123   0.192   1.351  53.636 -0.5286  1.3144  2.7173
   77CHL1  H15B 8124   0.063   1.436  53.533 -2.5302 -1.2413  0.1041
   77CHL1   C16 8125  -0.022   1.330  53.702  0.9886  0.5265  0.2932
   77CHL1  H16A 8126   0.022   1.349  53.802 -2.0222  3.7422  1.2216
   77CHL1  H16B 8127  -0.108   1.400  53.700  0.0192 -0.6264  0.4855
   77CHL1   C17 8128  -0.079   1.178  53.689 -0.0765  0.1938 -0.2696
   77CHL1   H17 8129  -0.154   1.171  53.607  0.3127  0.5230 -0.6574
   77CHL1   C13 8130   0.034   1.109  53.612 -0.6349 -0.3201 -0.1787
   77CHL1   C18 8131   0.152   1.066  53.711 -0.0472  0.5830  0.3503
   77CHL1  H18A 8132   0.118   0.996  53.791  1.4586  0.0308  0.5467
   77CHL1  H18B 8133   0.232   1.009  53.659 -1.1159 -2.3135  1.6507
   77CHL1  H18C 8134   0.189   1.158  53.761 -0.7007 -0.0918  2.1565
   77CHL1   C12 8135  -0.006   0.996  53.513  0.5508  0.7867  0.5823
   77CHL1  H12A 8136  -0.024   0.904  53.573 -1.1259  1.5894  1.3842
   77CHL1  H12B 8137  -0.094   1.023  53.451 -0.3096 -1.9405  0.4652
   77CHL1   C11 8138   0.109   0.964  53.415 -0.7267 -0.0549 -0.3207
   77CHL1  H11A 8139   0.179   0.909  53.482  1.5500  0.8115 -1.8661
   77CHL1  H11B 8140   0.063   0.894  53.342 -2.4507  2.5843 -1.9525
   77CHL1    C9 8141   0.184   1.073  53.342 -0.3335  0.5066  0.4992
   77CHL1    H9 8142   0.113   1.120  53.271  1.4495 -1.2936 -2.6843
   77CHL1   C10 8143   0.305   1.038  53.256  0.1631  0.4613 -0.2940
   77CHL1   C19 8144   0.412   0.974  53.347  0.2181 -0.0119 -0.4764
   77CHL1  H19A 8145   0.479   1.044  53.401 -2.4656 -0.1849  3.5809
   77CHL1  H19B 8146   0.365   0.904  53.420 -2.2985  0.4182 -1.5528
   77CHL1  H19C 8147   0.489   0.928  53.283 -0.3036 -0.3939 -0.8399
   77CHL1    C1 8148   0.260   0.924  53.158  0.5011  0.6225  0.4597
   77CHL1   H1A 8149   0.244   0.829  53.213  2.4082  1.3525  2.4412
   77CHL1   H1B 8150   0.168   0.957  53.105  0.8280 -0.4069 -0.7937
   77CHL1    C2 8151   0.353   0.897  53.041  0.6753 -1.2553  0.5273
   77CHL1   H2A 8152   0.304   0.839  52.959  0.9958 -1.1903  0.2852
   77CHL1   H2B 8153   0.441   0.839  53.076  1.2084  1.9288  5.3742
   77CHL1   C20 8154  -0.133   1.106  53.810  0.2837 -0.9850 -0.7606
   77CHL1   H20 8155  -0.138   0.998  53.787  0.4554 -0.9707 -0.8688
   77CHL1   C21 8156  -0.284   1.150  53.811  0.1829 -1.0590 -1.0484
   77CHL1  H21A 8157  -0.297   1.256  53.841 -1.4794 -1.2473 -0.9688
   77CHL1  H21B 8158  -0.338   1.082  53.881 -0.8873  1.5444  0.8017
   77CHL1  H21C 8159  -0.333   1.154  53.711 -2.2105 -1.8523  0.0161
   77CHL1   C22 8160  -0.060   1.123  53.953 -0.6107  1.2238  0.1321
   77CHL1  H22A 8161   0.008   1.035  53.960 -2.0153 -0.3697 -3.5504
   77CHL1  H22B 8162  -0.001   1.216  53.963 -0.9626  1.4397  0.2298
   77CHL1   C23 8163  -0.147   1.131  54.077 -0.1989  0.6187 -0.0454
   77CHL1  H23A 8164  -0.075   1.132  54.162 -0.8777 -0.9052  0.5955
   77CHL1  H23B 8165  -0.215   1.218  54.074  0.7358  1.3998  0.6712
   77CHL1   C24 8166  -0.230   1.005  54.097 -0.4647 -0.4104  0.1192
   77CHL1  H24A 8167  -0.267   0.961  54.001 -1.3337  0.8239 -0.1225
   77CHL1  H24B 8168  -0.157   0.933  54.140  0.8483  1.0074  0.3430
   77CHL1   C25 8169  -0.347   1.033  54.190 -0.3937 -0.1410  0.1230
   77CHL1   H25 8170  -0.391   1.131  54.161  0.9858  0.5149  0.1867
   77CHL1   C26 8171  -0.461   0.930  54.178 -0.2738  0.0506  0.0106
   77CHL1  H26A 8172  -0.476   0.888  54.076 -1.6957  1.9484 -0.6389
   77CHL1  H26B 8173  -0.425   0.842  54.234  0.4318  0.3023 -0.0328
   77CHL1  H26C 8174  -0.559   0.953  54.227 -0.0140 -0.9909  1.0618
   77CHL1   C27 8175  -0.300   1.044  54.330 -0.4748 -0.1006 -0.2368
   77CHL1  H27A 8176  -0.238   0.955  54.354 -0.0147 -0.4130 -2.3324
   77CHL1  H27B 8177  -0.256   1.142  54.357  1.2006 -1.2235  1.3601
   77CHL1  H27C 8178  -0.381   1.031  54.404  0.5981 -1.2918  0.7776
   78CHL1    C3 8179   1.370   0.344  46.892  0.1285  0.1015 -0.8156
   78CHL1    H3 8180   1.370   0.446  46.935 -0.9079 -1.0877  2.3491
   78CHL1    O3 8181   1.458   0.276  46.981 -0.1390  0.0018  0.2364
   78CHL1   H3' 8182   1.479   0.199  46.927  1.1905  0.8587 -0.5471
   78CHL1    C4 8183   1.233   0.265  46.905 -0.9267 -0.8255 -0.6798
   78CHL1   H4A 8184   1.252   0.164  46.861 -1.1895 -1.1643 -0.0214
   78CHL1   H4B 8185   1.204   0.264  47.012 -1.0005 -1.1422 -0.7040
   78CHL1    C5 8186   1.128   0.323  46.815  0.4411 -0.1745  0.4262
   78CHL1    C6 8187   1.025   0.393  46.871  0.1857  0.1472  0.3460
   78CHL1    H6 8188   1.013   0.397  46.980  0.7156 -0.8427  0.4481
   78CHL1    C7 8189   0.921   0.456  46.778  0.6188  0.5410 -0.0382
   78CHL1   H7A 8190   0.819   0.449  46.821  1.1974 -0.3197  1.2770
   78CHL1   H7B 8191   0.951   0.563  46.783 -0.6678  1.0876 -2.5583
   78CHL1    C8 8192   0.931   0.406  46.629  0.0739 -0.1451 -0.2109
   78CHL1    H8 8193   0.884   0.306  46.635 -0.8407  0.3159  0.7490
   78CHL1   C14 8194   0.836   0.491  46.533  0.1516 -0.1387 -0.2709
   78CHL1   H14 8195   0.881   0.591  46.547 -1.7241  0.7382 -0.2495
   78CHL1   C15 8196   0.684   0.503  46.555  0.1198  0.0823 -0.4456
   78CHL1  H15A 8197   0.647   0.398  46.569  2.5718 -0.8794 -0.7338
   78CHL1  H15B 8198   0.649   0.559  46.644  2.1989  0.1714  0.3691
   78CHL1   C16 8199   0.647   0.564  46.419 -0.1927  0.9769  0.4230
   78CHL1  H16A 8200   0.571   0.499  46.371  1.7741 -0.9774 -0.1871
   78CHL1  H16B 8201   0.606   0.668  46.426 -2.3349  0.1399  1.3658
   78CHL1   C17 8202   0.758   0.558  46.313 -1.0101  0.1074 -0.2615
   78CHL1   H17 8203   0.810   0.654  46.333  0.1672 -0.6840  0.6468
   78CHL1   C13 8204   0.852   0.455  46.376  0.9061  0.1570 -0.1294
   78CHL1   C18 8205   0.800   0.317  46.339 -0.4305  0.1985  0.3226
   78CHL1  H18A 8206   0.842   0.251  46.418 -1.2871  0.4902  1.0417
   78CHL1  H18B 8207   0.690   0.312  46.352 -0.2832  1.3869  2.5092
   78CHL1  H18C 8208   0.837   0.276  46.243  0.2390 -2.1507  1.4983
   78CHL1   C12 8209   0.998   0.470  46.339 -0.2564  0.5501 -0.9080
   78CHL1  H12A 8210   1.013   0.438  46.234 -1.4012  0.1699 -0.9664
   78CHL1  H12B 8211   1.030   0.571  46.372 -1.3097  0.0401  1.9747
   78CHL1   C11 8212   1.082   0.371  46.426 -0.5547 -0.1971 -0.5119
   78CHL1  H11A 8213   1.044   0.268  46.414 -0.1606 -0.3067 -0.8305
   78CHL1  H11B 8214   1.183   0.381  46.380 -0.1461 -1.4838  0.0711
   78CHL1    C9 8215   1.077   0.408  46.580 -0.1680 -0.1524 -0.6880
   78CHL1    H9 8216   1.105   0.516  46.584 -1.1662  0.0801  0.2355
   78CHL1   C10 8217   1.162   0.320  46.665  0.4137 -0.0772  0.9336
   78CHL1   C19 8218   1.147   0.168  46.619 -0.4873 -0.6871 -0.3029
   78CHL1  H19A 8219   1.204   0.142  46.527  0.2909 -1.2307  0.3243
   78CHL1  H19B 8220   1.185   0.098  46.697  0.4165 -3.5461 -3.0750
   78CHL1  H19C 8221   1.047   0.124  46.595  0.9486 -3.7620 -1.2256
   78CHL1    C1 8222   1.306   0.375  46.643  0.0740  0.0024  0.2246
   78CHL1   H1A 8223   1.351   0.364  46.542  1.5171  2.3557  0.5289
   78CHL1   H1B 8224   1.302   0.486  46.650 -4.3798  0.0115 -0.0238
   78CHL1    C2 8225   1.411   0.320  46.744  0.5141 -0.1351  0.8453
   78CHL1   H2A 8226   1.510   0.368  46.725 -1.0693  3.0617  0.0514
   78CHL1   H2B 8227   1.421   0.209  46.740  1.0435 -0.3193  4.1358
   78CHL1   C20 8228   0.704   0.548  46.164  0.5094  0.4439  0.3958
   78CHL1   H20 8229   0.680   0.440  46.157 -1.7107  0.9330 -0.1206
   78CHL1   C21 8230   0.807   0.591  46.067 -0.3660  0.2784  0.3607
   78CHL1  H21A 8231   0.895   0.522  46.063 -0.2778  0.3221  1.3759
   78CHL1  H21B 8232   0.854   0.683  46.107  0.1295 -0.1211  0.7198
   78CHL1  H21C 8233   0.751   0.600  45.971 -0.3122  2.3449  0.4978
   78CHL1   C22 8234   0.562   0.600  46.126  0.0281 -0.2317 -0.2049
   78CHL1  H22A 8235   0.525   0.561  46.029  1.0236 -2.8182  0.3836
   78CHL1  H22B 8236   0.482   0.567  46.196 -0.8086  2.0465 -0.0047
   78CHL1   C23 8237   0.551   0.761  46.144 -0.3790 -0.2565  1.0277
   78CHL1  H23A 8238   0.633   0.792  46.212 -0.5159  2.1616  0.1720
   78CHL1  H23B 8239   0.561   0.816  46.048 -2.7161  1.3986  1.6401
   78CHL1   C24 8240   0.417   0.807  46.194 -0.0974  0.3337 -0.6782
   78CHL1  H24A 8241   0.388   0.758  46.290  1.3894  0.9374  0.1037
   78CHL1  H24B 8242   0.412   0.917  46.206 -4.1429  0.5041 -2.2871
   78CHL1   C25 8243   0.308   0.769  46.097 -0.0605 -0.4233 -0.0042
   78CHL1   H25 8244   0.321   0.661  46.076 -2.7201 -1.0437  1.1759
   78CHL1   C26 8245   0.167   0.780  46.150  0.1714 -0.1922  0.7887
   78CHL1  H26A 8246   0.162   0.759  46.259  2.0356  1.7768  1.3328
   78CHL1  H26B 8247   0.123   0.882  46.141  2.3329  0.7339  0.0796
   78CHL1  H26C 8248   0.107   0.711  46.087 -0.4349  1.2324 -0.2715
   78CHL1   C27 8249   0.314   0.843  45.966  0.4241  0.0852  0.9732
   78CHL1  H27A 8250   0.216   0.822  45.917  0.8138 -1.1148  0.6814
   78CHL1  H27B 8251   0.315   0.953  45.983  2.4652  0.0541  1.2821
   78CHL1  H27C 8252   0.396   0.807  45.901  0.0774 -2.4234  1.8228
   79CHL1    C3 8253   2.567   2.174  45.909 -0.5132  1.1007 -0.6346
   79CHL1    H3 8254   2.650   2.166  45.835 -0.7025 -1.0802 -0.6883
   79CHL1    O3 8255   2.458   2.109  45.850  0.2692  0.3196  0.5887
   79CHL1   H3' 8256   2.467   2.126  45.756  1.5326  0.9156  0.7885
   79CHL1    C4 8257   2.616   2.099  46.037 -0.9437 -0.1586 -0.2062
   79CHL1   H4A 8258   2.524   2.099  46.099 -2.3416  1.3181 -2.1421
   79CHL1   H4B 8259   2.641   1.993  46.017 -0.2814  0.1918 -1.3466
   79CHL1    C5 8260   2.734   2.170  46.111 -0.2563  0.8070  0.6952
   79CHL1    C6 8261   2.850   2.105  46.130  0.0186 -1.1306  0.9426
   79CHL1    H6 8262   2.849   1.997  46.113 -4.6686 -1.1181 -0.4181
   79CHL1    C7 8263   2.965   2.164  46.200  0.0342  0.1040 -0.0646
   79CHL1   H7A 8264   2.993   2.096  46.283 -2.3741 -1.7163 -0.6227
   79CHL1   H7B 8265   3.052   2.191  46.137 -0.9030  2.6202 -0.3992
   79CHL1    C8 8266   2.937   2.300  46.274  0.1073  0.1241  0.6896
   79CHL1    H8 8267   2.894   2.274  46.373  2.1189 -0.6734  1.4024
   79CHL1   C14 8268   3.078   2.361  46.306  1.1222 -0.6298 -0.3769
   79CHL1   H14 8269   3.127   2.393  46.212 -1.5834  2.7331 -0.8591
   79CHL1   C15 8270   3.179   2.265  46.378 -0.4104 -0.2742  0.2052
   79CHL1  H15A 8271   3.127   2.220  46.465  0.1573  1.0283  1.2554
   79CHL1  H15B 8272   3.221   2.185  46.315  4.1741  2.4430 -0.6313
   79CHL1   C16 8273   3.278   2.371  46.433 -0.2912 -0.5938  0.2763
   79CHL1  H16A 8274   3.290   2.361  46.543 -3.1545  1.9052  0.9436
   79CHL1  H16B 8275   3.368   2.357  46.369  0.7492  0.0394  1.5547
   79CHL1   C17 8276   3.214   2.515  46.406  0.6330 -0.0562  0.5554
   79CHL1   H17 8277   3.250   2.556  46.309 -0.5724  1.8370  0.8384
   79CHL1   C13 8278   3.064   2.488  46.390  0.6662 -0.1209  0.2228
   79CHL1   C18 8279   2.991   2.468  46.527  0.8167 -0.2756  0.2524
   79CHL1  H18A 8280   3.021   2.375  46.580 -1.5667 -1.0365  0.3889
   79CHL1  H18B 8281   3.015   2.553  46.595  1.1055 -1.4391  1.6702
   79CHL1  H18C 8282   2.881   2.458  46.512  0.9425  0.0174 -0.9142
   79CHL1   C12 8283   2.974   2.587  46.294  0.2851 -0.0607 -0.4605
   79CHL1  H12A 8284   2.965   2.687  46.340 -0.4983 -0.2051 -0.2917
   79CHL1  H12B 8285   3.033   2.596  46.200  1.8567 -0.5813  0.4409
   79CHL1   C11 8286   2.842   2.518  46.254 -0.0370 -0.3066  0.7427
   79CHL1  H11A 8287   2.777   2.510  46.343 -2.6617 -1.2108 -1.1474
   79CHL1  H11B 8288   2.779   2.580  46.187  0.5548  1.6172  1.8922
   79CHL1    C9 8289   2.853   2.384  46.177 -0.1798 -1.1105  0.2149
   79CHL1    H9 8290   2.918   2.392  46.087  0.7205 -2.0386  0.7545
   79CHL1   C10 8291   2.715   2.313  46.147 -0.7023  0.0587  0.0035
   79CHL1   C19 8292   2.621   2.326  46.268 -0.3354  0.5589  0.3873
   79CHL1  H19A 8293   2.526   2.279  46.233  0.4920  0.1283 -1.4287
   79CHL1  H19B 8294   2.648   2.276  46.363 -1.4159  0.1887  0.5202
   79CHL1  H19C 8295   2.586   2.431  46.282 -1.9709  0.0895  0.0521
   79CHL1    C1 8296   2.662   2.387  46.021 -0.0857 -0.5018  0.2465
   79CHL1   H1A 8297   2.637   2.494  46.037 -0.4511 -0.3355 -1.2495
   79CHL1   H1B 8298   2.744   2.387  45.946 -0.1525 -0.9719  0.1705
   79CHL1    C2 8299   2.543   2.319  45.944 -0.6731 -0.2597  0.4705
   79CHL1   H2A 8300   2.523   2.380  45.852 -0.4846 -1.4220 -0.3637
   79CHL1   H2B 8301   2.446   2.317  45.997 -0.0896 -0.8228  1.5373
   79CHL1   C20 8302   3.268   2.618  46.502 -0.1206  0.2516  0.0661
   79CHL1   H20 8303   3.221   2.587  46.598  0.2679  1.4844  0.6679
   79CHL1   C21 8304   3.232   2.759  46.479  0.2920 -0.2092 -0.0623
   79CHL1  H21A 8305   3.287   2.815  46.401  1.2728  0.4147  1.0423
   79CHL1  H21B 8306   3.237   2.816  46.574 -2.5732  0.0374  0.0432
   79CHL1  H21C 8307   3.128   2.760  46.440  1.0446  1.8590 -2.2810
   79CHL1   C22 8308   3.420   2.613  46.523 -0.6672 -0.6815  0.3078
   79CHL1  H22A 8309   3.460   2.703  46.575  2.9419 -1.9976  0.0583
   79CHL1  H22B 8310   3.461   2.528  46.582  1.1937 -0.2126 -0.2584
   79CHL1   C23 8311   3.501   2.617  46.389 -0.6642  0.5206  0.1293
   79CHL1  H23A 8312   3.470   2.534  46.320  0.3022 -1.2628  1.7562
   79CHL1  H23B 8313   3.484   2.711  46.333 -1.5155 -1.0704 -2.5073
   79CHL1   C24 8314   3.651   2.599  46.395  0.8994  0.0888  0.8787
   79CHL1  H24A 8315   3.697   2.693  46.434  2.7853 -0.0211 -0.9058
   79CHL1  H24B 8316   3.674   2.516  46.466  0.5350 -0.6056  0.1946
   79CHL1   C25 8317   3.722   2.578  46.260  0.1361 -0.1830  0.5551
   79CHL1   H25 8318   3.695   2.480  46.216  1.1512 -0.2906  0.1420
   79CHL1   C26 8319   3.676   2.673  46.147  0.0902  0.2010  0.2602
   79CHL1  H26A 8320   3.673   2.780  46.179 -1.8685  0.1668  0.3445
   79CHL1  H26B 8321   3.730   2.660  46.051  1.8303 -0.4123  1.2844
   79CHL1  H26C 8322   3.568   2.647  46.135  0.5366 -1.3871 -0.4922
   79CHL1   C27 8323   3.876   2.581  46.267  0.4672 -0.7494 -0.4307
   79CHL1  H27A 8324   3.927   2.568  46.169 -1.7102 -0.1479 -1.6934
   79CHL1  H27B 8325   3.912   2.680  46.301 -1.9195  0.6776 -1.7904
   79CHL1  H27C 8326   3.899   2.500  46.340  1.8703  2.3396  2.8797
   80CHL1    C3 8327   1.906   1.552  51.359  0.4402  0.1601 -0.0386
   80CHL1    H3 8328   2.002   1.567  51.411 -0.6103  1.6146  1.5718
   80CHL1    O3 8329   1.835   1.443  51.418  0.0101  0.0298  0.1791
   80CHL1   H3' 8330   1.837   1.462  51.513  3.2586  0.2616  0.1793
   80CHL1    C4 8331   1.820   1.678  51.366  0.5099 -0.3190 -0.0868
   80CHL1   H4A 8332   1.726   1.659  51.312 -0.5559 -1.4620  2.0318
   80CHL1   H4B 8333   1.789   1.706  51.469  1.5409 -0.7189  0.3515
   80CHL1    C5 8334   1.877   1.794  51.295 -0.5037 -0.1187  0.3534
   80CHL1    C6 8335   1.906   1.911  51.356  0.2981  0.3326  0.2127
   80CHL1    H6 8336   1.861   1.922  51.456 -3.5991 -1.2101 -1.1350
   80CHL1    C7 8337   1.964   2.031  51.287 -0.0708  0.8452  0.0177
   80CHL1   H7A 8338   1.923   2.125  51.330 -0.1095  0.2063  1.4021
   80CHL1   H7B 8339   2.074   2.039  51.300  0.1941  0.4410 -1.6903
   80CHL1    C8 8340   1.951   2.028  51.138 -0.4896  0.0001  0.5756
   80CHL1    H8 8341   1.849   2.064  51.111 -1.5323 -2.1148  1.3723
   80CHL1   C14 8342   2.058   2.125  51.074 -0.1374 -0.1886 -0.0132
   80CHL1   H14 8343   2.158   2.082  51.091 -0.1951 -0.0000  0.8416
   80CHL1   C15 8344   2.082   2.269  51.123 -0.1281 -0.4117  0.2464
   80CHL1  H15A 8345   1.984   2.320  51.131  1.1096  2.0011  1.2918
   80CHL1  H15B 8346   2.134   2.273  51.221 -1.5173  0.8044  0.9743
   80CHL1   C16 8347   2.146   2.341  51.008 -1.0863  0.7278 -0.1233
   80CHL1  H16A 8348   2.083   2.430  50.983  1.1190  1.9888 -1.5069
   80CHL1  H16B 8349   2.242   2.390  51.033  0.0676 -1.2570 -0.3999
   80CHL1   C17 8350   2.168   2.238  50.889 -0.6361  0.3259  0.2397
   80CHL1   H17 8351   2.263   2.191  50.924 -1.5597 -0.1439  2.2572
   80CHL1   C13 8352   2.050   2.140  50.917 -0.5554 -0.6054 -0.6984
   80CHL1   C18 8353   1.921   2.209  50.876  0.1499 -0.4579 -0.9288
   80CHL1  H18A 8354   1.931   2.249  50.773  0.3594 -1.4358 -1.3000
   80CHL1  H18B 8355   1.832   2.144  50.877  0.7872 -1.3575  0.3363
   80CHL1  H18C 8356   1.903   2.295  50.944  0.9829 -1.6963  0.9373
   80CHL1   C12 8357   2.075   1.999  50.863  0.0142 -0.3605 -0.0868
   80CHL1  H12A 8358   2.067   1.997  50.752 -2.6463  3.7577 -0.1958
   80CHL1  H12B 8359   2.175   1.969  50.901  0.7033  0.3769 -1.2478
   80CHL1   C11 8360   1.977   1.895  50.924  0.4680  0.2335  0.4771
   80CHL1  H11A 8361   1.875   1.927  50.897 -0.6287 -2.0192  1.6645
   80CHL1  H11B 8362   1.986   1.792  50.881 -2.3832  0.1431 -0.0475
   80CHL1    C9 8363   1.981   1.888  51.078 -0.3173  0.1160 -0.0069
   80CHL1    H9 8364   2.081   1.858  51.117 -1.6948 -2.3299  1.9289
   80CHL1   C10 8365   1.900   1.772  51.141 -0.1524  0.4906 -0.3202
   80CHL1   C19 8366   1.765   1.763  51.068  0.5819 -0.1261  0.6106
   80CHL1  H19A 8367   1.680   1.824  51.104 -1.7783 -1.8417 -1.6741
   80CHL1  H19B 8368   1.779   1.755  50.958  0.4898 -1.2719  0.6700
   80CHL1  H19C 8369   1.719   1.664  51.085 -0.3717  0.1637 -0.1993
   80CHL1    C1 8370   1.977   1.640  51.118  0.2450 -0.1446  1.4172
   80CHL1   H1A 8371   1.971   1.608  51.012  0.5214  1.5090  0.8701
   80CHL1   H1B 8372   2.086   1.635  51.137  0.1601  0.8384  2.2917
   80CHL1    C2 8373   1.917   1.516  51.208 -0.2604 -0.6518  0.4451
   80CHL1   H2A 8374   1.983   1.429  51.186  2.2560  1.7021 -2.1343
   80CHL1   H2B 8375   1.810   1.499  51.184 -0.6547  0.2245  1.5297
   80CHL1   C20 8376   2.188   2.303  50.754 -0.5369 -0.6543  0.4573
   80CHL1   H20 8377   2.092   2.349  50.722 -0.5329 -1.2207 -0.3932
   80CHL1   C21 8378   2.248   2.198  50.660 -0.1380 -0.1928  0.3840
   80CHL1  H21A 8379   2.170   2.135  50.613  2.4832 -2.2530 -1.5861
   80CHL1  H21B 8380   2.305   2.121  50.716 -0.9408 -2.6126 -1.9179
   80CHL1  H21C 8381   2.314   2.232  50.578  0.0063 -1.5778 -0.1058
   80CHL1   C22 8382   2.289   2.429  50.756 -0.1097  0.5367  0.6338
   80CHL1  H22A 8383   2.290   2.470  50.653 -0.3224  0.0318  0.4282
   80CHL1  H22B 8384   2.258   2.515  50.819  0.3042 -0.0237  1.6264
   80CHL1   C23 8385   2.429   2.386  50.798  0.0841 -0.7855 -0.5017
   80CHL1  H23A 8386   2.425   2.337  50.897 -0.3654  0.5665  0.1670
   80CHL1  H23B 8387   2.477   2.313  50.729  1.4933 -0.4711  0.1142
   80CHL1   C24 8388   2.510   2.510  50.796 -0.0799 -1.2925  1.0249
   80CHL1  H24A 8389   2.503   2.548  50.692 -0.0243 -2.2858  0.6426
   80CHL1  H24B 8390   2.461   2.588  50.858  1.9901  2.2512 -1.4855
   80CHL1   C25 8391   2.657   2.500  50.826  1.0838  0.6429 -0.4168
   80CHL1   H25 8392   2.696   2.403  50.786  1.2480  0.8745 -0.8231
   80CHL1   C26 8393   2.750   2.607  50.771 -0.2571 -0.2382 -1.2350
   80CHL1  H26A 8394   2.711   2.706  50.803 -1.3607 -0.3996 -2.0289
   80CHL1  H26B 8395   2.857   2.606  50.799 -0.3104 -1.9727 -0.9812
   80CHL1  H26C 8396   2.746   2.609  50.660  2.2272 -0.2858 -1.3779
   80CHL1   C27 8397   2.666   2.481  50.978  0.3144  0.2357  0.2145
   80CHL1  H27A 8398   2.770   2.509  51.007  0.0535  0.3991  0.9979
   80CHL1  H27B 8399   2.589   2.544  51.028 -2.0435 -1.1308 -1.5161
   80CHL1  H27C 8400   2.643   2.381  51.019  0.1163  1.0414  2.1609
   81CHL1    C3 8401   0.266   0.490  40.592  0.1917 -0.5306  0.2751
   81CHL1    H3 8402   0.314   0.582  40.551  1.3609 -1.3913 -0.3427
   81CHL1    O3 8403   0.122   0.521  40.606 -0.0160 -0.1782  0.5646
   81CHL1   H3' 8404   0.091   0.468  40.680 -0.3809 -0.5782  0.1353
   81CHL1    C4 8405   0.277   0.372  40.492  0.1714 -0.8427  0.0188
   81CHL1   H4A 8406   0.218   0.286  40.531 -1.4364  0.3103  0.2228
   81CHL1   H4B 8407   0.225   0.407  40.401  1.0177  2.3824  0.6379
   81CHL1    C5 8408   0.426   0.341  40.477  0.6525  0.5204  0.1608
   81CHL1    C6 8409   0.489   0.318  40.357  0.6272 -0.0174 -0.1763
   81CHL1    H6 8410   0.416   0.320  40.274 -1.4359 -1.4792  1.4723
   81CHL1    C7 8411   0.626   0.265  40.325 -0.2140  0.0203  0.3746
   81CHL1   H7A 8412   0.630   0.198  40.236  1.5854 -0.4119  0.7402
   81CHL1   H7B 8413   0.697   0.346  40.297  0.7745 -1.4188 -1.5652
   81CHL1    C8 8414   0.687   0.207  40.461 -0.8565 -0.5307 -0.1695
   81CHL1    H8 8415   0.634   0.111  40.475 -0.0255 -1.1130 -0.9021
   81CHL1   C14 8416   0.836   0.177  40.445  0.1296 -0.2274 -0.0123
   81CHL1   H14 8417   0.879   0.278  40.424  0.7055 -0.2640  0.9222
   81CHL1   C15 8418   0.871   0.083  40.334 -0.5261 -0.2514 -0.6223
   81CHL1  H15A 8419   0.793   0.004  40.331  0.3949 -1.1511 -2.1905
   81CHL1  H15B 8420   0.870   0.140  40.238 -1.3931 -1.4374 -1.3320
   81CHL1   C16 8421   1.013   0.038  40.371  0.6503 -0.1056  1.0164
   81CHL1  H16A 8422   1.009  -0.072  40.388 -1.6202  0.0365  1.7379
   81CHL1  H16B 8423   1.083   0.061  40.287 -2.8742  1.9752 -1.6301
   81CHL1   C17 8424   1.043   0.107  40.504 -0.7612  0.1253  0.3744
   81CHL1   H17 8425   1.076   0.209  40.478  0.0108 -0.2199 -0.0326
   81CHL1   C13 8426   0.908   0.132  40.572  0.6592 -0.6360  0.0150
   81CHL1   C18 8427   0.846  -0.004  40.620  0.4025 -0.3024 -0.6336
   81CHL1  H18A 8428   0.921  -0.036  40.696  0.7496 -1.6812 -1.5062
   81CHL1  H18B 8429   0.743   0.013  40.657  0.7915  0.3311  0.1707
   81CHL1  H18C 8430   0.850  -0.081  40.539 -2.4571  1.1347 -2.2960
   81CHL1   C12 8431   0.905   0.256  40.677  0.0277  0.2381 -0.2008
   81CHL1  H12A 8432   0.948   0.218  40.772 -0.7253 -1.0369 -0.3414
   81CHL1  H12B 8433   0.960   0.346  40.643  1.4665 -0.3583  0.4705
   81CHL1   C11 8434   0.751   0.280  40.703  0.5604 -0.1430 -0.6521
   81CHL1  H11A 8435   0.708   0.193  40.757 -1.3943 -0.0243 -1.9284
   81CHL1  H11B 8436   0.753   0.365  40.775 -0.9288  0.7871 -1.6497
   81CHL1    C9 8437   0.662   0.310  40.574 -0.1471  0.0104 -0.1326
   81CHL1    H9 8438   0.708   0.406  40.544  1.0496  0.2279  2.1375
   81CHL1   C10 8439   0.513   0.322  40.605  0.5090 -0.6010 -0.3271
   81CHL1   C19 8440   0.459   0.194  40.668  0.6955 -0.6681  0.1576
   81CHL1  H19A 8441   0.353   0.207  40.697  1.1790 -1.8841  2.7369
   81CHL1  H19B 8442   0.448   0.112  40.593 -1.4406 -0.4921  0.2285
   81CHL1  H19C 8443   0.512   0.158  40.759 -1.7688 -0.6416  1.6893
   81CHL1    C1 8444   0.483   0.442  40.702  0.7060  0.6051 -0.3846
   81CHL1   H1A 8445   0.522   0.423  40.804 -0.7787  1.3432  0.3425
   81CHL1   H1B 8446   0.534   0.535  40.669  1.0035  1.8813  3.1958
   81CHL1    C2 8447   0.332   0.472  40.726 -0.2534 -0.3106 -0.0936
   81CHL1   H2A 8448   0.324   0.549  40.805  3.1481 -1.5501  1.6480
   81CHL1   H2B 8449   0.284   0.380  40.766 -1.3500  1.0768  1.9296
   81CHL1   C20 8450   1.164   0.037  40.583  0.1781 -0.4500  0.0768
   81CHL1   H20 8451   1.130  -0.068  40.593  0.6248 -0.5665  0.4116
   81CHL1   C21 8452   1.176   0.103  40.712  0.2428 -0.0214  0.1045
   81CHL1  H21A 8453   1.093   0.073  40.778  0.6930 -1.2189  0.1507
   81CHL1  H21B 8454   1.187   0.213  40.697  0.4289 -0.1687 -0.9227
   81CHL1  H21C 8455   1.275   0.089  40.760 -0.7200 -0.1305  2.1195
   81CHL1   C22 8456   1.302   0.045  40.508 -0.4098 -0.1431 -0.0955
   81CHL1  H22A 8457   1.289   0.031  40.399  1.1261  0.6581 -0.3938
   81CHL1  H22B 8458   1.344   0.147  40.518 -0.2901  0.0117 -1.8993
   81CHL1   C23 8459   1.398  -0.068  40.560  0.7208  0.1278  0.3253
   81CHL1  H23A 8460   1.407  -0.055  40.670  1.1957  0.0462  0.2976
   81CHL1  H23B 8461   1.346  -0.163  40.538 -0.9558  1.7207 -3.4257
   81CHL1   C24 8462   1.532  -0.072  40.490  0.7680  0.6341 -0.8889
   81CHL1  H24A 8463   1.516  -0.065  40.380 -1.5000 -0.1647 -0.6579
   81CHL1  H24B 8464   1.596   0.007  40.534  0.2116  0.6864 -0.1717
   81CHL1   C25 8465   1.594  -0.217  40.499  0.2404  0.3397  0.1777
   81CHL1   H25 8466   1.570  -0.261  40.598 -0.2652  0.5818  0.1677
   81CHL1   C26 8467   1.538  -0.324  40.402  0.9097 -0.7963 -0.3977
   81CHL1  H26A 8468   1.594  -0.420  40.408  1.7066 -0.4652 -1.9037
   81CHL1  H26B 8469   1.432  -0.353  40.421  1.2728 -0.6534  2.1772
   81CHL1  H26C 8470   1.562  -0.280  40.303 -0.3448 -1.4836 -1.0298
   81CHL1   C27 8471   1.745  -0.223  40.476 -0.3289 -0.6662  0.0093
   81CHL1  H27A 8472   1.763  -0.208  40.367 -1.9597 -1.0132 -0.3304
   81CHL1  H27B 8473   1.786  -0.147  40.545 -1.6346  0.7098 -0.6772
   81CHL1  H27C 8474   1.790  -0.318  40.513 -2.1936 -1.2702  0.8565
   82CHL1    C3 8475   0.371   2.049  43.002 -0.3144  0.4564  0.4213
   82CHL1    H3 8476   0.427   2.068  42.908  0.2361 -3.5715 -0.2295
   82CHL1    O3 8477   0.279   2.153  43.030 -0.0221  0.4641 -0.0680
   82CHL1   H3' 8478   0.207   2.108  43.075  0.1971  1.5302  1.4388
   82CHL1    C4 8479   0.281   1.929  42.961 -0.2715  0.1083  0.0619
   82CHL1   H4A 8480   0.202   1.908  43.035 -0.1855 -2.2519 -0.4537
   82CHL1   H4B 8481   0.214   1.962  42.879 -0.2774 -0.1572 -0.0435
   82CHL1    C5 8482   0.370   1.810  42.930  0.1064 -0.0424  0.1310
   82CHL1    C6 8483   0.351   1.748  42.815 -0.4058 -0.5412  0.2208
   82CHL1    H6 8484   0.270   1.778  42.747 -0.1699 -1.1093 -0.3139
   82CHL1    C7 8485   0.425   1.617  42.784 -0.3253  0.2022  0.3170
   82CHL1   H7A 8486   0.350   1.539  42.758  1.2615 -1.9472  1.7779
   82CHL1   H7B 8487   0.506   1.635  42.710  1.3167  1.7827  2.3516
   82CHL1    C8 8488   0.481   1.551  42.914 -0.0361  0.4001 -0.4039
   82CHL1    H8 8489   0.394   1.518  42.974 -0.5946  0.9611 -0.8906
   82CHL1   C14 8490   0.572   1.429  42.872 -0.0327 -0.1728  0.3566
   82CHL1   H14 8491   0.660   1.474  42.822  1.1511  0.8076  3.1073
   82CHL1   C15 8492   0.509   1.306  42.791  0.1009 -0.2064  0.2942
   82CHL1  H15A 8493   0.407   1.292  42.833  0.9066 -1.4952  1.9088
   82CHL1  H15B 8494   0.487   1.335  42.686  1.2956  2.7351  0.7390
   82CHL1   C16 8495   0.608   1.190  42.815  0.2001  0.2794 -0.4536
   82CHL1  H16A 8496   0.557   1.098  42.851  0.8764 -0.4570 -1.3341
   82CHL1  H16B 8497   0.660   1.174  42.719  1.7516  2.7336 -0.0964
   82CHL1   C17 8498   0.712   1.233  42.925 -0.0780 -0.2028 -0.4360
   82CHL1   H17 8499   0.804   1.269  42.875 -0.3108  0.1805 -0.5956
   82CHL1   C13 8500   0.641   1.350  42.998 -0.8577  0.1452 -0.9846
   82CHL1   C18 8501   0.531   1.301  43.096 -0.1743 -0.1939 -0.7864
   82CHL1  H18A 8502   0.471   1.218  43.054 -0.3939  0.5415 -1.9806
   82CHL1  H18B 8503   0.572   1.267  43.193 -1.6867  0.6502  0.2012
   82CHL1  H18C 8504   0.459   1.380  43.128  0.3191  0.9713 -2.4428
   82CHL1   C12 8505   0.729   1.457  43.069  0.3273 -0.9336 -0.2831
   82CHL1  H12A 8506   0.751   1.401  43.163  0.9484 -0.9169 -0.4150
   82CHL1  H12B 8507   0.828   1.474  43.021  0.7276 -0.4661  0.6689
   82CHL1   C11 8508   0.655   1.591  43.106 -0.3156 -0.0827  0.2084
   82CHL1  H11A 8509   0.596   1.557  43.194  1.1691  0.9140  1.6653
   82CHL1  H11B 8510   0.722   1.673  43.139 -1.0778  0.3955  0.5812
   82CHL1    C9 8511   0.562   1.651  42.995  0.1184 -0.0529  0.5451
   82CHL1    H9 8512   0.631   1.696  42.920  0.8999 -1.7401  0.1976
   82CHL1   C10 8513   0.467   1.771  43.043  0.1378  0.1587  0.5441
   82CHL1   C19 8514   0.371   1.738  43.152 -0.2412 -0.9606  0.5544
   82CHL1  H19A 8515   0.312   1.824  43.191  1.1808  0.4967 -0.4048
   82CHL1  H19B 8516   0.286   1.668  43.133 -0.9498  0.2494 -0.9971
   82CHL1  H19C 8517   0.425   1.692  43.237  1.4502 -1.9546 -0.9883
   82CHL1    C1 8518   0.555   1.893  43.084  0.1671  0.5087 -0.5817
   82CHL1   H1A 8519   0.614   1.856  43.170 -1.8676 -2.5169 -0.3184
   82CHL1   H1B 8520   0.624   1.920  43.001  0.8407  2.2299  0.4789
   82CHL1    C2 8521   0.480   2.027  43.109  0.1943 -0.1467 -0.2210
   82CHL1   H2A 8522   0.543   2.116  43.128  0.3725 -0.4190  0.4565
   82CHL1   H2B 8523   0.419   2.019  43.201  1.1947  1.2551  0.6057
   82CHL1   C20 8524   0.769   1.116  42.999  0.2102 -0.0153 -0.5578
   82CHL1   H20 8525   0.680   1.063  43.040  1.7349 -0.8411  1.8650
   82CHL1   C21 8526   0.848   1.157  43.127 -0.5444  0.1433  0.0133
   82CHL1  H21A 8527   0.773   1.194  43.200  0.0145 -0.2938  0.8070
   82CHL1  H21B 8528   0.921   1.238  43.104 -1.8776  0.9319 -1.8061
   82CHL1  H21C 8529   0.895   1.072  43.179  2.6591  0.9723 -1.3060
   82CHL1   C22 8530   0.846   1.018  42.902 -0.1117  1.0061 -0.3180
   82CHL1  H22A 8531   0.776   0.982  42.823 -1.1721 -0.0377  1.0502
   82CHL1  H22B 8532   0.924   1.078  42.851  1.4794  0.0832  0.9296
   82CHL1   C23 8533   0.913   0.891  42.967  0.0872  0.0478  0.0261
   82CHL1  H23A 8534   0.973   0.842  42.887  0.5540  2.7077 -1.3929
   82CHL1  H23B 8535   0.987   0.921  43.044 -1.1200 -2.6087  2.4110
   82CHL1   C24 8536   0.814   0.815  43.051 -0.7704  0.1596  0.0399
   82CHL1  H24A 8537   0.843   0.843  43.155  2.0025  1.8274 -1.0649
   82CHL1  H24B 8538   0.712   0.854  43.032  0.1017  2.7660  0.2507
   82CHL1   C25 8539   0.827   0.663  43.028  0.3840 -0.1681 -0.2319
   82CHL1   H25 8540   0.742   0.616  43.082  1.0495  0.2534  1.2432
   82CHL1   C26 8541   0.808   0.630  42.874 -0.4300  0.9063  0.5157
   82CHL1  H26A 8542   0.891   0.659  42.806  0.2699  2.2760  1.9012
   82CHL1  H26B 8543   0.792   0.523  42.849 -1.1040  1.2659 -0.6825
   82CHL1  H26C 8544   0.723   0.695  42.843  0.3262  0.6913 -2.2756
   82CHL1   C27 8545   0.957   0.606  43.082  0.5986  0.0218 -0.0234
   82CHL1  H27A 8546   0.954   0.495  43.083 -1.1707  0.0182  2.1880
   82CHL1  H27B 8547   1.046   0.626  43.019 -0.6770  2.7163 -1.1675
   82CHL1  H27C 8548   0.976   0.667  43.173  0.1744  1.8246 -1.0780
   83CHL1    C3 8549   0.003   2.480  53.214 -0.3500  0.0746 -0.2283
   83CHL1    H3 8550   0.031   2.570  53.273 -0.2038 -0.0089 -0.1703
   83CHL1    O3 8551   0.010   2.491  53.079  0.2792 -0.7526  0.3746
   83CHL1   H3' 8552   0.007   2.402  53.043  0.5769  0.2345 -2.2710
   83CHL1    C4 8553   0.095   2.363  53.265  0.4706  0.1786  0.5759
   83CHL1   H4A 8554   0.075   2.272  53.206 -1.6630 -0.3725  2.0257
   83CHL1   H4B 8555   0.195   2.408  53.249  0.0025  1.3645  0.8571
   83CHL1    C5 8556   0.084   2.344  53.415 -0.4659  0.4486  0.1365
   83CHL1    C6 8557   0.194   2.335  53.500 -0.1572 -0.3576 -0.4709
   83CHL1    H6 8558   0.296   2.334  53.458  1.4799 -1.1418  3.1027
   83CHL1    C7 8559   0.183   2.308  53.647 -0.6661  0.2225 -0.6768
   83CHL1   H7A 8560   0.261   2.245  53.693 -3.1912 -1.6873  1.3013
   83CHL1   H7B 8561   0.202   2.411  53.685  2.1949 -1.1959  2.1265
   83CHL1    C8 8562   0.051   2.253  53.694 -0.3245 -0.5875 -0.1298
   83CHL1    H8 8563   0.047   2.148  53.660 -0.5873 -0.6229  0.0099
   83CHL1   C14 8564   0.039   2.267  53.843 -0.1581  0.3904  0.3898
   83CHL1   H14 8565   0.046   2.375  53.871 -1.6547  0.4040  0.7932
   83CHL1   C15 8566   0.151   2.199  53.927 -0.2456 -0.2042  0.3168
   83CHL1  H15A 8567   0.182   2.098  53.895  2.6859  0.4071  0.9014
   83CHL1  H15B 8568   0.253   2.242  53.916 -0.7507  0.6388 -1.5096
   83CHL1   C16 8569   0.095   2.197  54.064 -0.0326  0.5692 -0.4077
   83CHL1  H16A 8570   0.097   2.099  54.117 -3.1701 -0.0892 -1.2853
   83CHL1  H16B 8571   0.152   2.257  54.139 -0.2140 -0.6509  0.7509
   83CHL1   C17 8572  -0.048   2.246  54.059  0.7938  0.7538  0.6931
   83CHL1   H17 8573  -0.045   2.357  54.063  2.1796  0.7403  0.5871
   83CHL1   C13 8574  -0.088   2.222  53.906  0.2525 -0.4382 -0.0766
   83CHL1   C18 8575  -0.114   2.072  53.898 -0.0848  0.1116  0.1151
   83CHL1  H18A 8576  -0.114   2.028  53.796  1.9486 -2.7711  1.2128
   83CHL1  H18B 8577  -0.050   2.008  53.962 -2.1875 -0.2007  2.0314
   83CHL1  H18C 8578  -0.216   2.045  53.932 -0.7211  1.4935 -0.6034
   83CHL1   C12 8579  -0.205   2.287  53.838 -0.1277  0.3170  0.2787
   83CHL1  H12A 8580  -0.302   2.245  53.871  0.7567 -1.2022  1.1068
   83CHL1  H12B 8581  -0.194   2.394  53.866  0.9075  0.7612 -1.6244
   83CHL1   C11 8582  -0.193   2.297  53.689  0.5487 -1.0823 -0.3133
   83CHL1  H11A 8583  -0.236   2.204  53.645  0.7717 -0.3105 -2.3028
   83CHL1  H11B 8584  -0.276   2.365  53.657  0.5835 -1.0700 -0.3773
   83CHL1    C9 8585  -0.056   2.342  53.632  0.8065  0.0799 -0.0222
   83CHL1    H9 8586  -0.062   2.447  53.668 -2.5542  0.1367 -0.3585
   83CHL1   C10 8587  -0.060   2.331  53.476  0.4838  0.2705  0.2947
   83CHL1   C19 8588  -0.112   2.193  53.442  0.2995  0.7803  0.1017
   83CHL1  H19A 8589  -0.061   2.114  53.500  3.6946  0.6926 -2.7034
   83CHL1  H19B 8590  -0.222   2.188  53.458  0.4157  0.7420  0.9149
   83CHL1  H19C 8591  -0.101   2.172  53.333  0.5751 -1.1409  0.4737
   83CHL1    C1 8592  -0.152   2.435  53.416  0.5616 -0.0205 -0.3839
   83CHL1   H1A 8593  -0.261   2.435  53.441  1.0006  0.9472  1.7569
   83CHL1   H1B 8594  -0.133   2.535  53.460 -0.5521 -0.0040  0.1041
   83CHL1    C2 8595  -0.141   2.444  53.258 -0.2152  0.4703  0.7048
   83CHL1   H2A 8596  -0.212   2.523  53.225 -3.1031 -2.5224 -0.8251
   83CHL1   H2B 8597  -0.193   2.357  53.213 -0.3779  0.8630  0.1051
   83CHL1   C20 8598  -0.150   2.197  54.163  0.2288  0.6469 -0.5941
   83CHL1   H20 8599  -0.166   2.089  54.145  0.2763  0.5389 -0.0133
   83CHL1   C21 8600  -0.285   2.275  54.161  0.2427 -1.0677 -0.2075
   83CHL1  H21A 8601  -0.252   2.377  54.189  4.8864 -2.8052  1.5416
   83CHL1  H21B 8602  -0.346   2.250  54.251 -0.5176  0.9767 -0.1031
   83CHL1  H21C 8603  -0.349   2.252  54.073 -0.0043 -2.7090  0.3729
   83CHL1   C22 8604  -0.088   2.200  54.306  0.2771  1.0452  0.3383
   83CHL1  H22A 8605   0.014   2.163  54.330 -0.3756 -0.4013  0.9729
   83CHL1  H22B 8606  -0.067   2.308  54.322  1.4748  0.9007 -0.1145
   83CHL1   C23 8607  -0.186   2.148  54.422 -0.7653  0.4777  0.6318
   83CHL1  H23A 8608  -0.272   2.215  54.442 -2.3730 -1.0480 -0.7309
   83CHL1  H23B 8609  -0.222   2.047  54.393 -1.6997  0.3067  2.2590
   83CHL1   C24 8610  -0.115   2.124  54.556 -0.2610  0.2315 -0.0534
   83CHL1  H24A 8611  -0.007   2.098  54.549  0.3344  2.2915  0.7206
   83CHL1  H24B 8612  -0.122   2.215  54.620  0.4206 -0.9444  1.7714
   83CHL1   C25 8613  -0.187   2.015  54.651  0.2393 -0.2239  1.0790
   83CHL1   H25 8614  -0.189   1.934  54.575 -2.2260  0.3194  0.4650
   83CHL1   C26 8615  -0.117   1.976  54.779  0.3442  0.2688 -0.1229
   83CHL1  H26A 8616  -0.027   1.912  54.770  1.8769  2.6051 -3.9158
   83CHL1  H26B 8617  -0.089   2.068  54.834  0.4935  1.2031 -1.7035
   83CHL1  H26C 8618  -0.187   1.917  54.842 -0.7560  0.4993 -1.0783
   83CHL1   C27 8619  -0.330   2.051  54.690  0.2602  0.4811  0.8329
   83CHL1  H27A 8620  -0.314   2.139  54.755  0.6339  3.2545 -2.7069
   83CHL1  H27B 8621  -0.395   2.089  54.608  2.8499  0.0524 -1.5497
   83CHL1  H27C 8622  -0.387   1.973  54.746 -0.2691  0.0953 -0.2024
   84CHL1    C3 8623   0.458   2.523  38.842 -0.0235  0.1448 -0.0478
   84CHL1    H3 8624   0.484   2.415  38.835  1.6127  0.4479  0.8916
   84CHL1    O3 8625   0.441   2.569  38.706 -0.7902  0.2083 -0.2008
   84CHL1   H3' 8626   0.399   2.655  38.717  2.7255  1.9720  1.2966
   84CHL1    C4 8627   0.327   2.546  38.929  0.2251 -0.4052  0.0371
   84CHL1   H4A 8628   0.309   2.655  38.923  1.5538 -0.0300  1.9340
   84CHL1   H4B 8629   0.238   2.496  38.885 -2.0247  3.4049 -0.1601
   84CHL1    C5 8630   0.344   2.500  39.074  0.0465 -0.2980  0.3712
   84CHL1    C6 8631   0.265   2.405  39.128 -0.3909  0.1876 -0.2281
   84CHL1    H6 8632   0.179   2.367  39.070 -0.2991 -0.4154  0.0243
   84CHL1    C7 8633   0.275   2.372  39.273  1.0330 -0.2687 -0.1273
   84CHL1   H7A 8634   0.174   2.354  39.314  1.6262 -1.4343  0.8974
   84CHL1   H7B 8635   0.325   2.273  39.262 -1.0154 -1.4517  0.6982
   84CHL1    C8 8636   0.344   2.472  39.363 -0.4216 -0.4576  0.2456
   84CHL1    H8 8637   0.282   2.563  39.376 -0.3752 -0.4626  0.5046
   84CHL1   C14 8638   0.377   2.408  39.495  0.6504  0.1622 -0.0086
   84CHL1   H14 8639   0.427   2.311  39.474  0.0542 -0.5655  1.7299
   84CHL1   C15 8640   0.266   2.352  39.584  0.6901  0.9199  0.1346
   84CHL1  H15A 8641   0.184   2.427  39.596 -0.6698 -0.2534 -1.3631
   84CHL1  H15B 8642   0.220   2.255  39.555 -0.4759  0.9601  1.6844
   84CHL1   C16 8643   0.332   2.333  39.723  0.1631 -0.0659 -0.0043
   84CHL1  H16A 8644   0.272   2.400  39.788 -3.4676 -0.1865 -2.9292
   84CHL1  H16B 8645   0.325   2.225  39.749  2.0349 -0.0056  0.9210
   84CHL1   C17 8646   0.478   2.396  39.715 -0.1759  0.7447 -0.3343
   84CHL1   H17 8647   0.539   2.312  39.677 -0.4032 -0.4693  1.8767
   84CHL1   C13 8648   0.471   2.483  39.592 -0.7175  0.0243  0.3100
   84CHL1   C18 8649   0.407   2.613  39.642  0.1456 -0.0957  0.6262
   84CHL1  H18A 8650   0.312   2.591  39.695 -0.7210  1.2711 -0.3021
   84CHL1  H18B 8651   0.469   2.666  39.718  0.2127 -0.0442  0.5361
   84CHL1  H18C 8652   0.371   2.689  39.569  0.8197  0.7876  1.1853
   84CHL1   C12 8653   0.597   2.511  39.516 -0.2096  0.6785 -0.1853
   84CHL1  H12A 8654   0.674   2.548  39.587  0.0903 -1.9129  0.9602
   84CHL1  H12B 8655   0.648   2.417  39.487 -2.6353 -1.0085  0.7013
   84CHL1   C11 8656   0.567   2.586  39.388 -0.1262 -0.5724  0.2918
   84CHL1  H11A 8657   0.524   2.685  39.415 -3.3532 -0.9732 -2.6533
   84CHL1  H11B 8658   0.654   2.617  39.326 -0.5668 -0.0457 -0.0728
   84CHL1    C9 8659   0.477   2.504  39.295  0.5168 -0.5199  0.0574
   84CHL1    H9 8660   0.524   2.405  39.284  0.2823 -0.6202 -0.0449
   84CHL1   C10 8661   0.461   2.566  39.149 -0.1551 -0.1956  0.6278
   84CHL1   C19 8662   0.412   2.709  39.155  1.0536 -0.4843 -0.8777
   84CHL1  H19A 8663   0.320   2.707  39.217  1.4291 -1.2460 -0.3284
   84CHL1  H19B 8664   0.487   2.759  39.220  1.0407  1.2136 -2.1285
   84CHL1  H19C 8665   0.396   2.770  39.063 -3.9039 -0.9816 -0.6398
   84CHL1    C1 8666   0.584   2.546  39.060 -0.0183 -0.3800 -0.2458
   84CHL1   H1A 8667   0.669   2.598  39.109  0.5987  0.9675 -2.5686
   84CHL1   H1B 8668   0.603   2.436  39.060 -0.8108 -0.5486  1.3994
   84CHL1    C2 8669   0.569   2.600  38.914 -0.4223 -0.3210 -0.2499
   84CHL1   H2A 8670   0.663   2.585  38.856 -1.1051  0.6093 -1.6820
   84CHL1   H2B 8671   0.553   2.710  38.922 -1.2239 -0.5423  1.6939
   84CHL1   C20 8672   0.539   2.433  39.856 -0.3199 -0.1328  0.6372
   84CHL1   H20 8673   0.488   2.524  39.894 -0.6617 -0.1947  0.3300
   84CHL1   C21 8674   0.691   2.470  39.852  0.3022  0.6965  0.4460
   84CHL1  H21A 8675   0.751   2.394  39.797  0.1007  1.7560 -1.3162
   84CHL1  H21B 8676   0.725   2.482  39.957 -2.6361 -2.0844  1.8777
   84CHL1  H21C 8677   0.706   2.566  39.797  2.1019 -0.1492 -0.6453
   84CHL1   C22 8678   0.517   2.330  39.972  0.7070  0.2974  0.1271
   84CHL1  H22A 8679   0.418   2.281  39.959  0.3963  0.9565 -0.0492
   84CHL1  H22B 8680   0.596   2.253  39.959 -0.6651 -0.8254 -2.3047
   84CHL1   C23 8681   0.513   2.388  40.116  1.2796  0.5776  0.2562
   84CHL1  H23A 8682   0.605   2.443  40.146  1.8198 -0.8682  1.3948
   84CHL1  H23B 8683   0.426   2.456  40.129  0.4679 -0.4348  0.2129
   84CHL1   C24 8684   0.492   2.274  40.224 -0.1868  0.2100 -0.3738
   84CHL1  H24A 8685   0.402   2.212  40.206  0.6554 -1.5414  1.1024
   84CHL1  H24B 8686   0.581   2.209  40.207 -0.1201  0.3796 -0.6747
   84CHL1   C25 8687   0.489   2.323  40.370  0.1130  0.4342  1.0191
   84CHL1   H25 8688   0.492   2.228  40.427  2.0416  1.0979  2.0955
   84CHL1   C26 8689   0.605   2.416  40.417  0.1564  0.3334 -0.7078
   84CHL1  H26A 8690   0.593   2.428  40.526 -0.8016  0.9561 -0.8696
   84CHL1  H26B 8691   0.705   2.370  40.403  0.9880  1.5195  1.0603
   84CHL1  H26C 8692   0.595   2.513  40.364 -0.2621 -0.2514 -1.7333
   84CHL1   C27 8693   0.354   2.393  40.403 -0.2185  0.8439 -0.3588
   84CHL1  H27A 8694   0.276   2.341  40.343  2.6821 -2.7267 -1.4259
   84CHL1  H27B 8695   0.343   2.390  40.513  2.5114  0.7753 -0.0211
   84CHL1  H27C 8696   0.338   2.496  40.365 -1.3586  1.2507  1.1686
   85CHL1    C3 8697   0.254   0.503  47.338  0.5992  0.2798  0.3855
   85CHL1    H3 8698   0.198   0.431  47.401 -0.9754 -0.9822 -2.3059
   85CHL1    O3 8699   0.202   0.631  47.373  0.2752  0.0235  0.1903
   85CHL1   H3' 8700   0.125   0.642  47.317  1.3296  0.5226 -1.2169
   85CHL1    C4 8701   0.396   0.500  47.378  0.0565 -0.0370  0.4375
   85CHL1   H4A 8702   0.443   0.581  47.318  2.7989 -3.1898 -2.0677
   85CHL1   H4B 8703   0.407   0.514  47.488 -0.6467  1.3623  0.3439
   85CHL1    C5 8704   0.464   0.371  47.333  0.3371  1.1052  0.4170
   85CHL1    C6 8705   0.527   0.287  47.422 -0.3885 -0.2602  0.3071
   85CHL1    H6 8706   0.538   0.307  47.530  3.4693 -1.3335  0.2420
   85CHL1    C7 8707   0.575   0.150  47.398 -0.7067 -0.4153 -0.3070
   85CHL1   H7A 8708   0.664   0.135  47.463  0.6331  2.3625 -1.3663
   85CHL1   H7B 8709   0.504   0.072  47.434 -1.7405  0.4555 -0.4047
   85CHL1    C8 8710   0.611   0.136  47.247  0.2860  0.0435  0.4984
   85CHL1    H8 8711   0.693   0.203  47.213  0.9655 -0.5058  1.0231
   85CHL1   C14 8712   0.652  -0.002  47.215 -0.0722  0.1702  0.1830
   85CHL1   H14 8713   0.571  -0.063  47.260  0.4313  0.7218  1.9180
   85CHL1   C15 8714   0.776  -0.056  47.283  0.2614 -0.2740 -0.8682
   85CHL1  H15A 8715   0.860   0.015  47.264 -0.0382  0.6639  1.0836
   85CHL1  H15B 8716   0.775  -0.074  47.392  1.1597  0.6468 -0.6973
   85CHL1   C16 8717   0.819  -0.179  47.200  0.3666  0.4339 -0.0789
   85CHL1  H16A 8718   0.924  -0.166  47.165 -0.0014 -1.1721 -2.0269
   85CHL1  H16B 8719   0.802  -0.270  47.262 -1.7945  1.3457  0.7394
   85CHL1   C17 8720   0.718  -0.179  47.074  0.2440  0.4820  0.2002
   85CHL1   H17 8721   0.637  -0.249  47.104  0.5799 -0.9907 -2.0685
   85CHL1   C13 8722   0.673  -0.034  47.073  0.2946 -0.5853  0.0828
   85CHL1   C18 8723   0.788   0.055  47.009 -0.6612 -0.5317  0.4544
   85CHL1  H18A 8724   0.887   0.020  47.047 -0.4180 -0.1089  0.2242
   85CHL1  H18B 8725   0.784   0.049  46.898 -4.5576 -1.7375  0.5130
   85CHL1  H18C 8726   0.792   0.162  47.036  1.1714 -0.2988 -0.5017
   85CHL1   C12 8727   0.541   0.001  47.000  1.0002  0.3849 -0.4815
   85CHL1  H12A 8728   0.547  -0.019  46.891  0.7362  0.1862 -0.4624
   85CHL1  H12B 8729   0.469  -0.065  47.053 -1.0475  2.6547 -0.2576
   85CHL1   C11 8730   0.492   0.141  47.019 -0.2254 -0.4512 -0.0476
   85CHL1  H11A 8731   0.565   0.203  46.964  1.1678 -2.9267 -1.1372
   85CHL1  H11B 8732   0.396   0.139  46.963 -1.0621 -1.7070  1.3660
   85CHL1    C9 8733   0.484   0.180  47.169  0.1851 -0.0164  0.5333
   85CHL1    H9 8734   0.414   0.109  47.218 -2.8246  1.0249 -2.0025
   85CHL1   C10 8735   0.446   0.330  47.186  0.5033 -0.1525  0.9160
   85CHL1   C19 8736   0.526   0.424  47.087 -0.3577 -0.3628 -0.6387
   85CHL1  H19A 8737   0.483   0.408  46.986  2.7984 -1.4850 -1.9222
   85CHL1  H19B 8738   0.504   0.529  47.115  0.3221 -0.5609  0.7760
   85CHL1  H19C 8739   0.635   0.405  47.097 -0.7706 -3.8167 -1.4404
   85CHL1    C1 8740   0.296   0.348  47.157 -0.1411 -0.6241 -0.5048
   85CHL1   H1A 8741   0.278   0.307  47.055  0.7907 -2.7767  0.1363
   85CHL1   H1B 8742   0.229   0.290  47.224 -0.1973  1.3980  1.3314
   85CHL1    C2 8743   0.241   0.484  47.188 -0.6870  0.0748 -0.1478
   85CHL1   H2A 8744   0.139   0.498  47.147 -0.9738 -4.1416 -1.3340
   85CHL1   H2B 8745   0.309   0.564  47.150  1.9162 -1.6346  0.6915
   85CHL1   C20 8746   0.774  -0.233  46.940  0.7579  0.1767  0.0520
   85CHL1   H20 8747   0.838  -0.155  46.893  0.9515  0.1300  0.2360
   85CHL1   C21 8748   0.667  -0.289  46.845  0.6311 -0.2096  0.1950
   85CHL1  H21A 8749   0.611  -0.373  46.892 -0.3604  0.6109  0.5294
   85CHL1  H21B 8750   0.713  -0.319  46.748  2.6744  3.6732 -0.2448
   85CHL1  H21C 8751   0.584  -0.215  46.838 -0.6407 -1.7406 -3.0759
   85CHL1   C22 8752   0.871  -0.361  46.962 -0.1420  0.3487 -0.1496
   85CHL1  H22A 8753   0.915  -0.354  47.064 -1.3156  3.4824  0.2499
   85CHL1  H22B 8754   0.814  -0.456  46.959  1.8770 -1.2650  4.3833
   85CHL1   C23 8755   0.979  -0.353  46.862 -0.2084 -0.4283 -0.4379
   85CHL1  H23A 8756   1.051  -0.437  46.858  1.9352  1.3381 -4.4298
   85CHL1  H23B 8757   0.947  -0.349  46.756 -0.5442 -0.9261 -0.3617
   85CHL1   C24 8758   1.089  -0.244  46.886  0.7629 -0.7974  1.2526
   85CHL1  H24A 8759   1.060  -0.140  46.860  0.9315 -0.2827  3.0040
   85CHL1  H24B 8760   1.107  -0.243  46.995  1.0168  1.5031  1.2485
   85CHL1   C25 8761   1.224  -0.276  46.818  0.7223  0.0130 -0.0060
   85CHL1   H25 8762   1.261  -0.373  46.858 -0.0395 -0.8781 -1.4032
   85CHL1   C26 8763   1.226  -0.265  46.670  0.7535  0.5759 -0.1305
   85CHL1  H26A 8764   1.191  -0.163  46.642  0.6008  0.0557 -1.9384
   85CHL1  H26B 8765   1.323  -0.279  46.619  0.1324  0.9125 -1.4386
   85CHL1  H26C 8766   1.151  -0.334  46.626  0.5923  0.4432  0.3454
   85CHL1   C27 8767   1.324  -0.156  46.871 -0.5704  0.4247 -0.1912
   85CHL1  H27A 8768   1.290  -0.064  46.820 -1.2455 -0.4778 -1.4091
   85CHL1  H27B 8769   1.293  -0.116  46.970 -3.2584  0.5096 -0.9730
   85CHL1  H27C 8770   1.431  -0.185  46.871 -0.6293 -0.1279 -3.4649
   86CHL1    C3 8771   1.007   1.775  53.903  0.5557  1.0656  0.3204
   86CHL1    H3 8772   0.900   1.787  53.930  0.2666 -1.9785  0.8613
   86CHL1    O3 8773   1.033   1.807  53.775 -0.2211  0.1270  0.1623
   86CHL1   H3' 8774   1.124   1.781  53.763  0.7037  3.2840 -0.5650
   86CHL1    C4 8775   1.080   1.875  53.994  1.2818  0.2704 -0.6162
   86CHL1   H4A 8776   1.190   1.865  53.977  1.3617 -0.8957  0.4611
   86CHL1   H4B 8777   1.052   1.975  53.955  0.3347  0.7582  1.1987
   86CHL1    C5 8778   1.043   1.845  54.132  0.6859  1.0133  0.2462
   86CHL1    C6 8779   0.993   1.946  54.215 -0.0675  0.4138  0.2423
   86CHL1    H6 8780   0.985   2.048  54.175  2.4344  1.1793  1.5158
   86CHL1    C7 8781   0.969   1.931  54.360  0.0711  1.1878  0.0478
   86CHL1   H7A 8782   1.026   2.008  54.416 -0.8344  0.4644  2.0525
   86CHL1   H7B 8783   0.861   1.920  54.382 -0.3690  0.1039 -2.3860
   86CHL1    C8 8784   1.028   1.790  54.412 -0.1054 -0.2798 -0.3172
   86CHL1    H8 8785   1.139   1.800  54.413 -0.0547 -0.0989 -2.5149
   86CHL1   C14 8786   0.964   1.762  54.539  1.4708 -0.0620 -0.9735
   86CHL1   H14 8787   0.855   1.744  54.530  0.6030  0.5730  4.4877
   86CHL1   C15 8788   0.964   1.878  54.641 -0.1070  1.1097 -0.2780
   86CHL1  H15A 8789   1.055   1.943  54.635  0.1054  0.7318 -1.5598
   86CHL1  H15B 8790   0.883   1.950  54.614 -0.9296 -0.5264 -2.5275
   86CHL1   C16 8791   0.937   1.806  54.777 -0.1226 -0.0562  0.0949
   86CHL1  H16A 8792   1.002   1.845  54.858  3.5949  1.9353 -3.4992
   86CHL1  H16B 8793   0.830   1.826  54.801  0.9009  2.3243  3.3670
   86CHL1   C17 8794   0.949   1.655  54.750 -0.3428  1.0242 -0.1227
   86CHL1   H17 8795   0.848   1.612  54.739  0.0148  0.6203 -2.3852
   86CHL1   C13 8796   1.023   1.642  54.617 -0.7658  0.4183 -0.7323
   86CHL1   C18 8797   1.175   1.661  54.643 -0.5129 -0.1249 -0.9309
   86CHL1  H18A 8798   1.230   1.681  54.549  0.1854  2.2667 -0.0836
   86CHL1  H18B 8799   1.204   1.747  54.707  2.2345 -1.4500 -0.2587
   86CHL1  H18C 8800   1.206   1.564  54.686 -2.0345  0.1802  0.9912
   86CHL1   C12 8801   0.991   1.522  54.537  0.0577  1.3388  1.1415
   86CHL1  H12A 8802   1.020   1.430  54.593  0.9728  0.6815 -0.3554
   86CHL1  H12B 8803   0.882   1.511  54.515  0.1823 -0.8637  1.3772
   86CHL1   C11 8804   1.053   1.547  54.389 -0.5158 -0.1639 -0.5545
   86CHL1  H11A 8805   1.164   1.551  54.395 -0.6006  1.3954  3.2646
   86CHL1  H11B 8806   1.041   1.458  54.324 -3.7483 -0.6536  0.5246
   86CHL1    C9 8807   0.998   1.672  54.321  0.4471 -0.7876  0.3150
   86CHL1    H9 8808   0.890   1.650  54.307  0.7298 -0.9899 -1.9468
   86CHL1   C10 8809   1.059   1.696  54.175  1.0027  0.3572  0.1316
   86CHL1   C19 8810   1.211   1.663  54.182 -0.0395  0.0820 -0.1933
   86CHL1  H19A 8811   1.228   1.554  54.195  2.2987  0.3732 -0.4407
   86CHL1  H19B 8812   1.262   1.662  54.084  1.4601 -2.0851  0.5300
   86CHL1  H19C 8813   1.268   1.707  54.266  3.7822 -2.1957 -1.3629
   86CHL1    C1 8814   0.980   1.603  54.071 -0.5880  0.2320 -0.4064
   86CHL1   H1A 8815   1.003   1.502  54.111  0.9900 -0.1665 -2.1962
   86CHL1   H1B 8816   0.871   1.618  54.083 -0.9289 -1.4613 -1.1691
   86CHL1    C2 8817   1.025   1.629  53.927 -0.6848 -0.5830 -0.7990
   86CHL1   H2A 8818   0.966   1.575  53.849  1.1367  1.9211 -4.1727
   86CHL1   H2B 8819   1.131   1.602  53.912 -0.4677 -0.9762  1.1158
   86CHL1   C20 8820   1.004   1.579  54.870  0.1211 -0.1131  0.8913
   86CHL1   H20 8821   1.101   1.630  54.888  0.2926  0.6285 -1.6855
   86CHL1   C21 8822   1.010   1.425  54.843 -1.0978 -0.1924  1.3725
   86CHL1  H21A 8823   1.097   1.408  54.777 -1.7198 -1.0597  0.7514
   86CHL1  H21B 8824   0.924   1.369  54.800 -1.8845  1.7899  0.2176
   86CHL1  H21C 8825   1.044   1.378  54.937  0.8592  0.1715  0.8939
   86CHL1   C22 8826   0.920   1.611  55.000 -0.0590 -0.6567 -0.2727
   86CHL1  H22A 8827   0.954   1.566  55.096 -2.5035 -0.9492  0.5342
   86CHL1  H22B 8828   0.942   1.719  55.008 -0.2147 -0.5506 -1.1697
   86CHL1   C23 8829   0.771   1.567  54.994  0.1559 -0.3981 -0.0564
   86CHL1  H23A 8830   0.726   1.625  54.911 -0.2495  1.3199  1.3057
   86CHL1  H23B 8831   0.780   1.463  54.956  3.3052 -0.5209  0.7370
   86CHL1   C24 8832   0.693   1.571  55.125  0.1150  0.0470  0.7165
   86CHL1  H24A 8833   0.762   1.527  55.200  1.3318  2.1782  0.9239
   86CHL1  H24B 8834   0.682   1.677  55.159  1.2622  0.5186 -0.2986
   86CHL1   C25 8835   0.566   1.483  55.146  0.2210 -0.1388 -0.6135
   86CHL1   H25 8836   0.599   1.378  55.135 -0.3953 -0.3211 -0.7695
   86CHL1   C26 8837   0.534   1.511  55.296  0.7522 -0.3183 -0.6009
   86CHL1  H26A 8838   0.628   1.519  55.354 -0.2164  2.3233  0.7927
   86CHL1  H26B 8839   0.483   1.609  55.305  1.0505 -0.0962 -1.2763
   86CHL1  H26C 8840   0.470   1.431  55.341 -0.0353  0.6143 -0.0165
   86CHL1   C27 8841   0.439   1.498  55.054  0.4301  0.6318 -0.0160
   86CHL1  H27A 8842   0.373   1.586  55.070  1.9258  2.1808 -1.7142
   86CHL1  H27B 8843   0.465   1.499  54.946 -1.0322 -0.3473 -0.4098
   86CHL1  H27C 8844   0.371   1.410  55.059  1.1757 -0.0363 -1.2263
   87CHL1    C3 8845   1.896   1.563  38.785 -0.7526 -1.1841  0.0078
   87CHL1    H3 8846   1.787   1.587  38.784 -1.0290 -2.3387  0.6447
   87CHL1    O3 8847   1.927   1.547  38.652 -0.1699 -0.1629  0.4016
   87CHL1   H3' 8848   1.872   1.472  38.629  0.0686  0.1393 -1.2917
   87CHL1    C4 8849   1.977   1.683  38.841  0.0627  0.4932 -0.3662
   87CHL1   H4A 8850   2.087   1.669  38.836 -0.1008 -0.6844 -1.3858
   87CHL1   H4B 8851   1.944   1.775  38.789  0.8453  0.1833 -1.4492
   87CHL1    C5 8852   1.938   1.698  38.991  0.2675  0.4982  0.1291
   87CHL1    C6 8853   1.878   1.811  39.036  0.8644 -0.2677 -0.4759
   87CHL1    H6 8854   1.871   1.907  38.981 -0.9235  1.4069  2.3888
   87CHL1    C7 8855   1.831   1.835  39.175 -0.0341 -0.7072  0.0814
   87CHL1   H7A 8856   1.869   1.934  39.208 -2.8063  0.3968  0.1881
   87CHL1   H7B 8857   1.721   1.846  39.174  0.1464  1.6360  0.5259
   87CHL1    C8 8858   1.882   1.731  39.279 -0.2625  1.3398  0.7343
   87CHL1    H8 8859   1.988   1.754  39.300  0.2519  1.5166 -1.8349
   87CHL1   C14 8860   1.806   1.744  39.408 -0.5812  0.4329  0.0327
   87CHL1   H14 8861   1.702   1.722  39.378 -0.7144  0.8593  0.1731
   87CHL1   C15 8862   1.800   1.883  39.474 -0.0548  0.1597  0.2307
   87CHL1  H15A 8863   1.897   1.938  39.469  0.7989 -1.3001  0.2329
   87CHL1  H15B 8864   1.709   1.930  39.431 -0.5416 -0.5894  0.4466
   87CHL1   C16 8865   1.764   1.853  39.620 -0.2799 -0.1157 -0.2495
   87CHL1  H16A 8866   1.836   1.906  39.686  1.2169  0.6927 -2.4220
   87CHL1  H16B 8867   1.663   1.894  39.643 -0.7347 -0.8223 -0.9227
   87CHL1   C17 8868   1.764   1.696  39.637 -0.5743 -0.1628  0.6144
   87CHL1   H17 8869   1.665   1.663  39.600 -0.1575 -1.8114  0.9255
   87CHL1   C13 8870   1.851   1.644  39.518 -0.2694  0.7921  0.7569
   87CHL1   C18 8871   1.996   1.662  39.563 -0.4991  0.3121 -0.6914
   87CHL1  H18A 8872   2.001   1.765  39.603 -0.7785  0.0845 -0.0502
   87CHL1  H18B 8873   2.016   1.596  39.651  1.4285 -0.6593 -1.7815
   87CHL1  H18C 8874   2.073   1.636  39.487  2.3868  1.2333  1.7282
   87CHL1   C12 8875   1.833   1.500  39.455  0.1084 -0.0973  0.9413
   87CHL1  H12A 8876   1.867   1.418  39.522 -2.6636 -2.4532 -0.3034
   87CHL1  H12B 8877   1.724   1.484  39.448  0.5307 -2.7284 -1.1821
   87CHL1   C11 8878   1.913   1.477  39.333 -0.8363 -0.0413  0.0331
   87CHL1  H11A 8879   2.020   1.484  39.362 -0.6912  1.5486 -0.7678
   87CHL1  H11B 8880   1.896   1.377  39.289  0.5980  0.9400 -3.0317
   87CHL1    C9 8881   1.881   1.588  39.227 -0.6911 -0.8070 -0.4948
   87CHL1    H9 8882   1.774   1.574  39.204 -0.3524 -1.0979 -1.9908
   87CHL1   C10 8883   1.955   1.571  39.088  0.3082  0.1419  0.4545
   87CHL1   C19 8884   2.112   1.547  39.099  0.6230 -0.6560 -0.3035
   87CHL1  H19A 8885   2.151   1.541  38.995  0.2642 -1.8477 -0.3815
   87CHL1  H19B 8886   2.153   1.631  39.160 -1.0129 -0.2299  0.2759
   87CHL1  H19C 8887   2.141   1.453  39.150  0.4543 -0.6510 -0.1970
   87CHL1    C1 8888   1.888   1.448  39.012 -0.6615  0.1370  0.3426
   87CHL1   H1A 8889   1.914   1.354  39.064 -1.1666 -0.1956  0.0067
   87CHL1   H1B 8890   1.778   1.464  39.018 -0.9270 -1.2707 -0.3630
   87CHL1    C2 8891   1.929   1.435  38.861 -0.3133  0.5162 -0.1257
   87CHL1   H2A 8892   1.892   1.342  38.812  0.6039  0.2434 -0.3030
   87CHL1   H2B 8893   2.039   1.426  38.855 -0.4360 -1.1293 -0.3954
   87CHL1   C20 8894   1.786   1.637  39.780 -0.1603  0.6577 -0.0893
   87CHL1   H20 8895   1.895   1.639  39.804  0.6134 -4.4886 -1.9045
   87CHL1   C21 8896   1.760   1.483  39.793 -0.6672  0.2093  0.9098
   87CHL1  H21A 8897   1.651   1.472  39.807 -0.2892 -0.8739  3.7771
   87CHL1  H21B 8898   1.798   1.442  39.889 -0.9731 -2.4187  0.0029
   87CHL1  H21C 8899   1.801   1.421  39.710  0.0752  1.6319  0.1730
   87CHL1   C22 8900   1.706   1.713  39.891 -0.2275 -0.8182  0.2267
   87CHL1  H22A 8901   1.705   1.820  39.861 -0.5577 -0.1654  2.3816
   87CHL1  H22B 8902   1.602   1.676  39.898 -1.1356  1.5651  0.2456
   87CHL1   C23 8903   1.777   1.702  40.025 -0.8517  0.3273 -0.4376
   87CHL1  H23A 8904   1.770   1.595  40.053 -0.2940 -0.0329 -1.6282
   87CHL1  H23B 8905   1.881   1.726  39.997  0.0836 -2.4678  0.2904
   87CHL1   C24 8906   1.723   1.798  40.140 -0.5960  0.2787  0.1723
   87CHL1  H24A 8907   1.630   1.755  40.186 -0.6874  0.7078  0.3938
   87CHL1  H24B 8908   1.805   1.791  40.214  2.2800  0.1628 -2.8069
   87CHL1   C25 8909   1.710   1.947  40.116  0.3852  0.4737  0.2026
   87CHL1   H25 8910   1.648   1.962  40.025  0.0691 -1.7298  0.0020
   87CHL1   C26 8911   1.646   2.012  40.238  0.6674  0.0767 -0.6458
   87CHL1  H26A 8912   1.571   1.969  40.309  1.5228 -0.0484  0.1989
   87CHL1  H26B 8913   1.737   2.023  40.300  0.3091  0.6961 -0.2176
   87CHL1  H26C 8914   1.603   2.115  40.235  1.5104  0.4901  0.5442
   87CHL1   C27 8915   1.847   2.005  40.082 -0.8043 -0.8605 -0.1798
   87CHL1  H27A 8916   1.873   1.979  39.977 -0.6984  1.1333 -0.6860
   87CHL1  H27B 8917   1.846   2.116  40.087  0.8423 -0.7841 -0.8832
   87CHL1  H27C 8918   1.916   1.961  40.156 -0.2582 -1.0804 -0.8048
   88CHL1    C3 8919   0.324   0.307  43.478  0.1078  0.8110  0.2159
   88CHL1    H3 8920   0.298   0.414  43.473 -3.6870 -0.0285 -2.2277
   88CHL1    O3 8921   0.214   0.239  43.408 -0.0859  0.2004  0.2412
   88CHL1   H3' 8922   0.245   0.202  43.325  1.9324 -0.3162  1.1605
   88CHL1    C4 8923   0.459   0.275  43.399  0.2154  0.4688  0.8352
   88CHL1   H4A 8924   0.476   0.165  43.395  1.2281  0.5620  1.9916
   88CHL1   H4B 8925   0.437   0.301  43.293  1.2524 -0.0015  0.4955
   88CHL1    C5 8926   0.581   0.344  43.458 -0.4236  0.0273  0.4699
   88CHL1    C6 8927   0.661   0.429  43.387 -0.0636 -0.2627 -0.1013
   88CHL1    H6 8928   0.643   0.451  43.281  0.5002 -0.3207 -0.2119
   88CHL1    C7 8929   0.788   0.490  43.438  0.3309  0.4703  0.1047
   88CHL1   H7A 8930   0.865   0.489  43.358 -0.0998 -1.9774 -0.3734
   88CHL1   H7B 8931   0.770   0.598  43.459  0.6390  1.0849 -2.4355
   88CHL1    C8 8932   0.833   0.432  43.572  0.1306 -0.0238  0.9096
   88CHL1    H8 8933   0.869   0.330  43.548 -0.6104  0.5055 -3.2755
   88CHL1   C14 8934   0.945   0.509  43.630  0.5010  0.2574  0.2904
   88CHL1   H14 8935   0.903   0.611  43.643  1.0957  0.6223 -0.5402
   88CHL1   C15 8936   1.078   0.520  43.551 -0.4871 -1.1174 -0.1303
   88CHL1  H15A 8937   1.124   0.430  43.505 -1.2727 -0.1795 -2.9494
   88CHL1  H15B 8938   1.076   0.595  43.469  2.1748 -0.0339  0.6649
   88CHL1   C16 8939   1.176   0.568  43.658  0.3320  0.3115  0.5408
   88CHL1  H16A 8940   1.252   0.488  43.666  0.5657  0.4461 -0.2331
   88CHL1  H16B 8941   1.229   0.664  43.641  0.6057  0.4633  2.1013
   88CHL1   C17 8942   1.099   0.570  43.792 -0.2615  0.8354  0.1545
   88CHL1   H17 8943   1.051   0.668  43.812 -0.3996  1.0559 -1.1978
   88CHL1   C13 8944   0.985   0.467  43.771 -0.2591  0.8888  0.5193
   88CHL1   C18 8945   1.045   0.325  43.786  0.4196 -0.5055 -0.1815
   88CHL1  H18A 8946   0.978   0.246  43.746 -1.1582  0.5515  0.3238
   88CHL1  H18B 8947   1.138   0.316  43.725  0.7129 -5.0436  0.5747
   88CHL1  H18C 8948   1.058   0.305  43.894  0.2616  0.3929  0.0051
   88CHL1   C12 8949   0.865   0.474  43.862 -0.3384 -0.1269  0.3555
   88CHL1  H12A 8950   0.871   0.426  43.962 -0.6001 -0.4860  0.1996
   88CHL1  H12B 8951   0.823   0.577  43.871 -0.9011 -0.2532 -0.6579
   88CHL1   C11 8952   0.742   0.390  43.809  0.1503  0.3194  0.3664
   88CHL1  H11A 8953   0.777   0.288  43.835  0.7090  0.3368 -0.2933
   88CHL1  H11B 8954   0.655   0.420  43.871  0.4288  4.1869 -0.8609
   88CHL1    C9 8955   0.711   0.417  43.664  0.8132 -0.9222 -0.1884
   88CHL1    H9 8956   0.663   0.517  43.663  0.2831 -1.1292 -2.2970
   88CHL1   C10 8957   0.595   0.322  43.608  0.3336 -0.4381 -0.8239
   88CHL1   C19 8958   0.648   0.174  43.618  0.2364  0.4279 -0.1523
   88CHL1  H19A 8959   0.564   0.113  43.578  0.1976  1.4588 -1.7156
   88CHL1  H19B 8960   0.739   0.140  43.564  2.4897  1.3562  2.8068
   88CHL1  H19C 8961   0.645   0.136  43.722 -0.5095 -2.8153 -1.2212
   88CHL1    C1 8962   0.454   0.338  43.680 -0.4078 -0.2746 -0.1723
   88CHL1   H1A 8963   0.462   0.317  43.789  0.7144  0.1391 -0.1647
   88CHL1   H1B 8964   0.418   0.443  43.671 -0.4696 -0.4453 -2.6905
   88CHL1    C2 8965   0.345   0.253  43.620  0.2730 -0.6971 -0.5002
   88CHL1   H2A 8966   0.246   0.244  43.670 -0.6221  0.1213 -2.0342
   88CHL1   H2B 8967   0.363   0.144  43.617 -1.6842 -1.0540 -1.1753
   88CHL1   C20 8968   1.190   0.559  43.919 -0.5680 -0.1873  0.6417
   88CHL1   H20 8969   1.234   0.457  43.913 -2.1301 -0.9164  1.0105
   88CHL1   C21 8970   1.120   0.583  44.052  0.3678 -0.2936 -1.1640
   88CHL1  H21A 8971   1.066   0.680  44.059 -0.3422 -0.7281 -0.4667
   88CHL1  H21B 8972   1.188   0.575  44.139 -0.4493  1.5866 -0.2792
   88CHL1  H21C 8973   1.044   0.504  44.069  1.3992 -1.0679 -0.0332
   88CHL1   C22 8974   1.306   0.664  43.902 -0.1778  0.3139  0.1817
   88CHL1  H22A 8975   1.394   0.635  43.964 -0.5636  0.1761  0.6705
   88CHL1  H22B 8976   1.363   0.648  43.808  0.6914 -0.9483  0.8948
   88CHL1   C23 8977   1.273   0.812  43.915 -0.3855  0.8647 -0.0881
   88CHL1  H23A 8978   1.187   0.831  43.847 -0.7592  0.9485  0.4051
   88CHL1  H23B 8979   1.242   0.831  44.019  3.0925 -1.8042  1.6585
   88CHL1   C24 8980   1.392   0.894  43.875 -0.1971 -0.3193 -0.2163
   88CHL1  H24A 8981   1.471   0.890  43.954  0.3486  1.0394 -0.6557
   88CHL1  H24B 8982   1.445   0.860  43.784  0.3536  0.8550 -0.3548
   88CHL1   C25 8983   1.357   1.043  43.859 -0.2088 -0.3601  0.7510
   88CHL1   H25 8984   1.312   1.081  43.954 -1.5071 -2.0134  0.8635
   88CHL1   C26 8985   1.478   1.139  43.839  0.3022  0.8986 -0.0613
   88CHL1  H26A 8986   1.554   1.108  43.913 -0.9913 -1.5466  0.3794
   88CHL1  H26B 8987   1.525   1.121  43.739 -2.1578  0.8981 -1.3060
   88CHL1  H26C 8988   1.462   1.245  43.866 -2.7052  1.0508 -1.9300
   88CHL1   C27 8989   1.267   1.059  43.735  0.0450 -0.0057  0.1918
   88CHL1  H27A 8990   1.171   1.004  43.724  0.7260 -1.2685  0.3664
   88CHL1  H27B 8991   1.249   1.166  43.710 -1.2377  0.7224  3.7219
   88CHL1  H27C 8992   1.329   1.024  43.650  1.8882  1.7399  0.7338
   89CHL1    C3 8993   1.343   1.804  47.087  0.7403 -0.3539 -0.2734
   89CHL1    H3 8994   1.401   1.745  47.013 -1.6398 -2.5323 -0.5358
   89CHL1    O3 8995   1.427   1.808  47.199 -0.0325 -0.1730  0.4674
   89CHL1   H3' 8996   1.442   1.714  47.215 -3.2350 -0.8559  0.1894
   89CHL1    C4 8997   1.298   1.945  47.045  0.6878  0.6503 -0.4909
   89CHL1   H4A 8998   1.262   2.004  47.133  0.1648  0.2061 -0.4062
   89CHL1   H4B 8999   1.388   1.997  47.005  0.5214  1.2813 -0.0660
   89CHL1    C5 9000   1.200   1.949  46.930  0.6290  1.0301  0.0362
   89CHL1    C6 9001   1.222   2.028  46.815 -0.3660  0.3731 -0.7237
   89CHL1    H6 9002   1.310   2.093  46.818 -0.7995  0.9659  2.0735
   89CHL1    C7 9003   1.132   2.039  46.695  0.2200 -0.3870  0.3115
   89CHL1   H7A 9004   1.090   2.142  46.688  2.3910  0.6346  1.3597
   89CHL1   H7B 9005   1.175   2.011  46.597  0.1039  1.2040 -0.2262
   89CHL1    C8 9006   1.001   1.964  46.723 -0.3281  0.6378 -0.7709
   89CHL1    H8 9007   0.936   2.024  46.790  2.1269 -0.5624  2.9449
   89CHL1   C14 9008   0.929   1.932  46.586  0.0027  0.0942 -0.2718
   89CHL1   H14 9009   0.988   1.854  46.534 -0.0359 -0.3903  0.3983
   89CHL1   C15 9010   0.924   2.051  46.483  0.2033  0.2857  0.2436
   89CHL1  H15A 9011   0.932   2.152  46.528 -1.9209  1.1045 -1.0588
   89CHL1  H15B 9012   1.016   2.028  46.426  1.0829 -1.1094  2.1016
   89CHL1   C16 9013   0.788   2.027  46.402 -0.7961  1.1631 -0.3043
   89CHL1  H16A 9014   0.714   2.100  46.442 -2.3833 -0.4333 -0.2013
   89CHL1  H16B 9015   0.808   2.025  46.293 -2.0305 -0.8657 -0.5561
   89CHL1   C17 9016   0.732   1.888  46.460 -0.1029 -0.2879  0.6850
   89CHL1   H17 9017   0.791   1.805  46.416 -2.3191 -2.2173  1.1516
   89CHL1   C13 9018   0.783   1.888  46.604 -0.0171  0.3149 -0.4301
   89CHL1   C18 9019   0.681   1.960  46.694 -0.2670  0.1936  0.5735
   89CHL1  H18A 9020   0.653   2.062  46.659  1.1868  0.7727  1.0236
   89CHL1  H18B 9021   0.584   1.906  46.683  0.0823 -0.7495  1.9350
   89CHL1  H18C 9022   0.714   1.956  46.800 -1.7745 -1.8913  1.0446
   89CHL1   C12 9023   0.798   1.745  46.672  0.1745 -0.3999  0.0314
   89CHL1  H12A 9024   0.705   1.688  46.694 -0.5539  0.5455 -0.5127
   89CHL1  H12B 9025   0.849   1.664  46.614 -2.6841 -2.3898  0.0752
   89CHL1   C11 9026   0.882   1.755  46.804  0.8541  0.5662 -0.4798
   89CHL1  H11A 9027   0.818   1.783  46.889  0.3635  1.5003 -1.1451
   89CHL1  H11B 9028   0.919   1.652  46.827 -2.8954 -1.0100 -0.8290
   89CHL1    C9 9029   1.014   1.834  46.804  0.0086 -0.4403 -0.0311
   89CHL1    H9 9030   1.088   1.776  46.744 -1.0098 -1.1401 -0.6388
   89CHL1   C10 9031   1.078   1.849  46.943  0.2362  0.2751  0.1824
   89CHL1   C19 9032   0.973   1.912  47.047  0.7051 -0.1014  1.1272
   89CHL1  H19A 9033   0.913   1.984  46.988 -0.0474  0.7347  2.8325
   89CHL1  H19B 9034   0.890   1.844  47.077 -1.8088  2.0989 -0.3320
   89CHL1  H19C 9035   1.020   1.955  47.138  0.8347  1.5914  0.2961
   89CHL1    C1 9036   1.131   1.709  46.980  0.0993 -0.1880 -0.4605
   89CHL1   H1A 9037   1.043   1.643  46.995  0.0291  0.0274  0.0846
   89CHL1   H1B 9038   1.189   1.660  46.899 -0.0589 -2.0694  0.4940
   89CHL1    C2 9039   1.214   1.723  47.112  0.0742  0.7642 -0.9057
   89CHL1   H2A 9040   1.240   1.619  47.140 -1.6539  0.6314  0.3702
   89CHL1   H2B 9041   1.163   1.766  47.201  1.4524 -1.2832  0.9845
   89CHL1   C20 9042   0.586   1.853  46.418 -0.0776 -0.2425 -0.2631
   89CHL1   H20 9043   0.532   1.927  46.479  2.6899 -0.0601  2.2155
   89CHL1   C21 9044   0.554   1.705  46.451 -0.1281  0.7850 -0.4206
   89CHL1  H21A 9045   0.561   1.690  46.561  0.1415  3.3003 -0.0421
   89CHL1  H21B 9046   0.619   1.629  46.402  1.3854  0.8823  1.3158
   89CHL1  H21C 9047   0.457   1.665  46.416  1.3818  1.0649 -5.9026
   89CHL1   C22 9048   0.552   1.890  46.272  0.7387 -0.4104  0.1192
   89CHL1  H22A 9049   0.442   1.877  46.263  0.4744  1.0252  1.0304
   89CHL1  H22B 9050   0.571   1.994  46.236 -0.0226 -0.4379 -0.3939
   89CHL1   C23 9051   0.617   1.814  46.167  0.5629 -0.1090  0.4242
   89CHL1  H23A 9052   0.727   1.822  46.181  0.4756  2.7443 -0.0044
   89CHL1  H23B 9053   0.587   1.708  46.183 -0.8821  0.3182  0.6068
   89CHL1   C24 9054   0.595   1.857  46.019 -0.0196 -0.3956 -0.3599
   89CHL1  H24A 9055   0.609   1.966  46.008  1.1759 -0.5432 -0.4025
   89CHL1  H24B 9056   0.668   1.800  45.958  1.9365 -1.7424  2.9876
   89CHL1   C25 9057   0.455   1.828  45.957  0.2261 -0.3112  0.2239
   89CHL1   H25 9058   0.380   1.849  46.036  1.1623  3.1974  0.3526
   89CHL1   C26 9059   0.437   1.908  45.824  0.0489 -0.0502 -1.1844
   89CHL1  H26A 9060   0.418   2.012  45.859 -2.1067 -0.6290 -0.4503
   89CHL1  H26B 9061   0.524   1.886  45.759 -1.0124 -0.8621 -2.3577
   89CHL1  H26C 9062   0.351   1.864  45.769  1.2785 -0.9872 -2.4298
   89CHL1   C27 9063   0.434   1.673  45.925 -0.9761 -0.6869  0.7025
   89CHL1  H27A 9064   0.448   1.631  46.026 -0.6179  0.9064  1.3531
   89CHL1  H27B 9065   0.331   1.650  45.889 -0.3518 -0.7105 -1.2031
   89CHL1  H27C 9066   0.514   1.632  45.859 -0.5516  2.7600 -1.1728
   90CHL1    C3 9067   0.576   2.269  53.654  0.5528 -0.2776  0.4370
   90CHL1    H3 9068   0.470   2.304  53.646  0.4938 -0.9057 -3.6939
   90CHL1    O3 9069   0.640   2.314  53.534 -0.4216  0.3659 -0.1202
   90CHL1   H3' 9070   0.729   2.278  53.536 -0.4593  0.1161 -1.6793
   90CHL1    C4 9071   0.647   2.321  53.775 -0.2835 -0.8923  0.5313
   90CHL1   H4A 9072   0.755   2.295  53.773  0.0068  0.2899 -0.0427
   90CHL1   H4B 9073   0.650   2.429  53.748  0.6145 -1.1091 -0.2773
   90CHL1    C5 9074   0.586   2.270  53.910  0.6390 -0.0775  1.0967
   90CHL1    C6 9075   0.534   2.354  53.996  0.7198 -0.0832 -0.7806
   90CHL1    H6 9076   0.560   2.461  53.995 -0.4124  0.2409  0.6702
   90CHL1    C7 9077   0.482   2.300  54.124 -0.1505 -0.0693 -0.4998
   90CHL1   H7A 9078   0.513   2.372  54.203 -0.8895 -0.7050  0.3812
   90CHL1   H7B 9079   0.371   2.307  54.119 -0.0813  1.0869 -0.8407
   90CHL1    C8 9080   0.505   2.149  54.162 -0.1702 -0.3054 -0.3352
   90CHL1    H8 9081   0.608   2.129  54.198 -0.3497  2.2621  1.8783
   90CHL1   C14 9082   0.415   2.097  54.276  0.0810  0.9439 -0.3024
   90CHL1   H14 9083   0.309   2.106  54.247  0.3463  0.7779 -1.3685
   90CHL1   C15 9084   0.396   2.173  54.402 -0.4309 -0.3491  0.9216
   90CHL1  H15A 9085   0.487   2.220  54.445 -0.5236 -1.1878  2.0914
   90CHL1  H15B 9086   0.321   2.255  54.389 -2.1019 -2.1475 -1.9207
   90CHL1   C16 9087   0.323   2.076  54.504  0.3398  0.1118  0.1796
   90CHL1  H16A 9088   0.378   2.066  54.600 -1.0184  0.9737  1.0645
   90CHL1  H16B 9089   0.228   2.123  54.535  1.2908  2.5724 -0.4226
   90CHL1   C17 9090   0.325   1.935  54.425  0.2321 -0.8690  0.3691
   90CHL1   H17 9091   0.224   1.905  54.389  0.0501 -2.3518  1.9800
   90CHL1   C13 9092   0.429   1.952  54.317  0.7848 -0.3990  0.2052
   90CHL1   C18 9093   0.577   1.924  54.374 -0.5744 -0.6141 -0.0802
   90CHL1  H18A 9094   0.592   1.815  54.386 -1.0660 -0.7276 -0.4566
   90CHL1  H18B 9095   0.660   1.973  54.319  2.1965 -2.0590  2.5270
   90CHL1  H18C 9096   0.575   1.983  54.468 -1.7463 -2.0259  0.8117
   90CHL1   C12 9097   0.401   1.864  54.199  1.0457 -0.9120 -0.5238
   90CHL1  H12A 9098   0.420   1.756  54.215 -1.7940 -1.2651  1.1663
   90CHL1  H12B 9099   0.296   1.878  54.165  1.4104  3.7201 -0.3648
   90CHL1   C11 9100   0.495   1.907  54.081  0.4912 -0.2033  0.3640
   90CHL1  H11A 9101   0.602   1.881  54.094  0.5088 -2.4568 -3.1034
   90CHL1  H11B 9102   0.460   1.850  53.993 -1.6193  0.9243  0.4026
   90CHL1    C9 9103   0.482   2.061  54.039  0.7308  0.6429 -0.1072
   90CHL1    H9 9104   0.377   2.079  54.007  1.4938  2.5547 -1.7133
   90CHL1   C10 9105   0.571   2.113  53.920  0.8190 -0.1015  0.7077
   90CHL1   C19 9106   0.713   2.059  53.924  0.5696 -0.6779  0.3832
   90CHL1  H19A 9107   0.769   2.122  53.852 -1.9387  1.6206  0.2576
   90CHL1  H19B 9108   0.760   2.073  54.024 -1.9168  0.2765  1.5157
   90CHL1  H19C 9109   0.696   1.954  53.893 -0.0723 -0.4479 -0.0634
   90CHL1    C1 9110   0.503   2.068  53.777 -0.6935 -0.4524 -0.5226
   90CHL1   H1A 9111   0.492   1.958  53.762 -2.8020 -0.1390 -1.6092
   90CHL1   H1B 9112   0.398   2.104  53.773  0.2052  2.2294 -1.6687
   90CHL1    C2 9113   0.578   2.120  53.654  0.6096 -0.0559 -1.1664
   90CHL1   H2A 9114   0.525   2.082  53.564  2.7077 -2.8311 -1.3991
   90CHL1   H2B 9115   0.682   2.081  53.660 -0.4972 -3.1818  4.0169
   90CHL1   C20 9116   0.354   1.825  54.529 -0.0799  0.5219 -0.3211
   90CHL1   H20 9117   0.453   1.833  54.579 -0.2378  1.7981 -0.1803
   90CHL1   C21 9118   0.338   1.680  54.469  0.3111  0.1497 -0.0589
   90CHL1  H21A 9119   0.242   1.690  54.415  0.0900 -2.1613 -0.1660
   90CHL1  H21B 9120   0.312   1.623  54.561  1.3483  0.9103  0.7410
   90CHL1  H21C 9121   0.420   1.635  54.410  1.5571  1.9214  0.2446
   90CHL1   C22 9122   0.254   1.819  54.647  0.0153 -1.7368 -0.1149
   90CHL1  H22A 9123   0.197   1.914  54.656  0.1715 -1.8057  2.3228
   90CHL1  H22B 9124   0.173   1.749  54.618 -3.8743  2.9854 -1.9306
   90CHL1   C23 9125   0.310   1.782  54.785 -0.9148 -0.8601 -0.5314
   90CHL1  H23A 9126   0.280   1.678  54.812 -0.8352 -1.1229 -1.4160
   90CHL1  H23B 9127   0.419   1.774  54.765 -1.4266 -4.0996 -2.9306
   90CHL1   C24 9128   0.283   1.880  54.898 -1.0299  0.1365 -0.2383
   90CHL1  H24A 9129   0.267   1.980  54.851 -1.6508  1.0861  1.9090
   90CHL1  H24B 9130   0.193   1.852  54.956 -1.0007  2.3030  0.9324
   90CHL1   C25 9131   0.395   1.888  55.012 -0.5110 -0.5453 -0.2132
   90CHL1   H25 9132   0.424   1.782  55.027 -0.7061 -0.6493 -0.5546
   90CHL1   C26 9133   0.508   1.972  54.958 -0.0999  0.5110 -0.2138
   90CHL1  H26A 9134   0.490   2.004  54.853 -0.5467 -1.3432 -0.7363
   90CHL1  H26B 9135   0.517   2.054  55.033  0.8069 -0.7743  1.1402
   90CHL1  H26C 9136   0.612   1.934  54.969  0.7473  2.8320  0.4202
   90CHL1   C27 9137   0.334   1.933  55.145  0.5101 -0.5703 -0.2934
   90CHL1  H27A 9138   0.407   1.927  55.229  1.7232 -0.8965 -1.3484
   90CHL1  H27B 9139   0.308   2.040  55.130  1.3399 -0.1520  1.0568
   90CHL1  H27C 9140   0.248   1.864  55.159  0.9122 -0.9127  0.5797
   91CHL1    C3 9141   0.007   1.205  52.918 -0.1021  0.1920 -0.2118
   91CHL1    H3 9142   0.059   1.139  52.991 -1.1357  1.5351  1.8333
   91CHL1    O3 9143   0.053   1.153  52.796 -0.2597  0.5581 -0.9106
   91CHL1   H3' 9144   0.145   1.180  52.787  0.3515 -1.1536 -0.2394
   91CHL1    C4 9145  -0.144   1.182  52.942 -0.1820  0.2284  0.1186
   91CHL1   H4A 9146  -0.190   1.220  52.848 -0.3586 -1.9272 -0.7319
   91CHL1   H4B 9147  -0.171   1.074  52.946 -2.7022  0.5733 -2.8988
   91CHL1    C5 9148  -0.186   1.257  53.068  0.1167 -0.1229 -0.3704
   91CHL1    C6 9149  -0.247   1.189  53.171  0.4647  0.8309  0.1105
   91CHL1    H6 9150  -0.254   1.080  53.160 -2.0640  0.8683  0.6549
   91CHL1    C7 9151  -0.305   1.247  53.299 -0.7474 -0.1393 -0.1209
   91CHL1   H7A 9152  -0.405   1.212  53.333 -0.2636 -0.6786  0.7881
   91CHL1   H7B 9153  -0.227   1.227  53.376 -1.8455  0.5719  1.2283
   91CHL1    C8 9154  -0.307   1.405  53.295 -0.3373  0.8855  0.6827
   91CHL1    H8 9155  -0.391   1.448  53.237  0.5580  2.0529  0.2068
   91CHL1   C14 9156  -0.310   1.464  53.432 -0.8079  1.2525 -0.5307
   91CHL1   H14 9157  -0.216   1.439  53.485 -1.3825  1.4015  0.5979
   91CHL1   C15 9158  -0.413   1.416  53.521  0.0606 -0.0047 -0.4153
   91CHL1  H15A 9159  -0.511   1.419  53.468 -1.9902  0.1434  3.0398
   91CHL1  H15B 9160  -0.398   1.313  53.561 -1.2419 -0.2813 -0.5897
   91CHL1   C16 9161  -0.434   1.520  53.627 -0.0196 -0.4634  0.2100
   91CHL1  H16A 9162  -0.538   1.559  53.637 -0.4788 -1.5584 -0.1844
   91CHL1  H16B 9163  -0.400   1.486  53.727  3.0738 -3.6994 -1.7352
   91CHL1   C17 9164  -0.337   1.641  53.587  0.2248 -0.0083 -0.9487
   91CHL1   H17 9165  -0.246   1.620  53.647 -0.4912  1.1263  0.6224
   91CHL1   C13 9166  -0.309   1.617  53.444 -0.4779 -0.4423 -0.4972
   91CHL1   C18 9167  -0.426   1.672  53.359 -0.4910  0.0265  0.3225
   91CHL1  H18A 9168  -0.404   1.656  53.251 -1.6048 -2.8538  0.4182
   91CHL1  H18B 9169  -0.527   1.634  53.384 -0.5157 -0.5195 -0.5345
   91CHL1  H18C 9170  -0.417   1.782  53.367 -0.6763  0.3059 -2.2603
   91CHL1   C12 9171  -0.165   1.670  53.398 -0.9997 -0.1635  0.9063
   91CHL1  H12A 9172  -0.160   1.777  53.370  1.4781 -0.2247  0.9255
   91CHL1  H12B 9173  -0.080   1.647  53.465  1.0511 -2.6212 -2.2186
   91CHL1   C11 9174  -0.136   1.606  53.258 -0.0641  0.4113 -0.1647
   91CHL1  H11A 9175  -0.193   1.666  53.184  0.0666  0.3166 -0.3410
   91CHL1  H11B 9176  -0.026   1.609  53.240 -0.0473  0.2793 -0.0807
   91CHL1    C9 9177  -0.172   1.457  53.230 -0.4848 -0.3353 -0.3573
   91CHL1    H9 9178  -0.089   1.414  53.288  1.7280 -0.0743 -3.0981
   91CHL1   C10 9179  -0.154   1.407  53.084 -0.2251  0.1880 -0.5659
   91CHL1   C19 9180  -0.232   1.504  53.004 -0.4927 -0.1200 -0.0767
   91CHL1  H19A 9181  -0.332   1.507  53.053 -0.6892  1.2033 -0.5143
   91CHL1  H19B 9182  -0.177   1.600  52.995  2.4627 -1.6342  0.7197
   91CHL1  H19C 9183  -0.245   1.458  52.904 -0.9811 -0.0502 -0.0473
   91CHL1    C1 9184  -0.005   1.425  53.049 -0.6146  0.1878  0.4702
   91CHL1   H1A 9185   0.012   1.534  53.033 -2.6917  0.2739 -1.8764
   91CHL1   H1B 9186   0.066   1.393  53.128  1.1814  0.6144 -0.9154
   91CHL1    C2 9187   0.046   1.354  52.920  0.1132  0.0746  0.1148
   91CHL1   H2A 9188   0.155   1.376  52.911 -0.5800  3.3449 -2.0439
   91CHL1   H2B 9189  -0.006   1.404  52.836  1.2645 -1.9022 -1.8916
   91CHL1   C20 9190  -0.395   1.779  53.635  0.3706  0.4269  0.2750
   91CHL1   H20 9191  -0.496   1.785  53.589 -1.7525  0.6642  4.4929
   91CHL1   C21 9192  -0.293   1.887  53.591  0.4131 -0.1984  0.3241
   91CHL1  H21A 9193  -0.189   1.878  53.629 -0.2537  1.7104  2.8370
   91CHL1  H21B 9194  -0.345   1.984  53.602 -2.6592 -1.6826 -0.1728
   91CHL1  H21C 9195  -0.288   1.881  53.480 -4.0656  0.1960 -0.0666
   91CHL1   C22 9196  -0.431   1.787  53.780  0.4119 -0.0454 -0.2633
   91CHL1  H22A 9197  -0.434   1.897  53.794 -1.4442 -0.2150  1.0073
   91CHL1  H22B 9198  -0.528   1.739  53.805 -0.2276 -0.1227 -2.6215
   91CHL1   C23 9199  -0.337   1.737  53.888 -0.8763 -0.0664 -1.2776
   91CHL1  H23A 9200  -0.331   1.626  53.893 -1.2239 -0.0276  0.8582
   91CHL1  H23B 9201  -0.232   1.771  53.876  0.1860 -1.7569  1.9633
   91CHL1   C24 9202  -0.384   1.774  54.030  0.2159 -0.3265  0.6064
   91CHL1  H24A 9203  -0.380   1.882  54.054 -2.3773 -0.1556  0.5444
   91CHL1  H24B 9204  -0.490   1.740  54.032  0.0459 -0.4026 -2.9418
   91CHL1   C25 9205  -0.299   1.711  54.140  0.7511 -0.5426  0.6553
   91CHL1   H25 9206  -0.192   1.687  54.118  0.3510 -2.4459  0.6205
   91CHL1   C26 9207  -0.300   1.810  54.262  0.3235  0.3654 -0.1600
   91CHL1  H26A 9208  -0.410   1.816  54.273  0.3687  0.5756  0.1979
   91CHL1  H26B 9209  -0.239   1.763  54.342  2.2567  3.0928  0.1364
   91CHL1  H26C 9210  -0.271   1.915  54.238  0.4859  0.3870  0.1195
   91CHL1   C27 9211  -0.369   1.584  54.186 -0.1382  0.5954 -0.2805
   91CHL1  H27A 9212  -0.461   1.613  54.241  0.4674  1.2601  0.4106
   91CHL1  H27B 9213  -0.384   1.514  54.102  0.6946  1.5394 -1.2415
   91CHL1  H27C 9214  -0.304   1.525  54.255 -0.9153 -0.0911 -0.1270
   92CHL1    C3 9215   2.107   0.264  43.069 -0.7516 -0.0525  0.0083
   92CHL1    H3 9216   2.152   0.260  42.967  1.3697 -0.6351  0.9092
   92CHL1    O3 9217   2.083   0.140  43.120 -0.2218  0.0779  0.4131
   92CHL1   H3' 9218   1.992   0.137  43.152 -0.6000  0.7262 -0.5694
   92CHL1    C4 9219   2.201   0.338  43.164 -0.3623 -0.3283  0.0911
   92CHL1   H4A 9220   2.145   0.351  43.260  1.2346 -0.4257  1.0734
   92CHL1   H4B 9221   2.302   0.297  43.185  0.5809  2.1503  0.7469
   92CHL1    C5 9222   2.228   0.477  43.110  0.0138 -0.1941  0.3249
   92CHL1    C6 9223   2.349   0.536  43.106  0.6261 -0.6894  0.0459
   92CHL1    H6 9224   2.433   0.482  43.151  1.1215  0.0043 -0.0461
   92CHL1    C7 9225   2.380   0.675  43.058 -0.2082 -0.4352 -0.9687
   92CHL1   H7A 9226   2.423   0.733  43.143  0.3760 -2.0561 -0.0970
   92CHL1   H7B 9227   2.467   0.676  42.988  0.8523  1.4976  0.2839
   92CHL1    C8 9228   2.252   0.767  43.036  0.3788  0.0253  0.2256
   92CHL1    H8 9229   2.220   0.796  43.138 -1.9086 -1.5298  0.0302
   92CHL1   C14 9230   2.282   0.888  42.953 -0.7436  0.0232 -0.7385
   92CHL1   H14 9231   2.284   0.854  42.847 -2.5469 -1.5763 -0.3289
   92CHL1   C15 9232   2.419   0.967  42.969  0.3351  0.0204  0.0043
   92CHL1  H15A 9233   2.453   0.974  43.074 -4.1050  0.6689  1.6025
   92CHL1  H15B 9234   2.500   0.918  42.910  1.3690  0.0528  1.3513
   92CHL1   C16 9235   2.398   1.106  42.921 -0.0349 -0.1338 -0.0094
   92CHL1  H16A 9236   2.402   1.179  43.005  1.2454 -0.0842 -0.0898
   92CHL1  H16B 9237   2.475   1.144  42.850  0.4390 -2.4394 -0.8109
   92CHL1   C17 9238   2.255   1.097  42.860  0.3199 -0.1589 -0.4113
   92CHL1   H17 9239   2.281   1.066  42.756  0.0222  2.4318 -1.3479
   92CHL1   C13 9240   2.179   0.996  42.946  0.0454  0.0439 -0.2526
   92CHL1   C18 9241   2.159   1.051  43.088 -0.2247  0.1559 -0.1480
   92CHL1  H18A 9242   2.075   1.124  43.094 -2.1395 -1.9395  0.0821
   92CHL1  H18B 9243   2.130   0.978  43.167  0.3860 -0.3646 -0.3982
   92CHL1  H18C 9244   2.254   1.104  43.111  0.3679 -0.0867 -1.9334
   92CHL1   C12 9245   2.056   0.915  42.890  0.1236 -0.9993  0.1590
   92CHL1  H12A 9246   1.972   0.987  42.886  1.6620  0.9036  0.4508
   92CHL1  H12B 9247   2.079   0.885  42.785  0.8942  0.3023 -0.0716
   92CHL1   C11 9248   2.019   0.792  42.966 -0.2873 -1.0018 -0.1976
   92CHL1  H11A 9249   1.982   0.833  43.063 -0.1252 -1.9142  0.2656
   92CHL1  H11B 9250   1.930   0.745  42.919 -0.7463  0.7202 -1.1125
   92CHL1    C9 9251   2.130   0.688  42.986 -0.2434  0.1784  0.0918
   92CHL1    H9 9252   2.154   0.632  42.893  0.7979  0.8857 -0.0817
   92CHL1   C10 9253   2.097   0.558  43.067 -0.0483  0.5224 -0.1644
   92CHL1   C19 9254   2.046   0.604  43.209  0.3919  0.1216 -0.2103
   92CHL1  H19A 9255   2.027   0.520  43.279 -1.0707  0.6672  0.0850
   92CHL1  H19B 9256   2.115   0.675  43.259 -1.7432  0.3004  2.7548
   92CHL1  H19C 9257   1.948   0.645  43.178  0.3179 -0.2497 -0.4775
   92CHL1    C1 9258   2.000   0.468  42.994  1.2599  0.1689 -0.3386
   92CHL1   H1A 9259   1.905   0.525  42.987  0.3478 -1.4618 -3.0820
   92CHL1   H1B 9260   2.023   0.456  42.886 -0.6002  2.3236 -1.0451
   92CHL1    C2 9261   1.974   0.332  43.054 -0.6876  0.0188 -0.4017
   92CHL1   H2A 9262   1.904   0.285  42.981 -0.6070  0.9577 -1.0925
   92CHL1   H2B 9263   1.925   0.338  43.153  1.6077  3.5205  0.7031
   92CHL1   C20 9264   2.186   1.236  42.854 -0.0191 -0.2057  0.0212
   92CHL1   H20 9265   2.188   1.281  42.956  3.4826 -0.8600  0.3869
   92CHL1   C21 9266   2.040   1.230  42.795  1.2008 -0.4994 -0.9911
   92CHL1  H21A 9267   1.964   1.197  42.868  1.1876  1.2960 -0.1335
   92CHL1  H21B 9268   2.038   1.156  42.712 -0.8679  1.1438 -2.4984
   92CHL1  H21C 9269   2.006   1.328  42.755  1.1923  0.1028  0.4268
   92CHL1   C22 9270   2.267   1.334  42.760  0.6701  0.5734 -0.7094
   92CHL1  H22A 9271   2.220   1.433  42.780  1.4723  0.4197  2.4176
   92CHL1  H22B 9272   2.363   1.335  42.815 -0.5899 -2.4074  1.8778
   92CHL1   C23 9273   2.282   1.297  42.616 -0.2479  0.2507  0.2100
   92CHL1  H23A 9274   2.332   1.198  42.612 -1.5564 -0.4150 -2.7690
   92CHL1  H23B 9275   2.185   1.301  42.562 -0.9006 -0.7494  1.2599
   92CHL1   C24 9276   2.389   1.391  42.553  0.8162  0.1839  0.4868
   92CHL1  H24A 9277   2.351   1.494  42.565 -0.4729 -0.2192  0.0487
   92CHL1  H24B 9278   2.477   1.381  42.619  2.4456 -4.5378 -1.8953
   92CHL1   C25 9279   2.428   1.356  42.407  0.6243 -0.3568 -0.1350
   92CHL1   H25 9280   2.460   1.249  42.409  1.4303 -0.1405 -0.7537
   92CHL1   C26 9281   2.323   1.365  42.305 -0.2198  0.1576  0.7202
   92CHL1  H26A 9282   2.248   1.285  42.324 -2.7480  2.4608  0.9659
   92CHL1  H26B 9283   2.272   1.463  42.309  2.6748  1.7617  0.4520
   92CHL1  H26C 9284   2.364   1.362  42.202 -3.1721 -2.4690 -0.5639
   92CHL1   C27 9285   2.559   1.423  42.363 -0.6503 -0.6699 -0.0663
   92CHL1  H27A 9286   2.645   1.406  42.431  0.3250 -0.8317 -1.2961
   92CHL1  H27B 9287   2.590   1.381  42.265 -2.0373 -1.9967  0.0344
   92CHL1  H27C 9288   2.548   1.533  42.350  1.3282 -0.2236  1.4811
   93CHL1    C3 9289   2.293   0.695  55.163  0.3883  0.5378 -0.0859
   93CHL1    H3 9290   2.311   0.620  55.243  0.6480  0.4568 -0.2212
   93CHL1    O3 9291   2.412   0.730  55.095  0.1334  0.3443 -0.7055
   93CHL1   H3' 9292   2.456   0.651  55.063  4.0589  1.9578  0.1940
   93CHL1    C4 9293   2.206   0.627  55.058  0.5311  0.8277  0.0847
   93CHL1   H4A 9294   2.192   0.696  54.972 -0.2213 -0.3929 -0.7961
   93CHL1   H4B 9295   2.262   0.544  55.011  1.6130  2.1365 -1.0336
   93CHL1    C5 9296   2.073   0.581  55.113  0.3681  0.0226 -0.3352
   93CHL1    C6 9297   2.032   0.455  55.113 -0.3007  0.6836  0.6816
   93CHL1    H6 9298   2.109   0.386  55.076  0.2376  2.8939 -2.7593
   93CHL1    C7 9299   1.909   0.420  55.175  0.8870  1.0128  0.1549
   93CHL1   H7A 9300   1.845   0.360  55.106  0.9406  0.7260  0.3544
   93CHL1   H7B 9301   1.935   0.356  55.262  0.4990 -0.5181 -0.8121
   93CHL1    C8 9302   1.801   0.526  55.224 -0.4523  0.4026  0.0809
   93CHL1    H8 9303   1.745   0.559  55.134 -0.3184  0.7450  0.1205
   93CHL1   C14 9304   1.710   0.472  55.337  0.1267 -0.0764 -0.1821
   93CHL1   H14 9305   1.765   0.449  55.431 -1.2829  1.4727  1.0819
   93CHL1   C15 9306   1.640   0.340  55.298  0.0377 -0.1325 -0.8693
   93CHL1  H15A 9307   1.625   0.336  55.188  4.9832  1.3261 -1.8416
   93CHL1  H15B 9308   1.702   0.254  55.332  1.2156  1.1175  0.2550
   93CHL1   C16 9309   1.506   0.344  55.386  0.1876  0.2842 -0.3338
   93CHL1  H16A 9310   1.415   0.335  55.324 -1.5605  0.6070  2.0341
   93CHL1  H16B 9311   1.506   0.267  55.467  2.0575 -0.5921 -1.1058
   93CHL1   C17 9312   1.508   0.487  55.457 -0.0885  0.3791  0.7749
   93CHL1   H17 9313   1.566   0.481  55.551 -0.2459  0.6456  0.8907
   93CHL1   C13 9314   1.607   0.581  55.374 -0.8726  0.5175  0.8860
   93CHL1   C18 9315   1.524   0.643  55.247 -0.4160  0.1360  0.1456
   93CHL1  H18A 9316   1.464   0.573  55.184  0.3148 -0.5756  0.2158
   93CHL1  H18B 9317   1.456   0.719  55.291  0.3561  0.0897  1.4503
   93CHL1  H18C 9318   1.597   0.683  55.173 -0.4891 -4.2470 -2.6898
   93CHL1   C12 9319   1.683   0.696  55.442 -0.4835 -1.0479 -0.1379
   93CHL1  H12A 9320   1.613   0.778  55.470  1.5820  0.3011  1.4578
   93CHL1  H12B 9321   1.729   0.673  55.541  0.4947  1.3100  0.0366
   93CHL1   C11 9322   1.792   0.761  55.346  0.1972  0.0097  0.5565
   93CHL1  H11A 9323   1.746   0.812  55.259 -0.1982  0.1368  0.8350
   93CHL1  H11B 9324   1.853   0.831  55.407  2.4552 -0.7725 -0.6676
   93CHL1    C9 9325   1.880   0.648  55.282  1.2935 -0.9615  0.5802
   93CHL1    H9 9326   1.926   0.593  55.367 -0.7501 -1.5587  1.3705
   93CHL1   C10 9327   1.996   0.695  55.184  0.6126 -0.2494 -0.5621
   93CHL1   C19 9328   1.934   0.786  55.068  0.1672 -0.3318  0.6118
   93CHL1  H19A 9329   1.854   0.738  55.006  0.5514  1.3086 -1.2433
   93CHL1  H19B 9330   1.887   0.881  55.100 -2.1540 -1.8837  2.1463
   93CHL1  H19C 9331   2.013   0.800  54.991  0.4606 -1.1309  0.7537
   93CHL1    C1 9332   2.090   0.781  55.282 -0.1771 -0.1241 -0.8271
   93CHL1   H1A 9333   2.031   0.872  55.309 -0.6333 -0.6420 -0.0604
   93CHL1   H1B 9334   2.114   0.724  55.374  0.7577  1.9978  0.3087
   93CHL1    C2 9335   2.223   0.826  55.222 -0.0175  0.3020  0.5886
   93CHL1   H2A 9336   2.289   0.865  55.303  2.0072 -1.4738 -0.0857
   93CHL1   H2B 9337   2.193   0.900  55.145  0.0768 -1.5820 -1.3460
   93CHL1   C20 9338   1.364   0.525  55.501  0.0741  0.1115  0.5717
   93CHL1   H20 9339   1.319   0.553  55.403 -1.4066 -2.3713  0.4702
   93CHL1   C21 9340   1.359   0.652  55.588  0.2192  0.6706  0.6720
   93CHL1  H21A 9341   1.255   0.667  55.624 -0.5969  1.7388 -1.8491
   93CHL1  H21B 9342   1.385   0.740  55.525  0.4103 -0.4290 -0.8328
   93CHL1  H21C 9343   1.432   0.641  55.671  1.0532 -2.1025 -0.3027
   93CHL1   C22 9344   1.289   0.412  55.568 -0.4112  0.2246 -0.4460
   93CHL1  H22A 9345   1.195   0.454  55.609 -0.3334 -0.1540  0.1270
   93CHL1  H22B 9346   1.271   0.321  55.507 -0.5631 -0.6222  0.8146
   93CHL1   C23 9347   1.352   0.366  55.705  0.7232 -0.4645  0.3674
   93CHL1  H23A 9348   1.449   0.322  55.675 -0.2699 -2.7949  0.3193
   93CHL1  H23B 9349   1.360   0.441  55.786  0.8069 -0.0118 -0.0578
   93CHL1   C24 9350   1.273   0.248  55.759 -0.0873 -0.4044  0.0882
   93CHL1  H24A 9351   1.166   0.267  55.780 -0.2570  0.3840 -1.3757
   93CHL1  H24B 9352   1.280   0.174  55.676  1.1776 -0.5291  0.2802
   93CHL1   C25 9353   1.329   0.185  55.891 -0.1983  1.2792 -0.4190
   93CHL1   H25 9354   1.270   0.093  55.911  1.8962  0.2732  1.6073
   93CHL1   C26 9355   1.472   0.118  55.874  0.5155  0.1724  0.5562
   93CHL1  H26A 9356   1.453   0.023  55.819 -0.2906 -0.5851  2.0673
   93CHL1  H26B 9357   1.539   0.181  55.812 -2.4646  0.6897 -2.3529
   93CHL1  H26C 9358   1.524   0.104  55.971  1.2556 -0.4038  0.0902
   93CHL1   C27 9359   1.324   0.285  56.006  0.1719 -0.9382 -0.2028
   93CHL1  H27A 9360   1.217   0.304  56.026  0.1803 -1.0550 -0.0462
   93CHL1  H27B 9361   1.375   0.253  56.099  0.9052 -0.1332 -0.3115
   93CHL1  H27C 9362   1.372   0.383  55.982  3.3658 -2.1246  0.7742
   94CHL1    C3 9363   0.783   1.297  50.891  0.3140 -0.0458  0.0708
   94CHL1    H3 9364   0.678   1.264  50.876 -0.7141  2.1613  1.9559
   94CHL1    O3 9365   0.828   1.260  51.023 -0.0040 -0.0468 -0.4908
   94CHL1   H3' 9366   0.794   1.313  51.096  1.7575 -1.0608  1.1455
   94CHL1    C4 9367   0.872   1.225  50.785 -0.4899  0.5155  0.5547
   94CHL1   H4A 9368   0.979   1.231  50.816 -0.5678 -0.8441  1.1561
   94CHL1   H4B 9369   0.855   1.116  50.794  1.1006  0.0156 -1.5716
   94CHL1    C5 9370   0.853   1.276  50.643 -0.2291  0.7404  0.3730
   94CHL1    C6 9371   0.838   1.188  50.538  0.7528  0.4045 -0.1011
   94CHL1    H6 9372   0.831   1.081  50.560 -0.4612  0.1832 -1.4587
   94CHL1    C7 9373   0.817   1.227  50.394 -0.4942 -0.1945 -0.3839
   94CHL1   H7A 9374   0.895   1.183  50.328  1.0853 -0.6131  1.6643
   94CHL1   H7B 9375   0.718   1.205  50.347  0.2191  0.5578 -2.3681
   94CHL1    C8 9376   0.855   1.380  50.372  0.4991  1.0972 -0.1466
   94CHL1    H8 9377   0.965   1.393  50.385  0.8876 -0.6024 -1.4130
   94CHL1   C14 9378   0.815   1.435  50.233  0.0314 -0.2715 -0.5763
   94CHL1   H14 9379   0.706   1.423  50.223 -0.3626  2.3245 -0.1077
   94CHL1   C15 9380   0.870   1.362  50.105 -0.3396 -0.3960  0.2422
   94CHL1  H15A 9381   0.977   1.340  50.123 -0.1230 -1.0843 -1.6619
   94CHL1  H15B 9382   0.814   1.271  50.074 -0.7704 -0.3806  0.9403
   94CHL1   C16 9383   0.854   1.464  49.986  0.2008  0.0031 -0.3435
   94CHL1  H16A 9384   0.955   1.490  49.949  0.1998  0.2997 -0.1443
   94CHL1  H16B 9385   0.798   1.420  49.900  0.4926  0.3630 -0.7253
   94CHL1   C17 9386   0.789   1.592  50.055 -0.2173  0.7736 -0.0500
   94CHL1   H17 9387   0.680   1.576  50.068  0.4177 -4.4996  1.1746
   94CHL1   C13 9388   0.833   1.582  50.198  0.4073 -0.0678  0.1570
   94CHL1   C18 9389   0.985   1.620  50.204  0.6087 -0.6205  0.8716
   94CHL1  H18A 9390   0.993   1.728  50.180  2.5540 -0.9891 -0.3248
   94CHL1  H18B 9391   1.042   1.607  50.299 -2.8163 -0.1821  3.2030
   94CHL1  H18C 9392   1.043   1.567  50.126  0.3145 -3.7374  2.6022
   94CHL1   C12 9393   0.757   1.665  50.300  0.0711  0.6006  0.0217
   94CHL1  H12A 9394   0.776   1.775  50.291 -0.8779  0.8345  0.7136
   94CHL1  H12B 9395   0.647   1.661  50.293  0.1921 -0.9174 -1.6132
   94CHL1   C11 9396   0.799   1.624  50.442  0.9638  0.6410  0.8542
   94CHL1  H11A 9397   0.904   1.657  50.459  2.2122 -1.0516 -2.7115
   94CHL1  H11B 9398   0.737   1.671  50.522 -3.6867 -3.5362  0.2042
   94CHL1    C9 9399   0.802   1.469  50.485  0.9148 -0.5989  0.1384
   94CHL1    H9 9400   0.694   1.442  50.490  1.3863 -2.6761 -0.2546
   94CHL1   C10 9401   0.855   1.428  50.622  0.4904 -0.3397  0.4774
   94CHL1   C19 9402   0.997   1.469  50.639  0.2928  0.2110  0.3176
   94CHL1  H19A 9403   1.043   1.459  50.739  2.2934  1.3031 -0.4186
   94CHL1  H19B 9404   1.060   1.409  50.569  0.8389  0.6863  0.3878
   94CHL1  H19C 9405   1.005   1.574  50.604 -3.1627  0.2646 -0.6662
   94CHL1    C1 9406   0.766   1.500  50.721 -0.1487 -0.6833  0.2213
   94CHL1   H1A 9407   0.779   1.609  50.709 -0.6578 -0.6259  0.1559
   94CHL1   H1B 9408   0.659   1.492  50.692 -0.8559  5.0039  0.1976
   94CHL1    C2 9409   0.787   1.452  50.873 -1.3701  0.0981  0.2817
   94CHL1   H2A 9410   0.710   1.502  50.936  0.6129  2.7159  0.7686
   94CHL1   H2B 9411   0.888   1.488  50.901 -0.3097 -2.3443 -0.1280
   94CHL1   C20 9412   0.817   1.721  49.973  0.1704 -0.0198 -0.5947
   94CHL1   H20 9413   0.926   1.742  49.967 -0.3620  2.5267 -3.4115
   94CHL1   C21 9414   0.737   1.838  50.045 -0.3318  0.3483  0.3018
   94CHL1  H21A 9415   0.802   1.882  50.124 -2.1646  3.5981  0.2170
   94CHL1  H21B 9416   0.642   1.806  50.093 -0.8484  0.6394 -0.5053
   94CHL1  H21C 9417   0.710   1.921  49.976  0.9832  1.1302  0.6905
   94CHL1   C22 9418   0.768   1.712  49.822 -0.7492  0.6297  0.1709
   94CHL1  H22A 9419   0.802   1.620  49.769  0.1254  1.3258 -0.5125
   94CHL1  H22B 9420   0.659   1.729  49.825 -0.7583  1.7634 -2.8223
   94CHL1   C23 9421   0.850   1.809  49.732  0.4684  0.0822  0.6305
   94CHL1  H23A 9422   0.856   1.905  49.787 -2.0693 -0.6463  2.3511
   94CHL1  H23B 9423   0.957   1.779  49.725  0.9203  1.5746  0.7451
   94CHL1   C24 9424   0.806   1.822  49.585 -0.7892 -1.0232  1.0409
   94CHL1  H24A 9425   0.880   1.877  49.523  0.3854 -2.8232  0.7792
   94CHL1  H24B 9426   0.797   1.719  49.543 -1.2923  0.0330 -1.6123
   94CHL1   C25 9427   0.667   1.881  49.573  0.2509 -0.1348  0.7980
   94CHL1   H25 9428   0.607   1.812  49.637 -1.0712  0.7700  0.5769
   94CHL1   C26 9429   0.645   2.020  49.638 -0.7673  0.4129  0.4398
   94CHL1  H26A 9430   0.708   2.100  49.593  0.6113 -0.6243  0.4569
   94CHL1  H26B 9431   0.547   2.064  49.611 -0.8262  0.1026  0.1436
   94CHL1  H26C 9432   0.650   2.015  49.749 -3.0470 -0.0860  0.5687
   94CHL1   C27 9433   0.620   1.886  49.423  0.1626 -0.6570  0.5971
   94CHL1  H27A 9434   0.513   1.915  49.413 -0.2270 -2.7807 -3.6947
   94CHL1  H27B 9435   0.679   1.955  49.359 -0.5038  0.4274  1.1211
   94CHL1  H27C 9436   0.620   1.780  49.390  0.8256 -0.3718 -0.3777
   95CHL1    C3 9437   0.899   1.772  38.257 -0.0873 -0.2769  0.0609
   95CHL1    H3 9438   0.855   1.872  38.242 -1.8640 -0.7779  1.5671
   95CHL1    O3 9439   0.944   1.723  38.132  0.1201  0.3796 -0.1781
   95CHL1   H3' 9440   0.913   1.632  38.127  0.0652  0.4446 -1.4820
   95CHL1    C4 9441   1.038   1.778  38.326 -0.5891  0.1313 -0.4071
   95CHL1   H4A 9442   1.101   1.688  38.310 -1.7934 -0.4166 -2.4941
   95CHL1   H4B 9443   1.095   1.860  38.279 -0.9660 -0.6362 -2.2749
   95CHL1    C5 9444   1.022   1.800  38.479  1.1580  0.2650  0.8987
   95CHL1    C6 9445   1.074   1.904  38.541  0.5184 -0.7648 -0.7016
   95CHL1    H6 9446   1.135   1.967  38.474 -0.0030 -1.6210 -2.0133
   95CHL1    C7 9447   1.081   1.923  38.692  0.3833  0.4098  0.0436
   95CHL1   H7A 9448   1.181   1.957  38.726 -0.5500  4.0098 -0.4060
   95CHL1   H7B 9449   1.015   2.008  38.719 -0.5060 -0.6310  1.2637
   95CHL1    C8 9450   1.023   1.801  38.771  0.2018  0.0850 -0.2924
   95CHL1    H8 9451   1.100   1.722  38.755 -1.5409 -1.2219 -3.0029
   95CHL1   C14 9452   0.995   1.828  38.918  0.1526  0.8397 -0.2583
   95CHL1   H14 9453   0.907   1.897  38.913 -1.6094 -1.3625 -1.1967
   95CHL1   C15 9454   1.118   1.886  38.993  0.1697  0.1735 -0.3628
   95CHL1  H15A 9455   1.214   1.836  38.965 -0.1806 -1.4517  1.1685
   95CHL1  H15B 9456   1.108   1.997  38.988 -1.1442  0.0922  0.1125
   95CHL1   C16 9457   1.080   1.858  39.142 -0.1501 -0.1318  0.8277
   95CHL1  H16A 9458   1.155   1.788  39.185  1.5457 -1.6676 -3.9758
   95CHL1  H16B 9459   1.085   1.954  39.196  1.8283  0.4217 -0.2563
   95CHL1   C17 9460   0.939   1.780  39.144  0.7489 -0.8373 -0.0789
   95CHL1   H17 9461   0.860   1.857  39.134 -0.4696 -1.8223  1.6029
   95CHL1   C13 9462   0.931   1.713  39.002  0.1618  0.0768 -0.2982
   95CHL1   C18 9463   1.026   1.590  39.009 -0.6462  1.1242  0.1588
   95CHL1  H18A 9464   1.073   1.565  38.912 -1.0617 -2.0248  0.6440
   95CHL1  H18B 9465   1.112   1.605  39.079  0.0016  0.1268 -0.4012
   95CHL1  H18C 9466   0.980   1.496  39.048  1.4449  0.7398  1.8861
   95CHL1   C12 9467   0.798   1.675  38.934  0.0393 -0.7312 -0.5621
   95CHL1  H12A 9468   0.758   1.585  38.986  0.3568 -0.3946  0.2814
   95CHL1  H12B 9469   0.712   1.745  38.940 -0.5898 -1.5366  0.0190
   95CHL1   C11 9470   0.826   1.632  38.789 -0.5863  0.8033  0.0984
   95CHL1  H11A 9471   0.874   1.533  38.772 -0.1285  1.0117  0.1486
   95CHL1  H11B 9472   0.719   1.621  38.763 -1.2652 -1.0780  3.2202
   95CHL1    C9 9473   0.903   1.746  38.708 -0.1993  0.6102  0.2254
   95CHL1    H9 9474   0.820   1.819  38.696 -3.3186 -2.8229 -1.0661
   95CHL1   C10 9475   0.923   1.706  38.553 -0.2522  0.1208  0.1200
   95CHL1   C19 9476   0.966   1.564  38.548 -1.1711  0.1877  0.1070
   95CHL1  H19A 9477   0.987   1.535  38.443 -0.2048 -2.0799  0.8485
   95CHL1  H19B 9478   1.061   1.537  38.599  0.1411 -3.5504 -3.6759
   95CHL1  H19C 9479   0.882   1.499  38.582 -0.7349 -1.2921 -1.4860
   95CHL1    C1 9480   0.790   1.722  38.471 -0.1550 -0.1714  0.3777
   95CHL1   H1A 9481   0.713   1.655  38.516  0.1888  0.3737  1.8426
   95CHL1   H1B 9482   0.757   1.828  38.477  2.6288  0.7909  0.0710
   95CHL1    C2 9483   0.800   1.683  38.323  0.9212 -0.0956  1.5129
   95CHL1   H2A 9484   0.699   1.680  38.278  1.3234 -3.1237  0.6085
   95CHL1   H2B 9485   0.839   1.579  38.315  0.5875 -0.0491 -2.1037
   95CHL1   C20 9486   0.924   1.696  39.273  0.3497 -0.4115  0.8092
   95CHL1   H20 9487   1.003   1.618  39.266 -1.0986 -1.8093 -0.7628
   95CHL1   C21 9488   0.781   1.633  39.262  0.1938 -0.0027 -0.2508
   95CHL1  H21A 9489   0.706   1.714  39.251 -1.2449 -1.2452  0.1052
   95CHL1  H21B 9490   0.749   1.581  39.355 -0.5825  1.7248  0.4828
   95CHL1  H21C 9491   0.781   1.562  39.176 -0.4465  0.3159 -0.5241
   95CHL1   C22 9492   0.939   1.767  39.404  0.8307  0.0009  0.2546
   95CHL1  H22A 9493   1.033   1.825  39.412  0.2750  1.1701 -1.1499
   95CHL1  H22B 9494   0.849   1.833  39.408  0.2375 -0.6282 -1.7040
   95CHL1   C23 9495   0.944   1.664  39.519 -0.1689 -0.1181 -0.7069
   95CHL1  H23A 9496   0.852   1.602  39.517 -1.6709  1.9646 -0.0998
   95CHL1  H23B 9497   1.041   1.611  39.509  2.1300  3.5859 -0.0077
   95CHL1   C24 9498   0.935   1.736  39.656 -0.2172 -0.1565  0.6669
   95CHL1  H24A 9499   0.981   1.835  39.634 -0.1576 -0.5480 -1.1049
   95CHL1  H24B 9500   0.829   1.750  39.686 -0.1343  1.2568  0.4040
   95CHL1   C25 9501   1.013   1.661  39.761 -0.0865  0.5437 -0.5814
   95CHL1   H25 9502   1.117   1.644  39.726 -0.3366 -1.5122 -0.4673
   95CHL1   C26 9503   1.009   1.741  39.888  0.6809  0.0409 -0.4269
   95CHL1  H26A 9504   0.903   1.741  39.921  0.8944 -1.2320  0.3065
   95CHL1  H26B 9505   1.054   1.694  39.978 -0.0845 -0.3281 -0.2279
   95CHL1  H26C 9506   1.042   1.847  39.875 -2.6319  0.9388 -2.7681
   95CHL1   C27 9507   0.955   1.522  39.781  0.3220  0.3769  0.1426
   95CHL1  H27A 9508   0.955   1.455  39.693  3.5199 -0.4291  0.6287
   95CHL1  H27B 9509   1.009   1.472  39.864  2.1267 -1.5185 -2.0467
   95CHL1  H27C 9510   0.848   1.533  39.812 -0.0107 -1.1744 -0.3827
   96CHL1    C3 9511   1.810   0.826  42.276 -0.2254 -0.1667 -0.5030
   96CHL1    H3 9512   1.815   0.867  42.379  1.2172  1.1568 -1.0429
   96CHL1    O3 9513   1.873   0.700  42.247 -0.5354  0.7347 -0.3742
   96CHL1   H3' 9514   1.950   0.682  42.300  0.1571 -3.5205 -2.3569
   96CHL1    C4 9515   1.666   0.815  42.223  0.6525  0.2999 -0.3186
   96CHL1   H4A 9516   1.653   0.761  42.127  0.4725  2.9080 -1.8487
   96CHL1   H4B 9517   1.612   0.749  42.295  1.5241  0.9011  0.9327
   96CHL1    C5 9518   1.600   0.950  42.196  0.6044 -0.3851  0.1516
   96CHL1    C6 9519   1.481   0.971  42.242 -0.0312  0.1468 -0.0335
   96CHL1    H6 9520   1.436   0.884  42.292  1.5528 -0.9743 -0.4956
   96CHL1    C7 9521   1.401   1.095  42.212  0.2311 -0.2454  0.6735
   96CHL1   H7A 9522   1.297   1.065  42.184 -0.2303  0.0662  1.9605
   96CHL1   H7B 9523   1.394   1.155  42.306 -1.2190  1.1191 -0.2427
   96CHL1    C8 9524   1.465   1.188  42.103 -0.2530 -0.8560 -0.6190
   96CHL1    H8 9525   1.443   1.145  42.003  2.3087 -3.2744 -0.2932
   96CHL1   C14 9526   1.401   1.326  42.113 -0.0851  0.0463 -0.1078
   96CHL1   H14 9527   1.435   1.367  42.211  0.6296  1.4967 -0.9237
   96CHL1   C15 9528   1.253   1.336  42.113 -0.0494 -0.2746 -0.3775
   96CHL1  H15A 9529   1.208   1.297  42.019  0.5617 -0.8255 -0.4461
   96CHL1  H15B 9530   1.189   1.309  42.200 -0.5869 -0.8156 -0.9351
   96CHL1   C16 9531   1.229   1.494  42.104 -0.2115 -0.0657  0.3385
   96CHL1  H16A 9532   1.152   1.527  42.031 -1.1615  0.3524  1.5123
   96CHL1  H16B 9533   1.206   1.530  42.206  0.6172 -0.9686  0.8676
   96CHL1   C17 9534   1.373   1.556  42.054 -0.4686  0.0204  0.0532
   96CHL1   H17 9535   1.421   1.605  42.142  1.7452  0.4860 -1.3457
   96CHL1   C13 9536   1.459   1.432  42.018 -0.0815  0.1855 -0.1800
   96CHL1   C18 9537   1.422   1.389  41.873  0.4385  0.6127  0.3029
   96CHL1  H18A 9538   1.313   1.376  41.854  0.2268  1.6108  0.7544
   96CHL1  H18B 9539   1.462   1.461  41.798  0.0732 -1.4303 -1.9745
   96CHL1  H18C 9540   1.470   1.292  41.848  0.9574 -0.1528  3.7505
   96CHL1   C12 9541   1.611   1.447  42.030  0.3043  0.6560 -1.1419
   96CHL1  H12A 9542   1.675   1.496  41.954  1.9447 -1.6160 -1.3518
   96CHL1  H12B 9543   1.627   1.496  42.128 -0.9144 -1.5879  0.2845
   96CHL1   C11 9544   1.678   1.312  42.029 -0.0776 -0.1162  0.3820
   96CHL1  H11A 9545   1.703   1.273  41.928  3.1493 -0.6560  1.2713
   96CHL1  H11B 9546   1.786   1.322  42.053  0.5894 -0.5506 -2.1333
   96CHL1    C9 9547   1.616   1.203  42.126 -0.7618 -0.3402  0.1518
   96CHL1    H9 9548   1.629   1.240  42.230 -1.6081  1.8623 -0.4612
   96CHL1   C10 9549   1.687   1.061  42.131  0.8985 -0.5562 -0.8953
   96CHL1   C19 9550   1.713   1.014  41.987 -1.0337  0.0632 -1.0131
   96CHL1  H19A 9551   1.637   1.046  41.912 -0.6874 -1.6137 -2.1207
   96CHL1  H19B 9552   1.811   1.061  41.964 -0.3271 -0.5689  0.6086
   96CHL1  H19C 9553   1.734   0.905  41.980 -0.3009  0.1678 -0.4930
   96CHL1    C1 9554   1.828   1.066  42.201 -0.0950 -0.1915  0.4274
   96CHL1   H1A 9555   1.888   1.142  42.147 -1.9974  2.4595  1.7919
   96CHL1   H1B 9556   1.821   1.110  42.303  1.9415  0.8684  0.1684
   96CHL1    C2 9557   1.900   0.930  42.203  0.5862 -0.0991 -0.4527
   96CHL1   H2A 9558   1.995   0.940  42.260 -0.5947  2.4085  1.2848
   96CHL1   H2B 9559   1.931   0.904  42.100  0.9745  2.6624 -1.1292
   96CHL1   C20 9560   1.349   1.666  41.951  0.2996 -0.6689  0.4365
   96CHL1   H20 9561   1.275   1.632  41.876  0.4053 -2.3051  1.0338
   96CHL1   C21 9562   1.481   1.718  41.895  0.7677  0.3771 -0.0499
   96CHL1  H21A 9563   1.539   1.783  41.964  2.2115 -0.5845 -0.3240
   96CHL1  H21B 9564   1.463   1.779  41.803  0.3973  1.2880  0.6119
   96CHL1  H21C 9565   1.538   1.639  41.843  0.1272  0.6008 -1.1249
   96CHL1   C22 9566   1.279   1.781  42.019 -0.6580 -0.1767 -0.2819
   96CHL1  H22A 9567   1.190   1.738  42.071  0.7759 -2.1906  0.6214
   96CHL1  H22B 9568   1.343   1.833  42.093  1.2192 -0.2716 -1.7559
   96CHL1   C23 9569   1.214   1.884  41.923 -0.7259 -0.4203 -0.4503
   96CHL1  H23A 9570   1.207   1.974  41.988  1.9314 -0.9391  0.6695
   96CHL1  H23B 9571   1.291   1.901  41.845 -0.2658 -2.9929 -0.6464
   96CHL1   C24 9572   1.086   1.846  41.856  0.1248  0.5235 -0.3460
   96CHL1  H24A 9573   1.114   1.782  41.770 -0.0755  1.0491 -0.8052
   96CHL1  H24B 9574   1.016   1.789  41.921 -0.9220 -1.2165 -2.8393
   96CHL1   C25 9575   0.996   1.958  41.791 -0.7116 -0.6359 -0.1950
   96CHL1   H25 9576   0.966   2.029  41.871  0.9507 -0.6444  0.4781
   96CHL1   C26 9577   1.076   2.036  41.685  0.2206  0.9092  0.3561
   96CHL1  H26A 9578   1.035   2.136  41.661  0.5806  0.8543 -0.5296
   96CHL1  H26B 9579   1.178   2.049  41.728  0.5348  1.6437 -0.5696
   96CHL1  H26C 9580   1.083   1.973  41.594 -4.1214 -0.2414  0.6038
   96CHL1   C27 9581   0.858   1.899  41.746 -0.2820  0.2601  0.6362
   96CHL1  H27A 9582   0.786   1.974  41.708  0.7541  1.8839  1.7615
   96CHL1  H27B 9583   0.868   1.828  41.661 -0.7173  1.6389 -0.6065
   96CHL1  H27C 9584   0.822   1.842  41.834  0.1035  0.0253  0.6504
   97OSM      N 9585   1.010   1.128  63.709 -0.7596  1.1715 -0.1608
   97OSM    C15 9586   1.125   1.137  63.610  0.1957  0.6278  0.4105
   97OSM   H15A 9587   1.104   1.217  63.541  0.9087  1.5465  1.2313
   97OSM   H15B 9588   1.123   1.044  63.555  0.0652  1.1899 -0.5673
   97OSM   H15C 9589   1.221   1.156  63.657 -0.1217  0.0633  1.2984
   97OSM    C14 9590   0.878   1.090  63.641 -0.1743 -0.3477  0.7368
   97OSM   H14A 9591   0.856   0.987  63.663  0.9892 -0.4596  1.5223
   97OSM   H14B 9592   0.903   1.091  63.536  0.9167 -1.1715  0.9606
   97OSM   H14C 9593   0.807   1.164  63.676  0.7591  0.7029  0.4882
   97OSM    C13 9594   1.035   1.012  63.797 -0.2190  1.0763 -0.0680
   97OSM   H13A 9595   1.037   0.922  63.737  3.1116  1.5581 -0.8253
   97OSM   H13B 9596   0.974   0.996  63.885  0.8969 -0.8669  0.4076
   97OSM   H13C 9597   1.133   1.009  63.842 -0.9379 -0.0041  1.5158
   97OSM    C12 9598   0.993   1.254  63.794  0.3088  0.1182  0.1950
   97OSM   H12A 9599   1.010   1.348  63.744  2.2825  1.3032  2.7966
   97OSM   H12B 9600   1.075   1.261  63.865 -1.0898  2.4597  1.7066
   97OSM    C11 9601   0.857   1.276  63.868 -0.9348  0.0168 -0.7785
   97OSM   H11A 9602   0.868   1.366  63.932 -2.8381 -0.5347  0.4327
   97OSM   H11B 9603   0.834   1.199  63.945 -0.5997 -0.0959 -0.7901
   97OSM      P 9604   0.695   1.406  63.701  0.2854  0.5831 -0.3400
   97OSM    O13 9605   0.723   1.377  63.559 -0.2991  0.0952 -0.3110
   97OSM    O14 9606   0.549   1.422  63.728  0.0760  0.6627  1.2112
   97OSM    O11 9607   0.764   1.536  63.754 -0.9974  0.2774  0.3714
   97OSM    O12 9608   0.738   1.287  63.790 -0.2334 -0.1292  0.1033
   97OSM    C1S 9609   0.819   1.635  63.668  0.0615  0.0668  0.5697
   97OSM    H1S 9610   0.824   1.596  63.565 -0.1143 -0.3408  0.7175
   97OSM    H1T 9611   0.909   1.688  63.707  0.5159 -1.2165  1.3507
   97OSM     NF 9612   0.752   1.853  63.556  0.1006  0.5069 -0.2065
   97OSM    HNF 9613   0.812   1.933  63.563  0.0463  0.4920  0.5460
   97OSM    C2S 9614   0.736   1.766  63.676  0.8916 -0.1855  0.2183
   97OSM    H2S 9615   0.634   1.720  63.675  1.2375 -1.0900  2.0092
   97OSM    C3S 9616   0.752   1.850  63.812 -0.2178 -0.3338 -0.1731
   97OSM    H3S 9617   0.678   1.933  63.819  1.8452  1.4480  2.0759
   97OSM     O3 9618   0.857   1.943  63.816 -0.6851  0.3652 -0.1408
   97OSM    HO3 9619   0.897   1.933  63.730 -0.3541 -1.2821  0.1598
   97OSM    C4S 9620   0.744   1.760  63.939 -0.2157 -0.7046  0.5426
   97OSM    H4S 9621   0.815   1.677  63.947 -1.1513 -1.6274 -0.3161
   97OSM    C5S 9622   0.648   1.778  64.030 -0.2730  0.9766 -1.1607
   97OSM    H5S 9623   0.577   1.863  64.029  1.8302  2.8558 -2.7187
   97OSM    C6S 9624   0.637   1.684  64.143 -0.6449  0.7605  0.0031
   97OSM    H6S 9625   0.667   1.729  64.240  0.7827  0.5512 -0.3084
   97OSM    H6T 9626   0.716   1.605  64.142 -1.6559 -0.3527  1.9004
   97OSM    C7S 9627   0.511   1.611  64.147 -0.6157 -0.3350  0.1272
   97OSM    H7S 9628   0.490   1.546  64.059  1.3838  0.7704 -1.2196
   97OSM    H7T 9629   0.442   1.696  64.167 -0.0171  0.3498 -0.6662
   97OSM    C8S 9630   0.512   1.525  64.275 -0.4308 -0.2194 -0.6407
   97OSM    H8S 9631   0.542   1.581  64.365 -0.2911  0.5731 -1.1670
   97OSM    H8T 9632   0.586   1.445  64.255 -0.8602 -0.5219 -1.0566
   97OSM    C9S 9633   0.380   1.445  64.290 -0.9356 -0.3274  0.6902
   97OSM    H9S 9634   0.363   1.414  64.185  1.2944  1.1040 -0.1762
   97OSM    H9T 9635   0.301   1.515  64.327 -1.0726 -0.0515 -0.1101
   97OSM   C10S 9636   0.394   1.327  64.387 -0.4395 -0.5344  1.0065
   97OSM   H10S 9637   0.404   1.366  64.490 -0.7265 -2.5628  1.8690
   97OSM   H10T 9638   0.481   1.266  64.355 -0.0018  1.3689 -1.7266
   97OSM   C11S 9639   0.278   1.224  64.380 -0.2362  0.3267  0.2378
   97OSM   H11S 9640   0.268   1.201  64.272  1.7242 -1.2456  0.3344
   97OSM   H11T 9641   0.186   1.274  64.418  0.1912 -0.4904  2.5016
   97OSM   C12S 9642   0.302   1.098  64.451 -0.2996  0.3735  0.0820
   97OSM   H12S 9643   0.338   1.115  64.554 -0.8531 -2.8074  0.9186
   97OSM   H12T 9644   0.382   1.032  64.412 -0.7135 -0.2738  0.3026
   97OSM   C13S 9645   0.178   1.003  64.468 -0.8207  0.6228 -0.1722
   97OSM   H13S 9646   0.173   0.930  64.384  0.7096 -0.7555  0.8738
   97OSM   H13T 9647   0.095   1.076  64.460 -0.5772  1.5386  3.6798
   97OSM   C14S 9648   0.170   0.949  64.609  1.4138 -0.0467 -0.1681
   97OSM   H14S 9649   0.139   1.031  64.676 -1.2090  1.0699 -2.5449
   97OSM   H14T 9650   0.273   0.908  64.622  0.9221 -0.7733  1.7365
   97OSM   C15S 9651   0.054   0.846  64.616 -0.3336 -0.4008 -0.6724
   97OSM   H15S 9652   0.076   0.754  64.557 -1.5396 -0.9382 -0.3075
   97OSM   H15T 9653  -0.040   0.884  64.571 -0.5137  2.1137  1.6002
   97OSM   C16S 9654   0.032   0.793  64.762  1.1322 -0.4326  0.8358
   97OSM   H16S 9655  -0.038   0.707  64.762 -0.7792  1.0687  1.5933
   97OSM   H16T 9656  -0.028   0.877  64.801 -0.4098 -0.3442 -1.5596
   97OSM   C17S 9657   0.151   0.744  64.842  0.4794 -0.3966 -0.1731
   97OSM   H17S 9658   0.219   0.832  64.839 -1.1715  0.9143 -0.0800
   97OSM   H17T 9659   0.192   0.657  64.786  3.7435  1.4765 -0.9803
   97OSM   C18S 9660   0.113   0.724  64.982 -0.7400  0.6030  0.2258
   97OSM   H18S 9661   0.122   0.814  65.047  0.7295  0.5538  0.1351
   97OSM   H18T 9662   0.187   0.652  65.023 -0.0288  0.1083 -1.8043
   97OSM   H18U 9663   0.010   0.690  65.002 -1.2336  1.0554 -1.3589
   97OSM    C1F 9664   0.692   1.833  63.441 -0.0607  0.2545  0.3382
   97OSM     OF 9665   0.630   1.730  63.423 -0.1704 -0.1323  0.0231
   97OSM    C2F 9666   0.709   1.918  63.325 -0.3541  0.7507  0.1903
   97OSM    H2F 9667   0.780   2.003  63.337 -1.5550  2.2989 -2.6468
   97OSM    H2G 9668   0.611   1.970  63.312 -0.9703 -0.8323 -2.3038
   97OSM    C3F 9669   0.743   1.838  63.204  0.5656  0.6131  0.5896
   97OSM    H3F 9670   0.664   1.765  63.174  1.3776 -0.0096 -0.0860
   97OSM    H3G 9671   0.825   1.766  63.226  3.3812  2.5281 -2.7567
   97OSM    C4F 9672   0.768   1.906  63.072 -0.4625 -0.1463  1.1204
   97OSM    H4F 9673   0.869   1.951  63.073  0.2029 -1.5515  0.2405
   97OSM    H4G 9674   0.683   1.977  63.064  0.4579  1.0099  1.5021
   97OSM    C5F 9675   0.753   1.815  62.946 -0.0773  0.3153  0.1152
   97OSM    H5F 9676   0.647   1.785  62.940  0.2419 -0.9046  0.1947
   97OSM    H5G 9677   0.823   1.729  62.959 -1.0772 -0.8544 -1.8060
   97OSM    C6F 9678   0.780   1.880  62.818  1.1290  0.1106 -0.7322
   97OSM    H6F 9679   0.717   1.971  62.830 -2.2092 -2.2747  1.6065
   97OSM    H6G 9680   0.729   1.823  62.738 -0.7467 -1.1660  1.2723
   97OSM    C7F 9681   0.931   1.917  62.783  0.5368  0.4158  0.0697
   97OSM    H7F 9682   0.975   1.964  62.873  0.2560 -1.4994  1.2712
   97OSM    H7G 9683   0.929   1.997  62.705  0.5328 -1.0743 -1.5197
   97OSM    C8F 9684   1.029   1.806  62.744  0.1606  0.4726 -0.1695
   97OSM    H8F 9685   1.055   1.742  62.831  1.4794 -1.2277 -1.7524
   97OSM    H8G 9686   1.115   1.870  62.714 -1.3591  2.5928 -0.1853
   97OSM    C9F 9687   0.975   1.719  62.635 -0.5550  0.5779  0.0164
   97OSM    H9F 9688   0.877   1.679  62.667 -0.0822  1.5678  3.0839
   97OSM   C10F 9689   1.042   1.696  62.521  0.5698 -0.3487 -0.2368
   97OSM   H10F 9690   1.009   1.619  62.450  1.9842  1.1978 -2.7163
   97OSM   C11F 9691   1.154   1.771  62.472  0.2594 -1.1502  1.0955
   97OSM   H11F 9692   1.221   1.691  62.435  1.0132 -0.2312  0.4214
   97OSM   H11G 9693   1.214   1.827  62.547  3.6754 -2.5054 -0.4093
   97OSM   C12F 9694   1.120   1.868  62.358 -0.0568 -0.8967 -0.2899
   97OSM   H12F 9695   1.078   1.958  62.408  1.5227 -2.2366  3.8860
   97OSM   H12G 9696   1.031   1.834  62.299 -2.5775  0.6746  2.3218
   97OSM   C13F 9697   1.247   1.904  62.279  0.2081  0.4063 -0.2690
   97OSM   H13F 9698   1.285   1.816  62.221 -3.9574 -1.4762 -0.4922
   97OSM   H13G 9699   1.331   1.936  62.345 -1.9412  0.3305  2.7216
   97OSM   C14F 9700   1.228   2.026  62.181  0.2446 -0.2245 -0.3579
   97OSM   H14F 9701   1.322   2.038  62.123 -0.8054  1.0313 -1.8834
   97OSM   H14G 9702   1.200   2.120  62.234 -1.9645  1.6512 -4.3795
   97OSM   C15F 9703   1.108   1.995  62.082  0.9875  0.0375  1.1224
   97OSM   H15F 9704   1.011   1.984  62.134  0.9575 -1.6906  0.7560
   97OSM   H15G 9705   1.129   1.896  62.037  2.8451 -0.1503  2.2841
   97OSM   C16F 9706   1.091   2.102  61.983  0.2608 -0.7684 -0.5469
   97OSM   H16F 9707   1.183   2.141  61.934 -1.2544 -0.2929 -3.1582
   97OSM   H16G 9708   1.043   2.184  62.039 -1.8715 -1.5806 -1.0852
   97OSM   C17F 9709   0.990   2.082  61.874 -0.3219  0.3352 -0.2445
   97OSM   H17F 9710   0.891   2.082  61.925  0.4849 -0.8352  1.3749
   97OSM   H17G 9711   0.995   1.984  61.822 -2.1241 -0.3844  0.8688
   97OSM   C18F 9712   0.992   2.190  61.764 -0.8625  0.5882  0.1658
   97OSM   H18F 9713   1.091   2.195  61.713  0.2321  2.6523  2.3318
   97OSM   H18G 9714   0.960   2.288  61.804 -0.6645  0.9974 -0.6476
   97OSM   H18H 9715   0.908   2.166  61.695 -0.5790 -1.1751  0.3825
   98OSM      N 9716   0.253   1.067  67.219  0.0211 -0.2033 -0.0958
   98OSM    C15 9717   0.223   0.979  67.342 -0.6870  0.5180  0.7411
   98OSM   H15A 9718   0.191   1.033  67.430 -1.8504 -1.6714  1.7437
   98OSM   H15B 9719   0.301   0.909  67.367 -0.2614 -0.0947 -1.9489
   98OSM   H15C 9720   0.141   0.908  67.339 -0.2395  0.0171  0.1038
   98OSM    C14 9721   0.200   1.002  67.092  0.4824 -0.8482 -0.5657
   98OSM   H14A 9722   0.092   0.994  67.088  0.5145 -1.2135 -3.6849
   98OSM   H14B 9723   0.234   0.899  67.085 -2.4409 -2.0226  0.8856
   98OSM   H14C 9724   0.228   1.067  67.011  0.0207  1.6162  1.1558
   98OSM    C13 9725   0.175   1.200  67.244 -0.3380  1.0623  0.1508
   98OSM   H13A 9726   0.181   1.243  67.342 -0.8125  1.2699  0.0869
   98OSM   H13B 9727   0.068   1.186  67.245 -0.1631 -0.7281  2.7272
   98OSM   H13C 9728   0.199   1.265  67.161  2.9383  3.0472  2.4061
   98OSM    C12 9729   0.406   1.091  67.223 -0.5670  0.1024 -0.1406
   98OSM   H12A 9730   0.468   1.004  67.238  1.0991  1.5747  2.5398
   98OSM   H12B 9731   0.407   1.150  67.314  0.3949 -0.2574  0.0933
   98OSM    C11 9732   0.468   1.176  67.113  0.9057 -0.7671  0.2461
   98OSM   H11A 9733   0.440   1.131  67.015  2.3334 -0.7475 -0.1956
   98OSM   H11B 9734   0.576   1.166  67.133  0.8394 -2.9478 -0.2119
   98OSM      P 9735   0.395   1.392  66.988 -0.3164  0.2869 -0.1233
   98OSM    O13 9736   0.260   1.349  66.940  0.1424 -0.9484 -0.5660
   98OSM    O14 9737   0.407   1.539  67.024 -0.1944  0.6767 -0.4034
   98OSM    O11 9738   0.513   1.355  66.892  0.8357 -0.0842 -0.1218
   98OSM    O12 9739   0.427   1.311  67.122 -0.1499 -0.4464 -0.2607
   98OSM    C1S 9740   0.466   1.325  66.756  0.3488 -0.3513 -0.2227
   98OSM    H1S 9741   0.376   1.381  66.722  0.0996  0.2594  1.3901
   98OSM    H1T 9742   0.461   1.214  66.749 -2.8969 -0.5312  2.5532
   98OSM     NF 9743   0.510   1.334  66.507 -0.1349 -0.3686 -0.8090
   98OSM    HNF 9744   0.552   1.260  66.456  2.8718  1.4890 -1.2975
   98OSM    C2S 9745   0.572   1.353  66.635  0.0982  0.3564 -0.4899
   98OSM    H2S 9746   0.611   1.457  66.639  0.5681  0.2609 -1.9284
   98OSM    C3S 9747   0.702   1.269  66.666 -0.2904 -0.0583 -0.4007
   98OSM    H3S 9748   0.669   1.166  66.640 -0.9807  0.6219 -2.3917
   98OSM     O3 9749   0.764   1.277  66.795 -0.6218 -0.4308 -0.2480
   98OSM    HO3 9750   0.696   1.309  66.855  0.5953  1.5668  0.1678
   98OSM    C4S 9751   0.809   1.303  66.571 -0.2131  0.6867  0.3207
   98OSM    H4S 9752   0.844   1.407  66.560  0.4998  0.4531  0.2885
   98OSM    C5S 9753   0.883   1.202  66.517 -1.0832  0.2712 -0.3977
   98OSM    H5S 9754   0.858   1.097  66.537 -3.2460  1.1712  2.2096
   98OSM    C6S 9755   1.015   1.213  66.432  0.1436  0.2529  0.2713
   98OSM    H6S 9756   0.996   1.256  66.331 -1.1644 -2.7409 -0.8732
   98OSM    H6T 9757   1.068   1.115  66.424  1.1240  0.6965  1.0455
   98OSM    C7S 9758   1.126   1.303  66.497 -0.7364  0.2586  0.4175
   98OSM    H7S 9759   1.140   1.261  66.599 -1.2394 -1.2309 -0.1048
   98OSM    H7T 9760   1.067   1.397  66.500 -1.3125  0.0175 -1.7906
   98OSM    C8S 9761   1.261   1.326  66.417  0.7602  0.5760  0.4885
   98OSM    H8S 9762   1.282   1.236  66.356 -1.3388  0.7545 -0.5766
   98OSM    H8T 9763   1.347   1.333  66.487  0.6290 -0.6848  0.7888
   98OSM    C9S 9764   1.247   1.451  66.333 -0.1963 -0.1449  0.6867
   98OSM    H9S 9765   1.267   1.540  66.396  1.0329  0.8024 -0.9591
   98OSM    H9T 9766   1.143   1.459  66.295  0.0636 -2.3743 -0.6885
   98OSM   C10S 9767   1.343   1.457  66.208 -0.4204  0.2350  0.3957
   98OSM   H10S 9768   1.429   1.391  66.233 -1.6159 -1.1289  0.9990
   98OSM   H10T 9769   1.367   1.565  66.197  2.9574 -0.4146  0.4035
   98OSM   C11S 9770   1.282   1.401  66.078  0.6141 -0.6382 -0.4852
   98OSM   H11S 9771   1.355   1.414  65.995 -1.6645  1.2859 -2.3553
   98OSM   H11T 9772   1.188   1.452  66.046  0.7162  0.3094  0.6698
   98OSM   C12S 9773   1.256   1.251  66.084 -0.7059  1.0944  0.3455
   98OSM   H12S 9774   1.171   1.234  66.154  0.3310 -1.3799  1.1277
   98OSM   H12T 9775   1.345   1.203  66.130 -0.8203  2.6994  2.3620
   98OSM   C13S 9776   1.210   1.192  65.948 -0.1382  0.3169 -0.9311
   98OSM   H13S 9777   1.147   1.264  65.892 -2.5811 -1.8391 -1.1396
   98OSM   H13T 9778   1.152   1.105  65.986  0.1291  1.1116  1.4644
   98OSM   C14S 9779   1.331   1.153  65.862 -0.1257 -0.1558  0.6317
   98OSM   H14S 9780   1.383   1.075  65.922 -2.2187 -2.6959 -0.6384
   98OSM   H14T 9781   1.405   1.234  65.849  1.4006 -1.4498  0.8466
   98OSM   C15S 9782   1.290   1.075  65.729  0.0640 -0.4114 -0.3589
   98OSM   H15S 9783   1.225   1.137  65.663  0.6978  2.5604  1.6214
   98OSM   H15T 9784   1.240   0.979  65.753  0.2746 -0.9378 -1.9311
   98OSM   C16S 9785   1.410   1.042  65.639 -0.0473  0.1774  0.3698
   98OSM   H16S 9786   1.442   0.952  65.695 -2.0592 -1.4115 -0.8481
   98OSM   H16T 9787   1.490   1.118  65.632  0.0980  0.5284  4.0839
   98OSM   C17S 9788   1.376   1.008  65.494 -0.2853 -0.7085  0.4941
   98OSM   H17S 9789   1.330   0.907  65.490  1.9018 -1.7395 -0.4916
   98OSM   H17T 9790   1.472   0.983  65.443  0.3313 -1.5738  2.0041
   98OSM   C18S 9791   1.294   1.110  65.411  0.5927  0.4297 -0.5298
   98OSM   H18S 9792   1.312   1.107  65.301 -1.1092  1.0861 -0.8593
   98OSM   H18T 9793   1.327   1.212  65.438  2.6087 -0.3313  0.0577
   98OSM   H18U 9794   1.184   1.098  65.417  0.3845  2.1386 -0.5176
   98OSM    C1F 9795   0.407   1.414  66.465  0.1534  1.3771  0.5919
   98OSM     OF 9796   0.373   1.516  66.511  0.5041 -0.2194 -0.6522
   98OSM    C2F 9797   0.334   1.364  66.345 -0.9217  0.4210  0.6276
   98OSM    H2F 9798   0.285   1.268  66.371 -1.5851  0.5534 -0.0913
   98OSM    H2G 9799   0.416   1.361  66.271  1.5706  0.8371  3.2052
   98OSM    C3F 9800   0.221   1.451  66.276  0.0802 -0.4089 -0.1764
   98OSM    H3F 9801   0.259   1.552  66.250 -1.7222  0.3872  0.1474
   98OSM    H3G 9802   0.137   1.461  66.348 -0.9622 -1.8451 -1.1288
   98OSM    C4F 9803   0.162   1.391  66.157 -0.0173 -0.1581  0.2606
   98OSM    H4F 9804   0.109   1.298  66.186 -0.4542 -0.8018 -2.3068
   98OSM    H4G 9805   0.234   1.355  66.080  1.2792  0.1484  1.2937
   98OSM    C5F 9806   0.078   1.497  66.084  0.3150  0.2266  0.4204
   98OSM    H5F 9807   0.136   1.580  66.039  0.1370  1.0268  1.6333
   98OSM    H5G 9808  -0.001   1.551  66.141  1.6905  0.0705  2.5796
   98OSM    C6F 9809   0.001   1.419  65.978 -0.0043  0.0391  0.3763
   98OSM    H6F 9810  -0.077   1.492  65.946 -1.0508  0.6276  3.8378
   98OSM    H6G 9811  -0.047   1.328  66.018  2.4028 -1.7372 -0.5422
   98OSM    C7F 9812   0.085   1.401  65.853 -0.7814 -0.4305 -0.8108
   98OSM    H7F 9813   0.186   1.357  65.870  0.1104  0.6073 -3.0809
   98OSM    H7G 9814   0.109   1.503  65.816  0.6617 -0.5702 -0.3441
   98OSM    C8F 9815   0.024   1.316  65.743 -0.3274 -0.1836  0.2563
   98OSM    H8F 9816   0.086   1.337  65.653  0.1452 -1.3090  0.3127
   98OSM    H8G 9817  -0.085   1.324  65.720  0.0303 -0.9448 -1.8979
   98OSM    C9F 9818   0.058   1.166  65.769 -0.7014  0.1522  0.0545
   98OSM    H9F 9819   0.074   1.130  65.872  3.1926 -1.3486 -0.8783
   98OSM   C10F 9820   0.055   1.083  65.662  0.7334 -0.0347 -0.6923
   98OSM   H10F 9821   0.050   0.977  65.692 -0.3869  1.0338  3.6257
   98OSM   C11F 9822   0.010   1.121  65.520  1.0782 -0.2564 -0.5947
   98OSM   H11F 9823   0.041   1.037  65.455  1.4227 -1.4791  1.0718
   98OSM   H11G 9824   0.074   1.208  65.496  1.3634  1.3127  4.6753
   98OSM   C12F 9825  -0.145   1.143  65.495 -0.8448  0.1676 -0.0194
   98OSM   H12F 9826  -0.175   1.228  65.560  2.3625  0.4736  1.2246
   98OSM   H12G 9827  -0.187   1.047  65.532  0.0883 -0.5652 -0.8175
   98OSM   C13F 9828  -0.176   1.174  65.348  1.0074  0.9715  0.0174
   98OSM   H13F 9829  -0.155   1.084  65.287 -0.8171 -0.5861  1.5847
   98OSM   H13G 9830  -0.103   1.255  65.322  0.3519  1.7632  0.5708
   98OSM   C14F 9831  -0.316   1.223  65.340 -0.9324  0.2152  0.6203
   98OSM   H14F 9832  -0.332   1.291  65.254  1.0616 -1.5755 -1.2823
   98OSM   H14G 9833  -0.327   1.294  65.424  0.6915  3.6719 -1.8702
   98OSM   C15F 9834  -0.436   1.126  65.344  0.1223 -0.1183 -0.0700
   98OSM   H15F 9835  -0.531   1.184  65.343 -1.1819 -2.0833  1.4081
   98OSM   H15G 9836  -0.419   1.069  65.438  0.1852 -0.0803 -0.0553
   98OSM   C16F 9837  -0.432   1.026  65.227 -0.3306  0.7773 -0.7708
   98OSM   H16F 9838  -0.342   0.965  65.250  1.2556  2.2770 -2.6261
   98OSM   H16G 9839  -0.429   1.066  65.123  2.7209 -2.3971 -2.0940
   98OSM   C17F 9840  -0.564   0.943  65.238 -0.8669 -0.3534 -0.0497
   98OSM   H17F 9841  -0.649   1.015  65.248 -0.0683  0.5264  0.5593
   98OSM   H17G 9842  -0.553   0.899  65.340  1.1846  1.1700  0.4489
   98OSM   C18F 9843  -0.585   0.831  65.139 -0.0091 -0.5163 -0.1920
   98OSM   H18F 9844  -0.687   0.787  65.136  0.7884 -2.4370 -2.7136
   98OSM   H18G 9845  -0.528   0.739  65.165 -0.3936 -0.7050 -0.0167
   98OSM   H18H 9846  -0.571   0.865  65.034 -1.8562  4.0949  0.8304
   99OSM      N 9847   2.288   0.533  63.176  0.4361 -0.6785  0.3368
   99OSM    C15 9848   2.186   0.481  63.092  0.6301 -0.1613  0.0437
   99OSM   H15A 9849   2.125   0.397  63.121 -2.3939  0.6903 -3.1153
   99OSM   H15B 9850   2.227   0.454  62.996  2.2163  2.3828 -0.1030
   99OSM   H15C 9851   2.110   0.555  63.071 -1.9668 -2.0519  2.1180
   99OSM    C14 9852   2.377   0.633  63.110  0.2376 -0.4360 -0.3616
   99OSM   H14A 9853   2.410   0.579  63.023 -0.1613  1.3686 -1.6812
   99OSM   H14B 9854   2.462   0.660  63.171  1.7556 -2.2073 -1.5813
   99OSM   H14C 9855   2.336   0.727  63.075  3.8757  0.7905 -1.8620
   99OSM    C13 9856   2.204   0.601  63.287 -0.6241 -0.0809 -0.4964
   99OSM   H13A 9857   2.206   0.708  63.296 -5.5499  0.0844  1.7143
   99OSM   H13B 9858   2.243   0.568  63.383  1.1070  1.8466 -0.4603
   99OSM   H13C 9859   2.102   0.569  63.272 -0.4696 -2.3131  2.2664
   99OSM    C12 9860   2.354   0.425  63.243 -0.2187 -0.0216  0.7582
   99OSM   H12A 9861   2.271   0.371  63.286 -1.7334  1.3122 -0.3831
   99OSM   H12B 9862   2.416   0.458  63.325 -2.5367 -0.1188  2.6586
   99OSM    C11 9863   2.431   0.338  63.150  0.9073 -0.3252 -0.5362
   99OSM   H11A 9864   2.526   0.393  63.132  1.8062 -1.5368  0.3497
   99OSM   H11B 9865   2.384   0.325  63.051  2.4964 -0.1475 -1.3362
   99OSM      P 9866   2.473   0.087  63.116  0.2993  0.0189  0.4008
   99OSM    O13 9867   2.533  -0.015  63.200  0.0897  0.0704  0.7860
   99OSM    O14 9868   2.341   0.053  63.053  0.1881  0.9721 -0.1515
   99OSM    O11 9869   2.577   0.133  63.009 -0.3051 -0.2569 -0.9565
   99OSM    O12 9870   2.464   0.213  63.217 -0.6335 -0.0119  0.0978
   99OSM    C1S 9871   2.641   0.021  62.934  0.7706 -0.3503  0.0703
   99OSM    H1S 9872   2.650  -0.070  62.997  0.3244  0.7315  1.7618
   99OSM    H1T 9873   2.743   0.040  62.895 -0.2386 -0.4627 -2.8654
   99OSM     NF 9874   2.615  -0.146  62.740  1.2718 -0.4992 -0.1672
   99OSM    HNF 9875   2.673  -0.140  62.659  3.9204 -0.4820  1.5866
   99OSM    C2S 9876   2.567  -0.019  62.800  0.3459  0.5827  0.6604
   99OSM    H2S 9877   2.463  -0.037  62.835  0.0970  2.7691  1.2405
   99OSM    C3S 9878   2.560   0.107  62.699 -0.5868  0.9841  0.3961
   99OSM    H3S 9879   2.663   0.134  62.667 -0.1695 -2.5735 -1.8381
   99OSM     O3 9880   2.525   0.234  62.762 -0.4100 -0.1685  0.5270
   99OSM    HO3 9881   2.506   0.219  62.855 -2.2857  4.3270  1.0938
   99OSM    C4S 9882   2.472   0.081  62.578 -0.7689  0.1754 -0.2707
   99OSM    H4S 9883   2.370   0.039  62.580 -0.3182 -0.9322  1.1303
   99OSM    C5S 9884   2.535   0.081  62.459  0.5615 -0.3827 -0.1656
   99OSM    H5S 9885   2.644   0.089  62.470  0.2864 -0.2147  3.9300
   99OSM    C6S 9886   2.459   0.046  62.326 -0.2060 -1.1989 -0.4922
   99OSM    H6S 9887   2.348   0.052  62.335 -0.0720  0.0997  0.7615
   99OSM    H6T 9888   2.476  -0.063  62.311  1.9981 -0.7738 -1.5222
   99OSM    C7S 9889   2.521   0.119  62.210 -0.3283 -0.1974 -0.1625
   99OSM    H7S 9890   2.629   0.101  62.227 -1.2122 -4.3890  2.5415
   99OSM    H7T 9891   2.498   0.227  62.197  0.4217 -0.0666 -0.4729
   99OSM    C8S 9892   2.500   0.058  62.067 -0.2161  0.2930 -0.8713
   99OSM    H8S 9893   2.395   0.069  62.032 -0.9107 -2.2276  0.1455
   99OSM    H8T 9894   2.506  -0.053  62.064  3.0177  0.2898  1.1806
   99OSM    C9S 9895   2.592   0.115  61.958  0.3808 -0.4804  0.0821
   99OSM    H9S 9896   2.696   0.085  61.984  0.1392 -0.2303  1.4342
   99OSM    H9T 9897   2.611   0.224  61.959  1.6027 -0.5584  4.0312
   99OSM   C10S 9898   2.568   0.050  61.824 -0.4709 -0.2021 -0.1176
   99OSM   H10S 9899   2.465   0.072  61.789  0.5432  0.0302 -3.2822
   99OSM   H10T 9900   2.589  -0.059  61.830 -1.0095 -0.2932  0.2214
   99OSM   C11S 9901   2.661   0.096  61.711  0.0213 -0.3923 -0.1412
   99OSM   H11S 9902   2.661   0.043  61.613 -0.3404  0.6420 -0.7125
   99OSM   H11T 9903   2.767   0.079  61.738  0.3553 -1.1436 -1.7596
   99OSM   C12S 9904   2.630   0.242  61.672 -0.7176  0.1109 -0.0817
   99OSM   H12S 9905   2.522   0.266  61.659 -0.2675  1.0787 -2.4039
   99OSM   H12T 9906   2.667   0.307  61.754 -0.4374  2.1452 -1.7565
   99OSM   C13S 9907   2.704   0.288  61.537  0.5719  0.0681  0.9709
   99OSM   H13S 9908   2.658   0.386  61.511 -1.1281 -1.0650 -0.5989
   99OSM   H13T 9909   2.674   0.214  61.460 -0.4478 -1.4210  2.7187
   99OSM   C14S 9910   2.851   0.297  61.527 -0.1832  0.5409  0.2442
   99OSM   H14S 9911   2.892   0.202  61.566 -1.0945  1.2279  3.0873
   99OSM   H14T 9912   2.896   0.375  61.593  3.5834 -1.0679 -0.1297
   99OSM   C15S 9913   2.904   0.324  61.386 -0.0424  0.0186  0.5019
   99OSM   H15S 9914   2.883   0.427  61.351  0.9326 -0.8424 -2.9628
   99OSM   H15T 9915   2.842   0.257  61.322 -0.5867 -0.8089  1.8613
   99OSM   C16S 9916   3.055   0.298  61.363 -1.1400  0.0726  1.3836
   99OSM   H16S 9917   3.066   0.193  61.399 -1.2791 -0.8795 -1.1283
   99OSM   H16T 9918   3.121   0.359  61.428  1.6925 -1.2542 -0.0511
   99OSM   C17S 9919   3.098   0.315  61.211  0.1061  0.1152  0.6278
   99OSM   H17S 9920   3.039   0.401  61.172 -1.3385 -0.2116  2.0040
   99OSM   H17T 9921   3.055   0.225  61.162  1.1044  0.8948 -1.8466
   99OSM   C18S 9922   3.240   0.312  61.171 -0.7736  0.0784  0.4264
   99OSM   H18S 9923   3.274   0.206  61.165 -0.8264 -0.3980  4.8591
   99OSM   H18T 9924   3.299   0.359  61.254 -1.2468  0.0916  0.7573
   99OSM   H18U 9925   3.275   0.361  61.078  3.4108 -0.0619  1.6805
   99OSM    C1F 9926   2.602  -0.264  62.799  1.1088  0.8099  0.7733
   99OSM     OF 9927   2.526  -0.269  62.897 -0.6908 -0.3905 -0.7543
   99OSM    C2F 9928   2.682  -0.376  62.734  0.4323  0.2909 -0.4865
   99OSM    H2F 9929   2.779  -0.327  62.713 -0.1407  2.1187  0.8497
   99OSM    H2G 9930   2.630  -0.408  62.641  1.9784  1.7722 -1.9344
   99OSM    C3F 9931   2.695  -0.505  62.825  0.0014 -0.1604 -0.9424
   99OSM    H3F 9932   2.762  -0.485  62.912  0.1274  1.6516 -1.4171
   99OSM    H3G 9933   2.594  -0.529  62.863  1.7768 -5.9208  1.1849
   99OSM    C4F 9934   2.747  -0.624  62.744  0.9371  0.2592  0.2282
   99OSM    H4F 9935   2.831  -0.661  62.806 -0.2025 -1.2213  0.9520
   99OSM    H4G 9936   2.780  -0.574  62.651 -0.4927 -1.8870 -1.5228
   99OSM    C5F 9937   2.660  -0.746  62.707  0.1313  0.1111  0.3202
   99OSM    H5F 9938   2.561  -0.710  62.672 -0.3470  1.4584  2.7773
   99OSM    H5G 9939   2.646  -0.786  62.810  2.7245  0.6466  0.9551
   99OSM    C6F 9940   2.724  -0.856  62.629  0.0216 -0.3236 -0.1335
   99OSM    H6F 9941   2.675  -0.950  62.662 -0.4080 -1.5132 -3.6758
   99OSM    H6G 9942   2.834  -0.848  62.642  0.1404  0.6647 -1.4962
   99OSM    C7F 9943   2.700  -0.840  62.478 -1.1802  0.4081  0.3589
   99OSM    H7F 9944   2.762  -0.751  62.453 -2.9648  1.5733 -0.1466
   99OSM    H7G 9945   2.592  -0.814  62.467 -1.7834 -2.1576 -0.3455
   99OSM    C8F 9946   2.733  -0.967  62.394  0.2583 -0.0618  0.2327
   99OSM    H8F 9947   2.731  -0.926  62.291 -1.6157  1.7116  0.9094
   99OSM    H8G 9948   2.649  -1.039  62.387 -0.7716  1.1622 -0.1724
   99OSM    C9F 9949   2.864  -1.030  62.446 -1.1411  0.0669  0.3721
   99OSM    H9F 9950   2.935  -0.955  62.483 -1.3282  0.1687  0.5294
   99OSM   C10F 9951   2.905  -1.155  62.437  0.2087 -0.1746  0.5505
   99OSM   H10F 9952   3.003  -1.181  62.479 -0.7964 -0.7066  2.7098
   99OSM   C11F 9953   2.830  -1.262  62.373 -0.9547  0.8369  1.0729
   99OSM   H11F 9954   2.724  -1.244  62.344 -0.6577 -1.6189 -2.1302
   99OSM   H11G 9955   2.819  -1.359  62.427  0.5641  0.5304  0.8776
   99OSM   C12F 9956   2.915  -1.303  62.238 -0.0885  0.1165 -0.3078
   99OSM   H12F 9957   2.896  -1.409  62.210  0.7885  0.0161 -0.5411
   99OSM   H12G 9958   3.025  -1.302  62.246  0.0845 -1.6640 -1.6777
   99OSM   C13F 9959   2.877  -1.217  62.127  0.2660 -1.0997  0.6745
   99OSM   H13F 9960   2.925  -1.117  62.111  2.6149 -2.3560 -0.8590
   99OSM   H13G 9961   2.770  -1.200  62.150  0.8108  2.4821  1.2724
   99OSM   C14F 9962   2.891  -1.287  61.996  0.5732 -0.1325 -0.0656
   99OSM   H14F 9963   2.843  -1.385  62.010  2.6285 -1.0872  0.7355
   99OSM   H14G 9964   2.998  -1.307  61.973  0.4664  0.3745 -1.0644
   99OSM   C15F 9965   2.816  -1.218  61.881  0.8115 -0.6859  0.4768
   99OSM   H15F 9966   2.820  -1.108  61.897 -0.6295 -0.1334 -2.2466
   99OSM   H15G 9967   2.706  -1.236  61.873  0.5979  0.7181 -0.0351
   99OSM   C16F 9968   2.874  -1.278  61.746  0.1582  0.2436 -0.5283
   99OSM   H16F 9969   2.839  -1.383  61.741  0.6700 -0.0325  1.0437
   99OSM   H16G 9970   2.985  -1.270  61.746  0.0649  1.8648  0.1288
   99OSM   C17F 9971   2.820  -1.198  61.616  0.3417  0.0019  0.2862
   99OSM   H17F 9972   2.858  -1.245  61.522  1.6576  1.8063 -0.1419
   99OSM   H17G 9973   2.862  -1.097  61.633  0.3919  0.2573 -1.2153
   99OSM   C18F 9974   2.665  -1.188  61.603  0.3016 -0.7489 -0.8025
   99OSM   H18F 9975   2.637  -1.128  61.514 -1.2929  0.8383  0.6953
   99OSM   H18G 9976   2.632  -1.117  61.682  0.0582 -1.8668  0.1261
   99OSM   H18H 9977   2.614  -1.286  61.607 -1.9372  0.3873 -0.1333
  100OSM      N 9978   1.040   0.895  59.227 -0.8133 -0.3904 -1.0619
  100OSM    C15 9979   1.017   0.919  59.384 -0.2924  0.1719  0.5167
  100OSM   H15A 9980   1.095   0.983  59.422  3.0685 -2.0529 -2.0551
  100OSM   H15B 9981   1.000   0.828  59.440  0.3707 -0.5333 -0.4013
  100OSM   H15C 9982   0.927   0.978  59.383 -0.5097 -0.1069 -1.4430
  100OSM    C14 9983   0.906   0.912  59.160 -0.5908 -0.1059 -0.5004
  100OSM   H14A 9984   0.840   0.852  59.221 -1.8494 -3.4229 -4.5753
  100OSM   H14B 9985   0.904   0.872  59.059 -0.9703 -4.7598  1.1048
  100OSM   H14C 9986   0.883   1.017  59.151  1.4988  0.3152 -1.7105
  100OSM    C13 9987   1.130   0.999  59.164 -0.2099 -0.0677 -0.7241
  100OSM   H13A 9988   1.230   0.976  59.198  0.4086 -3.2163 -4.0185
  100OSM   H13B 9989   1.106   1.101  59.189  1.1301 -0.1643  1.1857
  100OSM   H13C 9990   1.122   0.988  59.057 -1.0351 -0.4387 -0.6289
  100OSM    C12 9991   1.104   0.759  59.203 -0.2482  0.3701 -0.1566
  100OSM   H12A 9992   1.114   0.754  59.096  2.1825  1.0926 -0.0247
  100OSM   H12B 9993   1.038   0.682  59.240 -0.7768  1.7777  2.0427
  100OSM    C11 9994   1.247   0.735  59.264 -0.2222  0.5061 -0.7329
  100OSM   H11A 9995   1.261   0.627  59.285  3.6393  1.5506  3.9574
  100OSM   H11B 9996   1.267   0.770  59.368 -1.0877 -0.9292 -0.0598
  100OSM      P 9997   1.389   0.712  59.051 -0.0803 -0.2847 -0.2549
  100OSM    O13 9998   1.296   0.719  58.936  0.0080 -0.1003  0.7147
  100OSM    O14 9999   1.533   0.746  59.027  0.3400  0.1036 -0.2866
  100OSM    O1110000   1.388   0.561  59.099 -0.8201 -0.5276 -0.2393
  100OSM    O1210001   1.351   0.795  59.178  1.3305 -0.4048  0.2739
  100OSM    C1S10002   1.476   0.517  59.201  1.3015 -0.2691  0.0941
  100OSM    H1S10003   1.438   0.547  59.301 -2.2068 -1.7158 -0.6663
  100OSM    H1T10004   1.566   0.580  59.184 -0.7566  2.7439 -0.2897
  100OSM     NF10005   1.566   0.322  59.330 -0.0807 -0.4760  0.6431
  100OSM    HNF10006   1.661   0.293  59.322  0.1209  0.2689  0.2589
  100OSM    C2S10007   1.505   0.369  59.200  0.1687  0.3339  0.6153
  100OSM    H2S10008   1.407   0.317  59.190  0.5041 -0.6209  1.9626
  100OSM    C3S10009   1.588   0.329  59.073 -0.2196  0.2022 -0.4402
  100OSM    H3S10010   1.686   0.376  59.094 -0.2323  1.3217 -2.6695
  100OSM     O310011   1.539   0.378  58.949  0.3880 -0.2918  0.5684
  100OSM    HO310012   1.464   0.427  58.983  1.4909  2.1059 -0.2194
  100OSM    C4S10013   1.610   0.173  59.083  0.5521 -0.1843  0.0718
  100OSM    H4S10014   1.688   0.142  59.154  0.3504  1.5395  1.1047
  100OSM    C5S10015   1.525   0.081  59.040  0.1848  0.1454 -0.2453
  100OSM    H5S10016   1.435   0.116  58.988  0.1038  0.9648  0.4272
  100OSM    C6S10017   1.547  -0.066  59.062 -0.3757 -0.2892  0.4103
  100OSM    H6S10018   1.447  -0.113  59.078 -0.4458 -0.8931 -1.4933
  100OSM    H6T10019   1.602  -0.092  59.155 -0.1197  0.5775  0.5010
  100OSM    C7S10020   1.613  -0.144  58.937  0.3156  0.8448 -0.0063
  100OSM    H7S10021   1.653  -0.242  58.971 -4.6560 -0.5646  2.8135
  100OSM    H7T10022   1.695  -0.081  58.897  1.6289 -0.8009 -0.0218
  100OSM    C8S10023   1.509  -0.166  58.826  0.3793  0.1846 -0.2788
  100OSM    H8S10024   1.558  -0.189  58.729  0.5819 -2.5660  0.3864
  100OSM    H8T10025   1.450  -0.075  58.804 -1.2400 -0.7948 -0.1785
  100OSM    C9S10026   1.428  -0.293  58.861 -0.3961 -1.0048 -0.5957
  100OSM    H9S10027   1.392  -0.300  58.966  0.9266 -1.0865 -0.1349
  100OSM    H9T10028   1.501  -0.377  58.858 -0.3304 -0.9700 -0.1405
  100OSM   C10S10029   1.312  -0.322  58.768 -0.0960  0.1890  0.6692
  100OSM   H10S10030   1.364  -0.355  58.675  1.4847 -2.3026  2.3231
  100OSM   H10T10031   1.268  -0.221  58.758 -0.5276 -0.0890 -0.4262
  100OSM   C11S10032   1.207  -0.435  58.814 -1.1640 -0.3133 -0.1975
  100OSM   H11S10033   1.275  -0.516  58.850  0.9867  0.5634 -2.0318
  100OSM   H11T10034   1.160  -0.476  58.723 -0.7548  1.9778 -1.5323
  100OSM   C12S10035   1.105  -0.382  58.932 -0.2179  0.5060  0.8240
  100OSM   H12S10036   1.068  -0.279  58.915 -4.3464 -0.9285 -0.1840
  100OSM   H12T10037   1.157  -0.378  59.030  3.3390  1.3283 -0.9195
  100OSM   C13S10038   0.986  -0.473  58.936  0.0884  0.4940  0.6429
  100OSM   H13S10039   1.014  -0.579  58.957  3.5635  0.9846 -0.7931
  100OSM   H13T10040   0.922  -0.461  58.846 -1.0627 -1.8706  1.0506
  100OSM   C14S10041   0.891  -0.449  59.060 -0.5055  0.8317 -0.7601
  100OSM   H14S10042   0.851  -0.345  59.062 -0.4834  0.8218  0.5519
  100OSM   H14T10043   0.949  -0.472  59.151 -0.7411  0.2841 -0.7442
  100OSM   C15S10044   0.762  -0.529  59.072 -0.4907  0.1804  0.2568
  100OSM   H15S10045   0.769  -0.630  59.116  4.5863  0.8161  1.4420
  100OSM   H15T10046   0.712  -0.550  58.974  1.0050 -0.9309 -0.2943
  100OSM   C16S10047   0.655  -0.448  59.161 -0.3579 -0.7916  0.1076
  100OSM   H16S10048   0.641  -0.345  59.122  0.6380 -0.0946  1.5037
  100OSM   H16T10049   0.683  -0.441  59.268  0.3840  1.1181 -0.1697
  100OSM   C17S10050   0.519  -0.522  59.168  0.4771  0.0521 -0.2954
  100OSM   H17S10051   0.524  -0.617  59.225 -0.7350 -0.0171 -0.2870
  100OSM   H17T10052   0.475  -0.535  59.066  0.5753  2.2332 -0.6844
  100OSM   C18S10053   0.430  -0.425  59.250 -0.5477  0.3227  0.3327
  100OSM   H18S10054   0.483  -0.406  59.345 -0.9615 -0.2441  0.6790
  100OSM   H18T10055   0.335  -0.470  59.285  1.3815 -2.5160  2.3196
  100OSM   H18U10056   0.406  -0.328  59.200  0.9356  1.7640  2.2582
  100OSM    C1F10057   1.497   0.295  59.436 -0.1871 -0.0269 -1.0393
  100OSM     OF10058   1.375   0.323  59.441  0.2673 -0.8197  0.0050
  100OSM    C2F10059   1.567   0.212  59.540  0.3485  0.8641 -1.2184
  100OSM    H2F10060   1.670   0.239  59.571  0.3169  3.3424 -3.0086
  100OSM    H2G10061   1.555   0.105  59.515 -2.6570  0.0910  2.5343
  100OSM    C3F10062   1.491   0.226  59.676 -0.0135 -0.2569 -0.7167
  100OSM    H3F10063   1.384   0.206  59.649  0.7463 -4.0394 -1.5762
  100OSM    H3G10064   1.513   0.330  59.707  0.4304 -0.6140  0.1740
  100OSM    C4F10065   1.534   0.133  59.797  0.3662  0.2188  0.1710
  100OSM    H4F10066   1.492   0.030  59.786  0.7722 -0.0605  1.1090
  100OSM    H4G10067   1.500   0.175  59.894 -4.5427 -1.4913 -0.5345
  100OSM    C5F10068   1.685   0.103  59.804  0.5764 -1.4641  0.7016
  100OSM    H5F10069   1.734   0.203  59.808 -1.1318 -0.5027 -0.7546
  100OSM    H5G10070   1.709   0.043  59.713  1.4517 -0.8876  0.5393
  100OSM    C6F10071   1.702   0.021  59.933 -0.6467  0.4109 -0.3745
  100OSM    H6F10072   1.648  -0.075  59.925  0.0853  0.1535 -3.0723
  100OSM    H6G10073   1.650   0.063  60.022 -0.0541  0.5576 -0.0869
  100OSM    C7F10074   1.852   0.012  59.976  0.9607  0.3513  0.2243
  100OSM    H7F10075   1.886   0.117  59.969 -2.1034  1.5530  1.7640
  100OSM    H7G10076   1.911  -0.048  59.903  0.8951  2.1488 -1.3653
  100OSM    C8F10077   1.883  -0.034  60.122 -0.1194 -0.7633  0.1770
  100OSM    H8F10078   1.994  -0.029  60.121 -0.1373 -0.0780  0.6748
  100OSM    H8G10079   1.841  -0.136  60.136 -0.3485 -0.5503  1.1170
  100OSM    C9F10080   1.851   0.054  60.235  0.4027 -0.7242 -0.4723
  100OSM    H9F10081   1.745   0.063  60.262  0.0645  0.4856 -2.0334
  100OSM   C10F10082   1.944   0.142  60.292 -0.7460  0.4770 -1.5551
  100OSM   H10F10083   1.917   0.187  60.388 -0.1553  0.3989 -1.3495
  100OSM   C11F10084   2.089   0.153  60.260 -0.8945 -0.4997 -0.1188
  100OSM   H11F10085   2.125   0.249  60.303  0.8079 -1.6925  1.2417
  100OSM   H11G10086   2.112   0.151  60.151 -0.0433  3.5912 -0.1654
  100OSM   C12F10087   2.178   0.046  60.322  0.1614  0.5939  0.6999
  100OSM   H12F10088   2.163  -0.039  60.252 -0.2842  0.9747  0.3221
  100OSM   H12G10089   2.163   0.016  60.429  0.3465 -0.6136  0.4047
  100OSM   C13F10090   2.317   0.089  60.326  0.2791 -0.0419 -0.0917
  100OSM   H13F10091   2.321   0.185  60.382  1.4830  1.0479 -1.9345
  100OSM   H13G10092   2.366   0.102  60.227 -1.4215 -1.6407 -1.1890
  100OSM   C14F10093   2.396  -0.016  60.401 -0.0898  1.0851  0.8165
  100OSM   H14F10094   2.374  -0.116  60.359 -4.3146  3.0266 -2.3219
  100OSM   H14G10095   2.376  -0.007  60.510  2.5777  2.6147  1.2612
  100OSM   C15F10096   2.554  -0.004  60.387  1.0707  0.9579  0.1743
  100OSM   H15F10097   2.580  -0.022  60.281 -1.4924 -0.0895 -0.3503
  100OSM   H15G10098   2.589  -0.094  60.440 -1.8994  2.0786  4.6672
  100OSM   C16F10099   2.608   0.125  60.444 -1.1286 -0.0457  0.6236
  100OSM   H16F10100   2.531   0.200  60.471 -0.1881  0.8204  0.9720
  100OSM   H16G10101   2.674   0.166  60.364 -5.5078  1.0315 -2.7821
  100OSM   C17F10102   2.682   0.097  60.573  0.2269 -0.5923  0.3963
  100OSM   H17F10103   2.732  -0.002  60.572 -1.3820 -1.4452 -1.3890
  100OSM   H17G10104   2.607   0.088  60.655  0.4083 -1.4852  0.4747
  100OSM   C18F10105   2.792   0.198  60.597  0.3405 -0.4065  0.1512
  100OSM   H18F10106   2.884   0.177  60.539  0.5232  1.1934 -0.1689
  100OSM   H18G10107   2.804   0.219  60.705  2.8682 -2.0455  0.2674
  100OSM   H18H10108   2.771   0.294  60.545  2.1325 -0.1730 -0.2040
  101OSM      N10109   0.358   1.532  68.914  0.2153  0.4034  0.0202
  101OSM    C1510110   0.294   1.460  69.036  0.3788 -0.0514 -0.3828
  101OSM   H15A10111   0.248   1.535  69.099  1.5106 -0.6844  1.2508
  101OSM   H15B10112   0.369   1.427  69.107 -0.6518 -2.9529 -0.5233
  101OSM   H15C10113   0.218   1.387  69.013  0.3729 -1.2296  2.9035
  101OSM    C1410114   0.243   1.579  68.824 -0.6037 -0.7645  0.7024
  101OSM   H14A10115   0.175   1.638  68.884  0.4762 -1.4783  2.6868
  101OSM   H14B10116   0.196   1.485  68.798 -0.9543 -0.1121 -1.1792
  101OSM   H14C10117   0.283   1.634  68.740  1.7570  0.5411  2.5818
  101OSM    C1310118   0.439   1.640  68.973  0.2600 -0.3845 -0.5870
  101OSM   H13A10119   0.384   1.718  69.024  2.2596  1.0604 -0.5231
  101OSM   H13B10120   0.489   1.684  68.887  0.2031 -0.0801 -0.4673
  101OSM   H13C10121   0.523   1.598  69.026 -0.0228  0.0316  0.1947
  101OSM    C1210122   0.445   1.432  68.834  0.4079  0.4939 -0.0675
  101OSM   H12A10123   0.493   1.489  68.756 -0.8678 -1.0462 -2.0778
  101OSM   H12B10124   0.376   1.354  68.805  0.4920 -0.5704  2.3559
  101OSM    C1110125   0.562   1.368  68.904 -0.5986 -0.0794 -0.7895
  101OSM   H11A10126   0.613   1.449  68.960 -1.3167 -1.1087  1.4450
  101OSM   H11B10127   0.630   1.321  68.830 -1.0953  0.0229 -1.3205
  101OSM      P10128   0.579   1.140  69.032  0.4964  0.5981 -0.3556
  101OSM    O1310129   0.533   1.118  69.172 -0.5408  0.1922  0.4851
  101OSM    O1410130   0.563   1.042  68.925  0.9575  0.2766 -0.3937
  101OSM    O1110131   0.726   1.182  69.026  0.1101 -0.1724  0.6443
  101OSM    O1210132   0.504   1.269  68.987  0.1806 -0.2984  1.0452
  101OSM    C1S10133   0.831   1.130  69.105  0.6117 -0.1680  0.8788
  101OSM    H1S10134   0.831   1.020  69.089 -2.0286 -0.4096  2.0002
  101OSM    H1T10135   0.809   1.140  69.213  3.5810 -1.5463  1.7178
  101OSM     NF10136   1.063   1.098  69.159 -0.3734 -0.0822  0.1217
  101OSM    HNF10137   1.100   1.148  69.237  0.8504 -0.0023 -0.4821
  101OSM    C2S10138   0.977   1.172  69.070 -1.0823 -0.6131 -0.1666
  101OSM    H2S10139   0.998   1.139  68.966  3.4858 -0.9387  0.6531
  101OSM    C3S10140   0.991   1.326  69.085 -0.3075  0.6289  0.0611
  101OSM    H3S10141   1.007   1.341  69.194  0.5005 -1.6305  0.3027
  101OSM     O310142   0.885   1.407  69.035 -0.1096  0.4643  0.0229
  101OSM    HO310143   0.820   1.353  68.989  1.7383 -0.4417 -1.6676
  101OSM    C4S10144   1.107   1.373  69.007  0.5086  0.5056 -0.8253
  101OSM    H4S10145   1.079   1.404  68.905 -1.2911 -1.9657 -1.1839
  101OSM    C5S10146   1.237   1.359  69.044  0.4608  0.0349  0.3737
  101OSM    H5S10147   1.258   1.311  69.140 -2.4089 -2.0533  0.0911
  101OSM    C6S10148   1.352   1.400  68.957 -0.1829  0.8746  0.3668
  101OSM    H6S10149   1.316   1.399  68.852  0.4414 -2.7962  0.0539
  101OSM    H6T10150   1.430   1.323  68.976 -1.5486 -0.7153 -0.1983
  101OSM    C7S10151   1.409   1.541  68.989 -0.5586  0.3326  0.0054
  101OSM    H7S10152   1.512   1.533  68.946 -0.1040  0.6588  0.9864
  101OSM    H7T10153   1.430   1.541  69.099  0.1501  0.6353 -0.1239
  101OSM    C8S10154   1.315   1.659  68.950  0.1626  0.0922  0.3414
  101OSM    H8S10155   1.259   1.684  69.043  2.8076  0.5782  1.9290
  101OSM    H8T10156   1.243   1.624  68.873 -2.9648 -1.1272  3.5617
  101OSM    C9S10157   1.385   1.786  68.897  0.4494 -1.0858 -0.1649
  101OSM    H9S10158   1.449   1.827  68.978 -2.0586 -2.2222  2.5646
  101OSM    H9T10159   1.316   1.872  68.882  3.4096  1.4497 -0.2417
  101OSM   C10S10160   1.482   1.765  68.775  0.5321 -0.9915  1.0143
  101OSM   H10S10161   1.461   1.849  68.705 -1.8426 -0.1111  2.6349
  101OSM   H10T10162   1.446   1.670  68.730  1.0630 -1.7843  2.2162
  101OSM   C11S10163   1.641   1.774  68.786  0.6272  0.6744  0.4209
  101OSM   H11S10164   1.681   1.757  68.684 -3.2904 -3.9869 -0.6728
  101OSM   H11T10165   1.660   1.692  68.858 -0.1786  3.1248  3.6856
  101OSM   C12S10166   1.701   1.896  68.848  0.8267  0.0811  0.0532
  101OSM   H12S10167   1.638   1.982  68.817  0.9926 -0.3800 -1.6750
  101OSM   H12T10168   1.792   1.918  68.788 -0.8479  2.3069 -1.8539
  101OSM   C13S10169   1.732   1.895  68.998 -0.6185  0.3645 -0.4926
  101OSM   H13S10170   1.785   1.799  69.017 -0.8315  0.5504  1.1409
  101OSM   H13T10171   1.638   1.901  69.056 -0.4710 -0.7639 -0.1302
  101OSM   C14S10172   1.813   2.011  69.050 -1.2296  0.2723  0.4134
  101OSM   H14S10173   1.803   2.038  69.157 -0.6856  0.5497  0.4009
  101OSM   H14T10174   1.766   2.105  69.014  0.8068  0.9536 -0.5840
  101OSM   C15S10175   1.961   1.998  69.014  0.5462 -0.7620 -0.4987
  101OSM   H15S10176   1.974   1.997  68.904 -2.0706  1.1217 -0.9126
  101OSM   H15T10177   1.990   1.899  69.055  0.4218 -0.1528  1.1513
  101OSM   C16S10178   2.060   2.112  69.046 -0.2961 -0.3409 -0.4190
  101OSM   H16S10179   2.073   2.118  69.157  3.9136 -0.8242 -0.7355
  101OSM   H16T10180   2.024   2.199  68.986 -0.3565 -0.0569  0.0260
  101OSM   C17S10181   2.206   2.090  69.009  0.4686 -0.4811 -0.2258
  101OSM   H17S10182   2.229   1.992  69.055  0.1192  0.2754  1.6278
  101OSM   H17T10183   2.272   2.167  69.054 -0.1314  0.4404 -0.8781
  101OSM   C18S10184   2.228   2.099  68.861 -0.5749 -0.2631  0.0672
  101OSM   H18S10185   2.303   2.020  68.841 -1.4547 -0.9452 -0.6791
  101OSM   H18T10186   2.279   2.190  68.824  0.0351 -0.8130 -0.4767
  101OSM   H18U10187   2.143   2.077  68.792  2.6507 -0.8038 -4.1787
  101OSM    C1F10188   1.072   0.968  69.146 -0.0413 -0.5008 -0.9179
  101OSM     OF10189   1.041   0.907  69.045 -0.0989  0.0206 -0.0332
  101OSM    C2F10190   1.124   0.901  69.272 -0.1761 -0.0729  0.3390
  101OSM    H2F10191   1.043   0.835  69.308 -1.5623  2.5237  2.3686
  101OSM    H2G10192   1.139   0.977  69.352  1.2142 -0.2557  0.2767
  101OSM    C3F10193   1.259   0.821  69.263  0.6801 -0.3705 -0.3525
  101OSM    H3F10194   1.335   0.880  69.207  0.2682 -0.4167 -0.9738
  101OSM    H3G10195   1.242   0.742  69.187 -1.9886  1.3030 -1.6387
  101OSM    C4F10196   1.321   0.762  69.395  0.0300  0.0870  0.1881
  101OSM    H4F10197   1.273   0.669  69.432  3.4317 -1.8349  0.2259
  101OSM    H4G10198   1.334   0.837  69.475  3.0254 -0.3217  0.2097
  101OSM    C5F10199   1.474   0.739  69.369  0.3828  0.0650  0.5052
  101OSM    H5F10200   1.522   0.839  69.373  0.1364  0.1436  3.1151
  101OSM    H5G10201   1.490   0.708  69.263 -0.4037 -0.2156  0.4662
  101OSM    C6F10202   1.557   0.646  69.453  0.1109 -0.3254 -0.5082
  101OSM    H6F10203   1.659   0.657  69.411  1.0649 -2.4240  1.0579
  101OSM    H6G10204   1.547   0.680  69.558 -4.3087 -1.8834 -0.1888
  101OSM    C7F10205   1.514   0.501  69.453  0.4032 -0.3483  0.2575
  101OSM    H7F10206   1.554   0.455  69.360  1.3292  1.4183 -0.2748
  101OSM    H7G10207   1.403   0.491  69.443  0.5923 -0.2821 -2.7014
  101OSM    C8F10208   1.546   0.430  69.588  0.4360  1.0149 -0.6726
  101OSM    H8F10209   1.498   0.330  69.594  0.3711  1.1092  0.8128
  101OSM    H8G10210   1.496   0.489  69.668 -1.6834 -0.9810 -0.3923
  101OSM    C9F10211   1.696   0.430  69.609 -0.0945  0.0216  0.4721
  101OSM    H9F10212   1.756   0.383  69.530 -1.4341 -0.4821 -0.2850
  101OSM   C10F10213   1.758   0.443  69.723  0.5555  0.1154 -0.0152
  101OSM   H10F10214   1.867   0.451  69.725  0.6765 -1.3564  1.0290
  101OSM   C11F10215   1.696   0.486  69.855 -0.1264 -0.3969 -0.2371
  101OSM   H11F10216   1.756   0.435  69.933  0.2541  0.5273  0.0742
  101OSM   H11G10217   1.587   0.465  69.857 -0.9327  3.0178 -1.9618
  101OSM   C12F10218   1.709   0.632  69.871  0.6805  0.2682  0.4516
  101OSM   H12F10219   1.629   0.687  69.816 -1.3904 -3.1797 -0.2355
  101OSM   H12G10220   1.804   0.673  69.830  0.5688  1.1101  1.0141
  101OSM   C13F10221   1.690   0.694  70.014  0.4337 -0.3849 -0.1760
  101OSM   H13F10222   1.603   0.662  70.076  1.2026 -0.9696  0.6261
  101OSM   H13G10223   1.683   0.803  69.995  3.8433 -0.0263 -0.0015
  101OSM   C14F10224   1.818   0.703  70.105 -0.4366  0.5477 -0.3036
  101OSM   H14F10225   1.898   0.755  70.049  0.3789  0.1681  0.4729
  101OSM   H14G10226   1.861   0.601  70.119 -1.3096  0.3719  1.3849
  101OSM   C15F10227   1.792   0.746  70.256 -0.1406 -0.5047  1.0011
  101OSM   H15F10228   1.882   0.763  70.318  1.2020  0.9940 -1.2449
  101OSM   H15G10229   1.722   0.678  70.309 -1.4748  0.7981  0.9759
  101OSM   C16F10230   1.715   0.885  70.267 -0.3883  0.9061 -0.1712
  101OSM   H16F10231   1.629   0.874  70.198 -0.9142  0.9300  0.4664
  101OSM   H16G10232   1.775   0.971  70.232 -1.3185  1.1442 -1.2231
  101OSM   C17F10233   1.661   0.901  70.415  0.6106  0.2746  0.2167
  101OSM   H17F10234   1.591   0.818  70.439 -1.9883  1.6848 -1.9908
  101OSM   H17G10235   1.601   0.995  70.413  0.9341  0.5007  0.7949
  101OSM   C18F10236   1.772   0.930  70.509 -0.4051  1.1962 -0.0871
  101OSM   H18F10237   1.848   0.849  70.503 -1.1927  0.3098  1.2516
  101OSM   H18G10238   1.738   0.949  70.613 -1.5305 -0.3745 -0.1267
  101OSM   H18H10239   1.831   1.017  70.472 -1.5804  2.1971  0.3401
  102OSM      N10240   0.652   0.383  73.339 -0.7096 -1.2449  0.3616
  102OSM    C1510241   0.688   0.522  73.395 -0.1561  0.4894  0.9709
  102OSM   H15A10242   0.605   0.587  73.420 -1.4760 -0.1466 -1.3785
  102OSM   H15B10243   0.754   0.572  73.325  1.0690 -3.0609 -0.6546
  102OSM   H15C10244   0.758   0.509  73.476  0.8923 -1.5112 -0.1689
  102OSM    C1410245   0.612   0.421  73.200 -1.1760 -0.3340 -0.1415
  102OSM   H14A10246   0.534   0.495  73.207  0.5788  1.6550 -0.5529
  102OSM   H14B10247   0.576   0.336  73.144 -1.0636 -0.5475  0.1056
  102OSM   H14C10248   0.693   0.473  73.152  2.1908 -1.3600  3.9070
  102OSM    C1310249   0.771   0.293  73.341 -0.2591 -0.0225  0.3025
  102OSM   H13A10250   0.815   0.286  73.439  1.9657  0.3941 -0.6024
  102OSM   H13B10251   0.847   0.321  73.269 -0.8708 -1.7234 -1.1015
  102OSM   H13C10252   0.735   0.194  73.317 -0.1171  0.7350 -3.7618
  102OSM    C1210253   0.540   0.321  73.422 -0.4411  0.2394 -0.0512
  102OSM   H12A10254   0.464   0.397  73.424  2.1443  3.0965 -2.0237
  102OSM   H12B10255   0.563   0.286  73.521  0.4030 -0.1807 -0.3795
  102OSM    C1110256   0.469   0.200  73.346  0.1282 -0.4373  0.6579
  102OSM   H11A10257   0.409   0.142  73.420 -0.4530  0.4837  0.9317
  102OSM   H11B10258   0.544   0.131  73.303  1.4959  1.4015 -0.0366
  102OSM      P10259   0.235   0.295  73.262 -0.3238 -0.0218  0.6133
  102OSM    O1310260   0.155   0.171  73.278  0.1256 -0.2238  0.1172
  102OSM    O1410261   0.226   0.381  73.382  0.4377  0.4297  0.1836
  102OSM    O1110262   0.196   0.382  73.138  0.0685 -0.1339  0.2616
  102OSM    O1210263   0.388   0.251  73.239 -0.6950 -0.2249  0.5860
  102OSM    C1S10264   0.198   0.351  73.002  0.0786  0.0093 -0.1133
  102OSM    H1S10265   0.251   0.256  72.981  0.2690  0.7272 -3.3590
  102OSM    H1T10266   0.254   0.421  72.936 -0.1449 -0.5022 -0.8500
  102OSM     NF10267   0.030   0.282  72.838 -0.4424 -0.2139  0.2666
  102OSM    HNF10268   0.015   0.346  72.764  1.3353  2.2797  1.9218
  102OSM    C2S10269   0.047   0.343  72.963 -0.9715 -0.0134 -0.2554
  102OSM    H2S10270   0.003   0.271  73.035  1.4851 -1.4624 -0.1082
  102OSM    C3S10271  -0.019   0.486  72.972  0.8798  0.5334 -0.9585
  102OSM    H3S10272   0.047   0.546  72.906 -0.4027 -0.5360 -3.3516
  102OSM     O310273  -0.009   0.552  73.097  0.1822  0.6148 -0.2300
  102OSM    HO310274   0.057   0.500  73.144 -1.1200 -0.3779  0.5520
  102OSM    C4S10275  -0.164   0.493  72.917 -0.6271  0.3284 -0.2187
  102OSM    H4S10276  -0.178   0.516  72.810 -0.1274 -0.1489 -0.3902
  102OSM    C5S10277  -0.274   0.458  72.995 -1.0810 -0.0821 -0.2865
  102OSM    H5S10278  -0.246   0.434  73.099  0.7012  0.3235 -0.6490
  102OSM    C6S10279  -0.419   0.458  72.965  1.4864 -0.0552 -0.2067
  102OSM    H6S10280  -0.471   0.538  73.022  3.0799 -0.5602  2.0723
  102OSM    H6T10281  -0.453   0.356  72.993 -0.0142  1.1173  2.6400
  102OSM    C7S10282  -0.455   0.492  72.817  0.3149  0.2013  0.3175
  102OSM    H7S10283  -0.393   0.426  72.751  0.3037  0.0811  0.4265
  102OSM    H7T10284  -0.426   0.597  72.795 -1.9310  0.1154 -4.1103
  102OSM    C8S10285  -0.602   0.472  72.773  0.7097  0.9402 -0.4236
  102OSM    H8S10286  -0.660   0.537  72.842  1.0693 -1.0569  1.8654
  102OSM    H8T10287  -0.642   0.371  72.793 -2.0060  2.1630  0.7839
  102OSM    C9S10288  -0.639   0.524  72.640 -0.1313 -0.2510  0.9641
  102OSM    H9S10289  -0.606   0.630  72.633  3.3257 -1.3459 -2.6384
  102OSM    H9T10290  -0.748   0.510  72.628 -0.2906 -0.8607  2.8550
  102OSM   C10S10291  -0.571   0.454  72.526  0.4104 -0.1432 -0.4557
  102OSM   H10S10292  -0.599   0.346  72.526  2.6357 -0.8541  2.6471
  102OSM   H10T10293  -0.462   0.472  72.529  0.6606 -1.2680 -1.7786
  102OSM   C11S10294  -0.607   0.514  72.380  0.3438  0.0026 -0.1899
  102OSM   H11S10295  -0.716   0.491  72.373  0.8627 -2.2708 -2.3504
  102OSM   H11T10296  -0.557   0.454  72.301  0.6875 -2.2044  1.6295
  102OSM   C12S10297  -0.578   0.666  72.370 -0.0384  0.4891  0.2638
  102OSM   H12S10298  -0.471   0.678  72.398 -0.0455 -1.7012  1.3822
  102OSM   H12T10299  -0.655   0.729  72.420 -0.9266  0.2120 -0.7016
  102OSM   C13S10300  -0.576   0.725  72.229 -0.1843  0.4734  0.8218
  102OSM   H13S10301  -0.511   0.656  72.172 -0.1930  1.7456 -0.7749
  102OSM   H13T10302  -0.532   0.827  72.222 -1.8470  1.1181 -2.4196
  102OSM   C14S10303  -0.710   0.737  72.158 -0.1597  0.4548 -0.2003
  102OSM   H14S10304  -0.760   0.824  72.205  1.7795  1.7944 -0.5038
  102OSM   H14T10305  -0.775   0.650  72.184 -0.8151  1.2554  0.9139
  102OSM   C15S10306  -0.705   0.770  72.013  0.2924 -0.6615 -0.4508
  102OSM   H15S10307  -0.649   0.864  71.993  1.8110 -0.7731  2.5381
  102OSM   H15T10308  -0.812   0.779  71.985  0.0527  0.1682  0.6380
  102OSM   C16S10309  -0.645   0.664  71.924 -1.2948  0.4438 -0.2755
  102OSM   H16S10310  -0.661   0.571  71.983 -0.4131  0.6043  0.2312
  102OSM   H16T10311  -0.537   0.686  71.908 -1.4152  1.4266  0.2014
  102OSM   C17S10312  -0.704   0.650  71.781  0.1267 -0.1683 -0.8953
  102OSM   H17S10313  -0.676   0.723  71.702  2.3411 -0.4685 -0.4458
  102OSM   H17T10314  -0.813   0.673  71.781  0.3594  1.5231  2.6867
  102OSM   C18S10315  -0.691   0.509  71.715 -0.0796 -0.5535 -0.5954
  102OSM   H18S10316  -0.685   0.430  71.793 -0.4631  0.9402  1.0035
  102OSM   H18T10317  -0.598   0.514  71.654 -0.9219  2.7932 -1.8244
  102OSM   H18U10318  -0.776   0.494  71.645  0.4423 -1.2171 -1.1057
  102OSM    C1F10319   0.028   0.157  72.817 -0.5659  0.3504  0.0881
  102OSM     OF10320   0.011   0.079  72.909 -0.8831  0.0159  0.6991
  102OSM    C2F10321   0.045   0.115  72.670  0.0765 -0.1675 -1.1168
  102OSM    H2F10322   0.114   0.182  72.615  0.3547  0.3133 -0.2075
  102OSM    H2G10323  -0.055   0.113  72.621 -0.7771  1.7816  0.4200
  102OSM    C3F10324   0.096  -0.030  72.657  0.3833  0.4976  0.0299
  102OSM    H3F10325   0.030  -0.094  72.719  0.8693  1.1420  1.2491
  102OSM    H3G10326   0.190  -0.041  72.715 -2.0443  1.3238  4.6529
  102OSM    C4F10327   0.116  -0.082  72.513 -0.6542  0.0768 -0.3726
  102OSM    H4F10328   0.171  -0.178  72.516 -2.8064 -1.2717 -1.3105
  102OSM    H4G10329   0.178  -0.011  72.454  1.7091 -1.9995 -0.5638
  102OSM    C5F10330  -0.014  -0.110  72.438 -0.7481  0.1381  0.5392
  102OSM    H5F10331  -0.062  -0.013  72.414  0.0246  0.2506 -0.6040
  102OSM    H5G10332  -0.089  -0.166  72.498 -1.4752  0.4870 -0.0306
  102OSM    C6F10333   0.006  -0.175  72.297  0.0613 -0.0267 -0.3057
  102OSM    H6F10334   0.032  -0.282  72.316  0.2514  0.1369  0.3770
  102OSM    H6G10335   0.096  -0.126  72.256  0.1936  0.7442  0.8635
  102OSM    C7F10336  -0.127  -0.165  72.209 -0.4309 -0.3848 -0.5473
  102OSM    H7F10337  -0.169  -0.064  72.227  0.8523  0.3896 -1.7609
  102OSM    H7G10338  -0.200  -0.236  72.255 -3.3301  3.7985  1.9782
  102OSM    C8F10339  -0.114  -0.196  72.059  0.6670  0.4422  0.6552
  102OSM    H8F10340  -0.215  -0.208  72.016  1.5579 -2.3096 -0.8975
  102OSM    H8G10341  -0.061  -0.293  72.049 -1.7456 -0.7754 -1.2802
  102OSM    C9F10342  -0.026  -0.100  71.978 -0.4710  1.0551 -0.1163
  102OSM    H9F10343   0.050  -0.046  72.037 -2.6175  2.1725  1.8137
  102OSM   C10F10344  -0.015  -0.088  71.845 -0.2069 -0.8783  0.1960
  102OSM   H10F10345   0.049  -0.012  71.799  0.7156 -0.1779  2.4939
  102OSM   C11F10346  -0.098  -0.168  71.746 -0.4485 -0.8164  0.4673
  102OSM   H11F10347  -0.110  -0.271  71.787  1.0901 -1.1218  0.2069
  102OSM   H11G10348  -0.039  -0.190  71.656  1.1518  2.4547  0.5777
  102OSM   C12F10349  -0.233  -0.106  71.714 -0.3653 -0.4024  0.5900
  102OSM   H12F10350  -0.220  -0.009  71.661  3.3177 -1.2860 -0.4602
  102OSM   H12G10351  -0.271  -0.066  71.811  0.3888 -0.1708  0.7965
  102OSM   C13F10352  -0.323  -0.191  71.631 -0.4266  0.2482 -0.2212
  102OSM   H13F10353  -0.386  -0.249  71.702  1.2072 -0.5468  0.6148
  102OSM   H13G10354  -0.253  -0.254  71.572  0.7889  2.1436 -0.8870
  102OSM   C14F10355  -0.416  -0.111  71.529 -0.6201  0.6145 -1.0082
  102OSM   H14F10356  -0.460  -0.171  71.448 -1.1575  1.2265 -1.1755
  102OSM   H14G10357  -0.354  -0.034  71.479 -1.5427  1.4414 -0.9116
  102OSM   C15F10358  -0.542  -0.049  71.605 -0.0659 -0.0248  0.6146
  102OSM   H15F10359  -0.509   0.012  71.692  0.8619 -0.1263  0.3517
  102OSM   H15G10360  -0.596  -0.134  71.650  0.0824  0.1363  1.1008
  102OSM   C16F10361  -0.626   0.036  71.504  0.2317 -0.4850  0.1864
  102OSM   H16F10362  -0.724   0.067  71.546 -0.2613  2.2525 -2.6995
  102OSM   H16G10363  -0.646  -0.036  71.422 -0.1634 -1.6728  1.2894
  102OSM   C17F10364  -0.561   0.168  71.454 -0.2357 -0.4774 -0.0561
  102OSM   H17F10365  -0.460   0.157  71.409 -0.2521 -1.0954  0.0516
  102OSM   H17G10366  -0.557   0.235  71.543  0.6030 -2.7789  1.7692
  102OSM   C18F10367  -0.662   0.223  71.356 -0.5457 -0.2933 -0.8425
  102OSM   H18F10368  -0.637   0.320  71.308 -1.8295 -0.1663 -1.2848
  102OSM   H18G10369  -0.761   0.230  71.406  1.3077  0.3816  3.0949
  102OSM   H18H10370  -0.680   0.140  71.283  0.7708 -2.6455  1.3370
  103OSM      N10371   2.165   1.733  63.760  0.2351 -0.0698  0.3034
  103OSM    C1510372   2.229   1.812  63.647  0.2572 -0.1185  0.1174
  103OSM   H15A10373   2.150   1.856  63.588 -0.8397 -1.8904  0.2012
  103OSM   H15B10374   2.281   1.744  63.581  0.0158 -0.4794  0.2976
  103OSM   H15C10375   2.298   1.886  63.686  0.8229  0.7808 -2.4408
  103OSM    C1410376   2.072   1.624  63.707  0.0908 -0.2711 -0.6365
  103OSM   H14A10377   2.018   1.587  63.792  1.2794 -1.0389 -0.1993
  103OSM   H14B10378   2.135   1.552  63.657  1.1670  1.4543 -1.9071
  103OSM   H14C10379   2.004   1.662  63.632  0.5594  1.4533 -0.2444
  103OSM    C1310380   2.267   1.670  63.849 -0.7201 -0.3618 -0.5998
  103OSM   H13A10381   2.266   1.563  63.855 -2.5439 -0.3188  3.0002
  103OSM   H13B10382   2.255   1.713  63.948 -1.8311 -3.3556  0.6698
  103OSM   H13C10383   2.368   1.703  63.826 -1.0119  0.9312 -0.1525
  103OSM    C1210384   2.084   1.834  63.832  0.1431 -0.9374 -0.1385
  103OSM   H12A10385   2.025   1.884  63.757  0.3974  1.8687  1.4164
  103OSM   H12B10386   2.154   1.899  63.883 -0.0699 -1.6747  1.1329
  103OSM    C1110387   1.986   1.786  63.938 -0.4611 -0.0152 -0.6303
  103OSM   H11A10388   1.956   1.866  64.008 -2.7192 -0.1270 -1.3719
  103OSM   H11B10389   2.040   1.714  64.003  0.0521 -1.4568 -2.5776
  103OSM      P10390   1.773   1.626  63.947 -0.7640 -0.4996 -0.3995
  103OSM    O1310391   1.650   1.632  63.873 -0.3119  0.2542  0.4068
  103OSM    O1410392   1.847   1.494  63.963  0.9630  0.0968 -0.1197
  103OSM    O1110393   1.756   1.684  64.094  0.3957  0.8001 -0.0675
  103OSM    O1210394   1.871   1.730  63.877 -0.2098 -0.0318  0.1822
  103OSM    C1S10395   1.671   1.604  64.185 -0.1953  0.6627  0.8522
  103OSM    H1S10396   1.701   1.498  64.198 -1.6303  0.1812  0.4043
  103OSM    H1T10397   1.566   1.590  64.152 -0.2032  0.4998  0.9567
  103OSM     NF10398   1.619   1.560  64.429 -0.4904  0.4137 -0.0295
  103OSM    HNF10399   1.526   1.546  64.462 -0.4459 -4.6317 -1.2094
  103OSM    C2S10400   1.651   1.668  64.328  0.6053 -0.5889  0.2658
  103OSM    H2S10401   1.743   1.718  64.364  0.2762 -1.4489  2.4408
  103OSM    C3S10402   1.542   1.784  64.323  0.5549 -0.4642  0.9766
  103OSM    H3S10403   1.455   1.735  64.276  2.7611  0.7898 -5.4411
  103OSM     O310404   1.562   1.891  64.230 -0.8411  0.1196 -0.2285
  103OSM    HO310405   1.643   1.869  64.182  0.9600 -0.4427  2.7952
  103OSM    C4S10406   1.504   1.831  64.458  0.3472 -0.6774  0.6174
  103OSM    H4S10407   1.590   1.838  64.526  0.9691 -3.3272  0.2038
  103OSM    C5S10408   1.386   1.868  64.513  0.2023 -0.3384 -0.3381
  103OSM    H5S10409   1.295   1.868  64.452  1.6536  0.2956 -2.6192
  103OSM    C6S10410   1.359   1.904  64.656 -0.5499 -0.4532  0.4293
  103OSM    H6S10411   1.345   2.013  64.674  0.3708 -0.3359  0.5021
  103OSM    H6T10412   1.448   1.876  64.716  0.1026 -4.1678 -1.9163
  103OSM    C7S10413   1.246   1.833  64.731  0.0023 -0.3103 -0.3463
  103OSM    H7S10414   1.239   1.723  64.744 -0.2222 -0.1747  0.8653
  103OSM    H7T10415   1.151   1.859  64.680  0.6853  3.9992  0.1334
  103OSM    C8S10416   1.226   1.886  64.875  0.5554 -0.1927 -0.7547
  103OSM    H8S10417   1.225   1.996  64.886 -0.4855 -0.3854  1.9785
  103OSM    H8T10418   1.313   1.839  64.925  0.0488 -0.9082 -0.5046
  103OSM    C9S10419   1.082   1.831  64.942  0.2373 -0.0753 -0.4834
  103OSM    H9S10420   1.076   1.720  64.939 -1.2485  0.0023 -2.0962
  103OSM    H9T10421   0.992   1.868  64.888  0.4929  0.6749 -0.4115
  103OSM   C10S10422   1.052   1.890  65.088  0.0954  0.4063  0.2577
  103OSM   H10S10423   1.066   1.999  65.071  1.6463  0.1335 -0.3910
  103OSM   H10T10424   1.143   1.869  65.149 -0.3033 -3.2185 -0.1802
  103OSM   C11S10425   0.913   1.853  65.149 -0.0479  0.5334 -0.4048
  103OSM   H11S10426   0.834   1.920  65.108 -4.1439 -2.6804  1.3852
  103OSM   H11T10427   0.919   1.899  65.250 -1.9138 -2.5273  1.2612
  103OSM   C12S10428   0.886   1.710  65.149  0.2465 -0.9600 -0.6218
  103OSM   H12S10429   0.962   1.657  65.210  1.6724  0.3811 -1.1883
  103OSM   H12T10430   0.898   1.676  65.044  0.3066 -0.6237 -0.7249
  103OSM   C13S10431   0.756   1.665  65.206 -1.1804 -0.5346  0.0079
  103OSM   H13S10432   0.679   1.684  65.128  1.4935  2.9700 -2.0496
  103OSM   H13T10433   0.726   1.719  65.299 -2.3769  3.2997 -2.3678
  103OSM   C14S10434   0.774   1.513  65.238  0.0884 -0.8038  0.6742
  103OSM   H14S10435   0.857   1.464  65.182  0.1032  1.2391 -1.2401
  103OSM   H14T10436   0.686   1.449  65.217  0.4605 -1.1705  0.2086
  103OSM   C15S10437   0.786   1.491  65.392  0.3498  0.3584  1.0307
  103OSM   H15S10438   0.792   1.384  65.423  0.2400  0.1097  0.2105
  103OSM   H15T10439   0.693   1.531  65.438 -0.0597  0.6576 -0.0413
  103OSM   C16S10440   0.891   1.564  65.485  0.3140  0.9333 -0.1628
  103OSM   H16S10441   0.860   1.670  65.496  0.3499  1.1570 -1.9341
  103OSM   H16T10442   0.992   1.552  65.441 -0.0514 -0.6528 -0.6553
  103OSM   C17S10443   0.910   1.508  65.632 -0.1985  0.3022  0.7953
  103OSM   H17S10444   0.813   1.504  65.686 -1.0162  0.5463 -0.6136
  103OSM   H17T10445   0.981   1.575  65.684  0.6708 -0.4743  0.6201
  103OSM   C18S10446   0.979   1.373  65.658 -0.3993  1.2154  0.2758
  103OSM   H18S10447   0.906   1.290  65.647  0.2470  0.5288  1.0173
  103OSM   H18T10448   1.029   1.357  65.755  2.2538  2.1153 -0.8557
  103OSM   H18U10449   1.051   1.350  65.576 -0.5989  1.1637  0.1060
  103OSM    C1F10450   1.713   1.474  64.469 -0.5522 -0.0891 -0.2035
  103OSM     OF10451   1.827   1.512  64.467 -0.0990 -0.3092 -0.4473
  103OSM    C2F10452   1.669   1.329  64.511  0.5795 -0.6934 -0.5262
  103OSM    H2F10453   1.727   1.265  64.440  1.1546 -1.0504  0.2518
  103OSM    H2G10454   1.559   1.322  64.511  0.4010  0.8873  2.2094
  103OSM    C3F10455   1.715   1.294  64.653  0.5530 -0.3287  0.1888
  103OSM    H3F10456   1.675   1.369  64.724  1.3596 -2.1962  2.7769
  103OSM    H3G10457   1.824   1.311  64.653  0.7573 -0.5351 -3.9844
  103OSM    C4F10458   1.659   1.163  64.702  0.2338  0.0890 -1.6584
  103OSM    H4F10459   1.683   1.086  64.625  0.4348  0.4896 -2.0019
  103OSM    H4G10460   1.549   1.147  64.709  0.4382 -0.9289 -0.1298
  103OSM    C5F10461   1.714   1.123  64.836  0.8884  0.4772 -0.5183
  103OSM    H5F10462   1.715   1.210  64.905 -0.8480 -1.5930  2.3342
  103OSM    H5G10463   1.824   1.105  64.826  0.4882 -2.7083 -0.2861
  103OSM    C6F10464   1.666   0.993  64.893  0.2032 -0.5053 -0.5914
  103OSM    H6F10465   1.699   0.924  64.812  2.5699 -0.8765  0.6147
  103OSM    H6G10466   1.559   0.982  64.921  0.8571 -2.5017  1.4604
  103OSM    C7F10467   1.759   0.935  65.006 -0.7421 -0.3106  0.2593
  103OSM    H7F10468   1.868   0.945  64.987 -0.4881 -2.8741 -0.0161
  103OSM    H7G10469   1.746   0.824  65.005  1.0565 -0.5518  0.5907
  103OSM    C8F10470   1.710   0.983  65.139  0.5706  0.2957  0.6409
  103OSM    H8F10471   1.694   1.093  65.144 -3.9743 -0.1095 -0.3538
  103OSM    H8G10472   1.793   0.968  65.211  0.0174  0.0347  1.2259
  103OSM    C9F10473   1.580   0.915  65.187 -0.4284 -1.3010 -0.6695
  103OSM    H9F10474   1.487   0.961  65.149 -0.4688 -0.5533  0.2809
  103OSM   C10F10475   1.562   0.800  65.247  0.3818  0.3593  0.0792
  103OSM   H10F10476   1.458   0.763  65.252  0.1362  0.7706 -1.4417
  103OSM   C11F10477   1.669   0.721  65.323 -0.2894  1.1177  0.3490
  103OSM   H11F10478   1.633   0.694  65.425  0.6267 -0.6757  0.2311
  103OSM   H11G10479   1.756   0.789  65.328 -0.7302  1.9525 -1.9686
  103OSM   C12F10480   1.707   0.592  65.256 -0.4741  0.3034 -0.9874
  103OSM   H12F10481   1.737   0.599  65.149 -1.4946 -0.6881 -1.3665
  103OSM   H12G10482   1.609   0.539  65.259  0.3284 -1.2148  0.7289
  103OSM   C13F10483   1.799   0.497  65.338  0.6701 -0.6383  0.9532
  103OSM   H13F10484   1.855   0.550  65.419 -0.3617 -0.9138  1.8804
  103OSM   H13G10485   1.867   0.441  65.271  1.2717 -2.7665  3.2090
  103OSM   C14F10486   1.706   0.389  65.410  0.3365  0.4549  0.3306
  103OSM   H14F10487   1.602   0.427  65.419  0.4547  0.9239 -0.2187
  103OSM   H14G10488   1.738   0.378  65.516  1.9229  0.5128 -0.1115
  103OSM   C15F10489   1.710   0.252  65.347  0.1638 -0.5533 -0.0387
  103OSM   H15F10490   1.802   0.195  65.371  0.7784  1.2358  2.2559
  103OSM   H15G10491   1.719   0.250  65.236  2.1898  1.4851  0.0398
  103OSM   C16F10492   1.591   0.170  65.384  0.2752  0.0318  0.9322
  103OSM   H16F10493   1.494   0.218  65.360  1.7961  2.5576 -0.6409
  103OSM   H16G10494   1.582   0.151  65.493 -1.4069 -1.2404  0.6144
  103OSM   C17F10495   1.587   0.022  65.329 -0.7204  0.6502 -0.6475
  103OSM   H17F10496   1.515  -0.031  65.395  1.0401 -1.1091 -0.0533
  103OSM   H17G10497   1.687  -0.017  65.356 -1.5102 -0.2825  1.0816
  103OSM   C18F10498   1.537   0.006  65.178 -0.3836 -0.0650  0.2459
  103OSM   H18F10499   1.443   0.062  65.165 -0.1989  0.6047  1.5854
  103OSM   H18G10500   1.510  -0.101  65.161  0.5116 -0.2212 -0.2328
  103OSM   H18H10501   1.613   0.047  65.109  2.7901  0.0967  3.5247
  104OSM      N10502   0.630   0.946  69.481  0.1328 -0.6955  0.4056
  104OSM    C1510503   0.504   0.901  69.406 -0.2743 -0.2896  0.3914
  104OSM   H15A10504   0.498   0.954  69.312  0.6591  2.1945  1.6489
  104OSM   H15B10505   0.413   0.915  69.463  0.1540  1.7123  0.6572
  104OSM   H15C10506   0.515   0.794  69.396 -0.1465 -0.2045 -0.4348
  104OSM    C1410507   0.594   0.958  69.628  0.0733 -0.2425  0.3170
  104OSM   H14A10508   0.570   0.869  69.683  3.1514  0.8114  3.8155
  104OSM   H14B10509   0.516   1.031  69.648  0.4048  0.2090 -0.0113
  104OSM   H14C10510   0.680   0.996  69.682  0.0306 -0.0647  0.2608
  104OSM    C1310511   0.744   0.849  69.451  0.1597  0.5489  0.2361
  104OSM   H13A10512   0.728   0.750  69.490  0.7161  0.5615  0.4966
  104OSM   H13B10513   0.829   0.888  69.505  1.0903 -0.1969 -0.6638
  104OSM   H13C10514   0.758   0.860  69.344  0.6049  3.4865  0.5219
  104OSM    C1210515   0.668   1.090  69.434 -0.2171 -0.4386  0.4590
  104OSM   H12A10516   0.584   1.156  69.444 -1.1065 -1.2825 -1.0934
  104OSM   H12B10517   0.665   1.071  69.328  1.4484 -2.1165  0.6535
  104OSM    C1110518   0.794   1.144  69.490 -0.2706  0.5437 -0.6659
  104OSM   H11A10519   0.872   1.077  69.448 -1.1586 -1.4590  0.6758
  104OSM   H11B10520   0.800   1.126  69.600 -1.6649  1.2790 -0.4408
  104OSM      P10521   0.799   1.405  69.530  0.2556 -0.1526 -0.4753
  104OSM    O1310522   0.928   1.433  69.597 -0.0091 -0.7003 -0.3294
  104OSM    O1410523   0.749   1.507  69.444  0.0476  0.1785  0.0321
  104OSM    O1110524   0.689   1.364  69.634  0.0612  0.6855 -0.0427
  104OSM    O1210525   0.820   1.273  69.446 -0.2656 -0.4590  0.8072
  104OSM    C1S10526   0.696   1.339  69.771  0.0039 -0.3098 -0.4754
  104OSM    H1S10527   0.771   1.408  69.814 -1.4444 -0.3741  2.4151
  104OSM    H1T10528   0.739   1.238  69.789 -1.7727 -0.6588  2.2751
  104OSM     NF10529   0.580   1.328  69.990  0.4971  0.3383  1.3538
  104OSM    HNF10530   0.542   1.243  70.025  1.6544  0.0224  1.9123
  104OSM    C2S10531   0.558   1.351  69.844 -0.5933  0.3713 -0.1259
  104OSM    H2S10532   0.537   1.459  69.831  0.1142  0.3188 -1.9154
  104OSM    C3S10533   0.445   1.268  69.773 -0.7881 -0.0288 -0.2017
  104OSM    H3S10534   0.459   1.162  69.806 -1.8904 -0.0570  0.2460
  104OSM     O310535   0.464   1.245  69.635  0.4184  0.8634 -0.7922
  104OSM    HO310536   0.552   1.283  69.623  0.6728  0.8318  0.7681
  104OSM    C4S10537   0.300   1.288  69.817  0.7754  0.1268  0.7256
  104OSM    H4S10538   0.263   1.212  69.889 -2.0487  1.0272  0.3587
  104OSM    C5S10539   0.216   1.385  69.769  0.2879  0.2969 -1.0012
  104OSM    H5S10540   0.262   1.449  69.692 -0.1757  2.8789  0.7162
  104OSM    C6S10541   0.072   1.422  69.812 -0.3332 -0.2314 -0.1232
  104OSM    H6S10542   0.005   1.441  69.726 -3.0482 -0.0827  1.8843
  104OSM    H6T10543   0.074   1.520  69.866  2.5411  0.0970 -0.6840
  104OSM    C7S10544   0.001   1.307  69.894 -0.6158 -0.2920 -0.0726
  104OSM    H7S10545   0.061   1.262  69.976 -0.0086  2.7919  1.2937
  104OSM    H7T10546  -0.016   1.224  69.822 -0.9805 -0.6146  0.3767
  104OSM    C8S10547  -0.133   1.344  69.949  0.2718  0.0845  0.4520
  104OSM    H8S10548  -0.197   1.255  69.929  0.0867  0.6314 -1.5722
  104OSM    H8T10549  -0.174   1.430  69.891  0.3272 -1.0203 -1.2982
  104OSM    C9S10550  -0.130   1.392  70.096  0.4727 -0.4056  0.0494
  104OSM    H9S10551  -0.068   1.485  70.092  0.4368 -0.3327  1.0140
  104OSM    H9T10552  -0.082   1.328  70.173  2.6689  0.9702 -0.0765
  104OSM   C10S10553  -0.278   1.425  70.140 -0.6541 -0.5882  0.2842
  104OSM   H10S10554  -0.297   1.497  70.057 -1.4465 -2.7926 -1.5360
  104OSM   H10T10555  -0.285   1.458  70.246 -2.5815 -3.1450  1.0425
  104OSM   C11S10556  -0.381   1.312  70.128 -0.2730 -0.9903 -0.2981
  104OSM   H11S10557  -0.350   1.267  70.031  0.6748 -0.7121 -0.1369
  104OSM   H11T10558  -0.480   1.358  70.107 -0.8905 -2.4128 -0.6383
  104OSM   C12S10559  -0.399   1.207  70.240  0.0680  0.6700  0.0114
  104OSM   H12S10560  -0.477   1.135  70.205 -1.4291  0.4144  3.4814
  104OSM   H12T10561  -0.453   1.248  70.328  1.0707 -0.2143  1.0599
  104OSM   C13S10562  -0.271   1.141  70.268 -0.6044 -0.4753  0.5301
  104OSM   H13S10563  -0.208   1.192  70.344  3.3741 -4.2523  0.2168
  104OSM   H13T10564  -0.223   1.130  70.168 -0.7143 -4.5494  0.7461
  104OSM   C14S10565  -0.283   0.999  70.337  0.2165 -0.0710 -0.0266
  104OSM   H14S10566  -0.353   1.007  70.422 -1.1120 -5.6718 -0.2566
  104OSM   H14T10567  -0.181   0.968  70.368  1.4887  1.7046 -2.1103
  104OSM   C15S10568  -0.348   0.896  70.247 -0.2094 -0.3169  0.5854
  104OSM   H15S10569  -0.293   0.883  70.151 -1.3834 -1.1332  0.0010
  104OSM   H15T10570  -0.439   0.939  70.201 -0.6832 -0.8292  1.0344
  104OSM   C16S10571  -0.379   0.756  70.318 -0.0045 -0.0747  0.8160
  104OSM   H16S10572  -0.416   0.755  70.423 -1.1610 -1.8450  0.4589
  104OSM   H16T10573  -0.286   0.697  70.303  0.2726  0.5990 -0.2248
  104OSM   C17S10574  -0.474   0.660  70.235  0.3677 -0.0519 -0.3135
  104OSM   H17S10575  -0.577   0.678  70.274  0.4847 -0.6212  0.2770
  104OSM   H17T10576  -0.473   0.554  70.268 -1.1782 -0.2191 -0.7115
  104OSM   C18S10577  -0.459   0.653  70.087 -0.7863 -0.2881  0.2171
  104OSM   H18S10578  -0.418   0.743  70.037 -1.6926 -1.2091 -2.3674
  104OSM   H18T10579  -0.545   0.603  70.039 -0.9974  0.9992 -0.7892
  104OSM   H18U10580  -0.376   0.583  70.064 -0.2479  0.2873  0.3965
  104OSM    C1F10581   0.665   1.405  70.060 -0.0424 -0.1365 -0.1841
  104OSM     OF10582   0.691   1.514  70.030 -0.3853  0.0483  0.2306
  104OSM    C2F10583   0.708   1.341  70.191 -0.7696 -0.8025  0.1535
  104OSM    H2F10584   0.718   1.232  70.172 -0.4907 -0.4293 -2.0534
  104OSM    H2G10585   0.616   1.362  70.249 -2.5563 -0.8327 -2.5331
  104OSM    C3F10586   0.836   1.393  70.255  0.3037  0.6055  0.0376
  104OSM    H3F10587   0.869   1.348  70.350  1.0440  0.5781 -0.2156
  104OSM    H3G10588   0.819   1.496  70.293  1.3247  0.0666  2.1456
  104OSM    C4F10589   0.964   1.371  70.175 -0.1666 -0.2845 -0.5018
  104OSM    H4F10590   1.031   1.443  70.227 -0.7422 -1.5586  2.1867
  104OSM    H4G10591   0.939   1.411  70.075 -1.8431 -1.3058 -0.5159
  104OSM    C5F10592   1.010   1.225  70.170 -0.0236  0.4105 -0.0525
  104OSM    H5F10593   0.924   1.181  70.115  0.8428  0.4202 -1.4542
  104OSM    H5G10594   1.016   1.185  70.274 -1.9734  2.3397  0.8895
  104OSM    C6F10595   1.140   1.217  70.097  0.8052 -0.1918 -0.5336
  104OSM    H6F10596   1.195   1.312  70.115  1.2554 -0.2121 -1.7340
  104OSM    H6G10597   1.113   1.213  69.990 -1.0312  1.4180 -0.1745
  104OSM    C7F10598   1.228   1.091  70.130 -0.9855 -0.4081  0.3735
  104OSM    H7F10599   1.182   0.991  70.147  0.2174 -0.9595  0.5305
  104OSM    H7G10600   1.261   1.101  70.235 -0.4780  2.3555  0.0208
  104OSM    C8F10601   1.356   1.085  70.033 -0.4595  0.1693  0.1414
  104OSM    H8F10602   1.422   1.011  70.085  1.4809 -0.4613 -2.9341
  104OSM    H8G10603   1.407   1.183  70.028 -1.2949  0.5594 -0.9716
  104OSM    C9F10604   1.310   1.030  69.901 -0.7659  0.4189  1.0412
  104OSM    H9F10605   1.204   1.031  69.873 -0.8394 -1.3079  1.1674
  104OSM   C10F10606   1.389   0.998  69.799  0.1504 -0.3269  0.3815
  104OSM   H10F10607   1.350   1.009  69.697  0.6327  1.3411  0.3513
  104OSM   C11F10608   1.545   0.999  69.789  0.4495  0.1277  1.1023
  104OSM   H11F10609   1.586   0.896  69.800  3.8313  0.9805 -1.6623
  104OSM   H11G10610   1.590   1.064  69.868  0.1875  1.2716  0.3256
  104OSM   C12F10611   1.600   1.027  69.646  0.2070 -0.2338 -1.0070
  104OSM   H12F10612   1.558   0.940  69.592 -0.2053  0.9132 -2.5965
  104OSM   H12G10613   1.711   1.024  69.642  0.7009  2.3209  3.7119
  104OSM   C13F10614   1.553   1.175  69.606  0.6943  0.5248  0.6101
  104OSM   H13F10615   1.579   1.242  69.691  0.1833  0.4115  0.8582
  104OSM   H13G10616   1.443   1.185  69.600  0.5958 -0.7273  0.1195
  104OSM   C14F10617   1.596   1.233  69.474 -1.1001 -0.3268  0.0652
  104OSM   H14F10618   1.704   1.213  69.455 -1.0626 -0.8320  0.7818
  104OSM   H14G10619   1.584   1.343  69.472  0.1827 -0.1590 -1.7144
  104OSM   C15F10620   1.519   1.190  69.349 -0.6259 -0.4990  0.8015
  104OSM   H15F10621   1.429   1.254  69.340  0.2658  0.4869 -1.8344
  104OSM   H15G10622   1.499   1.080  69.355  0.3050 -1.5555 -6.6788
  104OSM   C16F10623   1.602   1.183  69.221  0.5423  0.8973  0.3132
  104OSM   H16F10624   1.685   1.118  69.254  0.8359  1.6487  1.0939
  104OSM   H16G10625   1.647   1.278  69.186  1.5657  0.1468 -0.4748
  104OSM   C17F10626   1.535   1.093  69.103 -0.5077 -0.0060  0.0378
  104OSM   H17F10627   1.439   1.142  69.075  1.6294  3.5474 -1.7010
  104OSM   H17G10628   1.534   0.986  69.132  1.0049 -0.4490 -1.4473
  104OSM   C18F10629   1.626   1.103  68.974  0.2228 -0.7868 -0.0622
  104OSM   H18F10630   1.723   1.052  68.989  0.2692 -0.8109 -0.4329
  104OSM   H18G10631   1.628   1.211  68.947 -1.5337 -0.8678 -0.6768
  104OSM   H18H10632   1.578   1.043  68.894  0.9827  0.7144 -1.7178
  105OSM      N10633   0.438   0.400  67.409 -0.2050 -0.6848 -0.2848
  105OSM    C1510634   0.562   0.398  67.318 -0.1582  0.5590  1.0113
  105OSM   H15A10635   0.590   0.295  67.302 -0.9929  0.1416  2.1309
  105OSM   H15B10636   0.632   0.448  67.384 -1.2964  2.8689  0.5764
  105OSM   H15C10637   0.541   0.458  67.231 -2.6378 -0.1589  1.0410
  105OSM    C1410638   0.330   0.331  67.329 -0.3339  0.9051 -0.2083
  105OSM   H14A10639   0.241   0.332  67.390 -0.2881 -1.2722 -0.0552
  105OSM   H14B10640   0.356   0.229  67.309  1.2600  1.3138 -0.3812
  105OSM   H14C10641   0.321   0.381  67.233  0.4501  0.0367 -0.7446
  105OSM    C1310642   0.444   0.314  67.532 -0.0231  0.2557  0.7144
  105OSM   H13A10643   0.356   0.338  67.590 -0.6236  4.2351 -1.4478
  105OSM   H13B10644   0.532   0.334  67.592  0.6301 -4.5522  1.8026
  105OSM   H13C10645   0.451   0.208  67.510 -2.1184  0.4116 -1.0994
  105OSM    C1210646   0.389   0.540  67.443  0.5873 -0.4299 -0.3258
  105OSM   H12A10647   0.461   0.580  67.512  0.3497 -0.1474 -0.2426
  105OSM   H12B10648   0.292   0.521  67.488  0.2081 -1.2928 -1.4509
  105OSM    C1110649   0.380   0.633  67.320 -0.2415  0.5888 -0.6989
  105OSM   H11A10650   0.472   0.635  67.259 -0.2673 -0.4878 -0.7870
  105OSM   H11B10651   0.363   0.729  67.375 -0.6962 -0.1003  0.4001
  105OSM      P10652   0.110   0.637  67.300  0.7468  0.2775  0.0813
  105OSM    O1310653   0.040   0.507  67.311  0.1044 -0.5505  0.4431
  105OSM    O1410654   0.101   0.727  67.412  0.3285 -0.6637  0.0790
  105OSM    O1110655   0.036   0.708  67.180 -0.5777 -0.4697 -0.5229
  105OSM    O1210656   0.265   0.612  67.244 -0.1336 -0.1765 -0.3747
  105OSM    C1S10657  -0.102   0.718  67.166  0.3387 -0.2265  0.5689
  105OSM    H1S10658  -0.138   0.782  67.250 -1.2051 -2.6230  1.8658
  105OSM    H1T10659  -0.157   0.622  67.178 -0.5709  0.4211  1.8381
  105OSM     NF10660  -0.305   0.776  67.025  0.2342 -0.5968 -0.1586
  105OSM    HNF10661  -0.351   0.697  66.986  1.6074  0.0169 -3.3185
  105OSM    C2S10662  -0.157   0.781  67.030  0.3051  0.6376 -0.8483
  105OSM    H2S10663  -0.128   0.886  67.011  0.4364  0.2847 -2.7788
  105OSM    C3S10664  -0.080   0.714  66.914  0.9546  0.5024 -0.3582
  105OSM    H3S10665  -0.103   0.605  66.910 -2.0912  1.0562 -0.8616
  105OSM     O310666   0.056   0.733  66.929  0.3648  0.0914  0.0819
  105OSM    HO310667   0.068   0.747  67.023 -2.3669 -0.7744  0.6461
  105OSM    C4S10668  -0.140   0.784  66.783 -1.0092  0.5332 -0.5975
  105OSM    H4S10669  -0.115   0.891  66.779 -0.4608  0.4175 -0.3859
  105OSM    C5S10670  -0.197   0.708  66.683  0.2599  0.3208  0.4867
  105OSM    H5S10671  -0.193   0.601  66.708  2.0259  0.1184 -0.4443
  105OSM    C6S10672  -0.253   0.769  66.558  0.3210 -0.7433 -0.1119
  105OSM    H6S10673  -0.268   0.875  66.587 -1.0224 -0.8483 -0.3704
  105OSM    H6T10674  -0.352   0.739  66.518  0.8827  0.2710 -2.4686
  105OSM    C7S10675  -0.172   0.749  66.439  0.6300 -0.4356  0.4318
  105OSM    H7S10676  -0.225   0.812  66.363 -0.5691  0.0753  1.6470
  105OSM    H7T10677  -0.172   0.642  66.409 -2.4759 -0.8067  1.4205
  105OSM    C8S10678  -0.028   0.804  66.436  0.1334 -0.0322 -0.4225
  105OSM    H8S10679   0.025   0.727  66.495  3.0462  2.7779  0.9324
  105OSM    H8T10680  -0.032   0.893  66.502 -1.5135 -0.1278 -0.3398
  105OSM    C9S10681   0.042   0.813  66.300 -1.2567  0.0426  0.6235
  105OSM    H9S10682   0.012   0.902  66.241  1.6689  1.2415  0.7668
  105OSM    H9T10683   0.032   0.718  66.244 -2.7186 -0.7630  2.1498
  105OSM   C10S10684   0.189   0.858  66.309  0.3468 -0.3757  0.2825
  105OSM   H10S10685   0.251   0.786  66.368 -0.8724 -1.2007  0.5870
  105OSM   H10T10686   0.188   0.960  66.353 -1.1639  0.2630 -1.1625
  105OSM   C11S10687   0.253   0.889  66.174 -0.1181  0.4211  0.5275
  105OSM   H11S10688   0.348   0.945  66.191  1.2007 -1.3492 -0.6132
  105OSM   H11T10689   0.188   0.953  66.110  0.2955 -1.2372 -1.6763
  105OSM   C12S10690   0.272   0.780  66.071 -0.7472 -0.0284 -0.0179
  105OSM   H12S10691   0.176   0.742  66.030 -0.9036  0.6054 -0.2575
  105OSM   H12T10692   0.334   0.702  66.121 -1.1044 -0.4669 -0.2539
  105OSM   C13S10693   0.351   0.816  65.951 -0.6325  0.0290  0.2397
  105OSM   H13S10694   0.458   0.833  65.973 -0.8432 -0.5142  1.7930
  105OSM   H13T10695   0.311   0.909  65.903  1.0110  0.0525 -1.1567
  105OSM   C14S10696   0.354   0.700  65.849 -0.0827 -0.4442 -0.9524
  105OSM   H14S10697   0.258   0.643  65.855 -0.5131  0.3552  0.1079
  105OSM   H14T10698   0.445   0.640  65.870  2.9227  3.8208 -0.7510
  105OSM   C15S10699   0.380   0.755  65.705 -0.6658  0.2776 -0.4037
  105OSM   H15S10700   0.475   0.811  65.715  0.2107 -1.0403 -1.1340
  105OSM   H15T10701   0.304   0.832  65.678  1.0830  1.6626 -1.6514
  105OSM   C16S10702   0.387   0.648  65.604  0.0988  0.2306  0.4536
  105OSM   H16S10703   0.298   0.581  65.606  0.1798 -0.0702 -2.1192
  105OSM   H16T10704   0.475   0.581  65.608  1.4863  1.9015 -0.6022
  105OSM   C17S10705   0.380   0.711  65.460  0.6041 -0.4407  0.3367
  105OSM   H17S10706   0.460   0.787  65.457  0.4994 -0.3216  0.5242
  105OSM   H17T10707   0.281   0.761  65.462 -0.2540 -2.0513  2.0044
  105OSM   C18S10708   0.376   0.624  65.334  0.3377  0.4541 -1.0283
  105OSM   H18S10709   0.365   0.695  65.249 -0.0496  2.1347  0.3735
  105OSM   H18T10710   0.284   0.561  65.338  0.3532  0.4725 -0.2268
  105OSM   H18U10711   0.456   0.548  65.321  0.3903  0.8325 -3.4000
  105OSM    C1F10712  -0.371   0.866  67.098  0.3329  0.4832 -0.0881
  105OSM     OF10713  -0.315   0.945  67.166  0.4614 -0.3098  0.2778
  105OSM    C2F10714  -0.520   0.861  67.097 -0.0923  0.0861 -0.0034
  105OSM    H2F10715  -0.568   0.865  67.197  0.1131 -0.4267  0.1187
  105OSM    H2G10716  -0.544   0.761  67.054 -0.4452  0.5065 -0.8020
  105OSM    C3F10717  -0.586   0.954  66.998 -1.0339  0.9069  0.6042
  105OSM    H3F10718  -0.570   0.909  66.898 -2.1819  3.4100 -0.7939
  105OSM    H3G10719  -0.535   1.053  67.003  1.6497  0.0173 -3.6207
  105OSM    C4F10720  -0.737   0.960  67.017 -0.6805 -0.0388 -0.2527
  105OSM    H4F10721  -0.748   0.973  67.126  2.0263 -0.9721  0.2057
  105OSM    H4G10722  -0.791   0.871  66.979  1.0474 -0.9368 -0.7152
  105OSM    C5F10723  -0.786   1.085  66.947  0.5679 -0.5941 -0.1595
  105OSM    H5F10724  -0.733   1.178  66.978  0.5851 -0.5314 -0.3763
  105OSM    H5G10725  -0.896   1.090  66.961  0.2544 -1.7638 -1.7904
  105OSM    C6F10726  -0.776   1.078  66.792 -1.2033  0.0624  0.2184
  105OSM    H6F10727  -0.678   1.036  66.763  0.3947  2.2583  2.0267
  105OSM    H6G10728  -0.772   1.184  66.758 -2.7100 -0.0704 -0.4572
  105OSM    C7F10729  -0.896   0.992  66.744  0.0140 -0.2729 -0.1726
  105OSM    H7F10730  -0.988   1.030  66.794  1.2056  1.6664  0.6576
  105OSM    H7G10731  -0.897   0.882  66.759 -0.6110 -0.4199 -1.1716
  105OSM    C8F10732  -0.933   1.002  66.597  0.2949 -0.6404  0.1047
  105OSM    H8F10733  -1.013   0.927  66.579  1.0874 -2.2511  2.6905
  105OSM    H8G10734  -0.839   0.968  66.547  0.4561 -1.0002  0.6508
  105OSM    C9F10735  -0.979   1.132  66.534 -0.4632 -0.5886  0.2407
  105OSM    H9F10736  -1.059   1.177  66.594 -1.6618 -0.0997 -1.6523
  105OSM   C10F10737  -0.949   1.178  66.410  0.1423  0.8033  0.0037
  105OSM   H10F10738  -0.983   1.280  66.384 -0.8071  0.5514  0.2238
  105OSM   C11F10739  -0.856   1.131  66.309  0.7233 -0.2839 -0.6356
  105OSM   H11F10740  -0.809   1.037  66.346 -1.1375 -2.2537 -2.9205
  105OSM   H11G10741  -0.787   1.216  66.289  0.6144  0.1792  0.8665
  105OSM   C12F10742  -0.937   1.092  66.187 -0.2874  0.0355  0.1999
  105OSM   H12F10743  -1.011   1.173  66.172  0.7184  0.8451 -0.5563
  105OSM   H12G10744  -0.987   1.000  66.224  0.2616  0.4037  1.9601
  105OSM   C13F10745  -0.851   1.084  66.055 -0.5159  1.1511  0.2963
  105OSM   H13F10746  -0.787   0.995  66.041 -0.2389  1.0234  2.1543
  105OSM   H13G10747  -0.786   1.172  66.038 -0.1710  0.4817 -2.2258
  105OSM   C14F10748  -0.948   1.084  65.930 -0.8132 -0.2604 -0.5722
  105OSM   H14F10749  -1.009   1.170  65.963  1.0686 -0.0702  2.9706
  105OSM   H14G10750  -1.011   0.992  65.936 -0.5802 -0.3211  2.4046
  105OSM   C15F10751  -0.887   1.106  65.791 -1.0841 -0.5999 -0.1895
  105OSM   H15F10752  -0.871   1.215  65.785 -0.7371 -0.5679  1.0506
  105OSM   H15G10753  -0.963   1.066  65.720 -1.1980 -0.2150 -0.2784
  105OSM   C16F10754  -0.757   1.032  65.751  0.0740 -0.6503 -0.3307
  105OSM   H16F10755  -0.684   1.075  65.822  0.3819  1.6559 -1.9452
  105OSM   H16G10756  -0.722   1.056  65.649 -3.2027 -0.2851 -1.5016
  105OSM   C17F10757  -0.746   0.880  65.778  0.1414  1.2060 -0.3810
  105OSM   H17F10758  -0.818   0.815  65.723  1.4851 -0.4995 -0.2368
  105OSM   H17G10759  -0.783   0.871  65.882  0.9498 -0.8006 -0.2173
  105OSM   C18F10760  -0.611   0.801  65.769 -1.3784 -0.1084  0.3261
  105OSM   H18F10761  -0.549   0.819  65.859 -4.2187  0.3241  2.3514
  105OSM   H18G10762  -0.558   0.840  65.680  0.0273 -0.4446  0.9993
  105OSM   H18H10763  -0.622   0.692  65.753  0.6703 -1.2849  5.1375
  106OSM      N10764   2.337   0.408  57.169 -0.1984  0.5742  0.4310
  106OSM    C1510765   2.384   0.509  57.071  0.3935  0.2817 -0.4879
  106OSM   H15A10766   2.290   0.553  57.042 -1.4423 -2.7623  0.4054
  106OSM   H15B10767   2.440   0.460  56.993 -1.9667 -0.9303 -1.5054
  106OSM   H15C10768   2.451   0.578  57.121 -0.5271 -1.4666  3.6175
  106OSM    C1410769   2.267   0.486  57.268  0.4362 -0.2056 -0.2046
  106OSM   H14A10770   2.340   0.558  57.303  0.6095 -0.4228 -0.1185
  106OSM   H14B10771   2.241   0.430  57.357 -2.1656  0.1507 -0.6537
  106OSM   H14C10772   2.174   0.534  57.239  0.0404 -1.5072 -1.1624
  106OSM    C1310773   2.249   0.312  57.102  0.0913  1.2876 -1.3180
  106OSM   H13A10774   2.163   0.355  57.054 -0.2722  1.0382 -0.8942
  106OSM   H13B10775   2.211   0.243  57.176 -0.5923  1.6057 -1.3643
  106OSM   H13C10776   2.308   0.249  57.037 -2.7309 -1.5535 -1.4124
  106OSM    C1210777   2.451   0.338  57.228  0.0710 -0.0444  0.3621
  106OSM   H12A10778   2.400   0.261  57.284 -1.0891  1.3637  1.3268
  106OSM   H12B10779   2.505   0.392  57.304 -1.9559  0.7162  1.3324
  106OSM    C1110780   2.553   0.268  57.138 -0.1257 -0.8705  0.5391
  106OSM   H11A10781   2.508   0.191  57.071 -0.1948  1.3277 -2.0888
  106OSM   H11B10782   2.621   0.200  57.196  2.2809  1.0540  0.1404
  106OSM      P10783   2.731   0.466  57.124  0.0446 -0.2405  0.5627
  106OSM    O1310784   2.679   0.499  57.263  0.8893 -0.3082  0.8424
  106OSM    O1410785   2.871   0.420  57.109  0.2190 -0.7109 -0.9130
  106OSM    O1110786   2.717   0.604  57.041  0.3701 -0.2440 -0.5095
  106OSM    O1210787   2.624   0.362  57.058  0.4941 -0.0235  0.4718
  106OSM    C1S10788   2.692   0.593  56.901  0.0506 -0.4986  0.1600
  106OSM    H1S10789   2.587   0.627  56.887 -0.1448 -1.3831 -0.6241
  106OSM    H1T10790   2.682   0.491  56.859  0.7919 -0.3516 -0.3775
  106OSM     NF10791   2.774   0.655  56.662 -0.4905  0.5014  0.4280
  106OSM    HNF10792   2.852   0.622  56.610 -2.6997  1.3478 -3.8780
  106OSM    C2S10793   2.780   0.678  56.803 -0.1209 -0.4017  0.0178
  106OSM    H2S10794   2.746   0.780  56.833  6.1959  1.3305  2.8709
  106OSM    C3S10795   2.928   0.686  56.846  0.8488  0.7112  0.6998
  106OSM    H3S10796   2.962   0.583  56.822  0.7912 -0.5332  5.1251
  106OSM     O310797   2.969   0.700  56.979 -0.6396 -0.3928  0.4321
  106OSM    HO310798   2.898   0.680  57.041  1.3067  0.5287  3.1225
  106OSM    C4S10799   2.998   0.794  56.768  0.6253  0.0436  0.0556
  106OSM    H4S10800   3.078   0.742  56.713 -0.9208 -3.7706  1.1188
  106OSM    C5S10801   3.002   0.926  56.782 -0.5750  0.3069  0.4064
  106OSM    H5S10802   2.942   0.985  56.852  0.6269  2.2628 -0.1273
  106OSM    C6S10803   3.094   1.009  56.705  0.2089  0.5551 -1.1089
  106OSM    H6S10804   3.028   1.061  56.632  0.0171  2.2517  0.1919
  106OSM    H6T10805   3.153   0.937  56.645 -0.1497 -1.2832  0.6624
  106OSM    C7S10806   3.178   1.104  56.778 -0.0269  0.0830 -1.0188
  106OSM    H7S10807   3.245   1.055  56.852 -0.6358 -0.0232 -0.5315
  106OSM    H7T10808   3.124   1.176  56.844  2.6144  2.6083 -1.4241
  106OSM    C8S10809   3.266   1.188  56.689 -0.0842 -0.0224  1.1328
  106OSM    H8S10810   3.326   1.116  56.629  2.0345  2.8737 -0.5337
  106OSM    H8T10811   3.347   1.217  56.760  1.7783 -1.3411 -0.3343
  106OSM    C9S10812   3.194   1.288  56.608 -0.1999 -0.3840  0.2325
  106OSM    H9S10813   3.167   1.369  56.679 -1.3856 -1.4949  1.1042
  106OSM    H9T10814   3.102   1.241  56.569  1.1049 -2.0243 -1.0516
  106OSM   C10S10815   3.269   1.346  56.480 -0.1310 -0.3610  0.4752
  106OSM   H10S10816   3.371   1.373  56.515 -0.7495 -1.7348  3.6537
  106OSM   H10T10817   3.203   1.434  56.461  1.6205  0.6252 -1.4813
  106OSM   C11S10818   3.252   1.254  56.356  0.1011 -0.0254 -0.2025
  106OSM   H11S10819   3.149   1.212  56.359  0.0754  0.0941  1.5025
  106OSM   H11T10820   3.314   1.163  56.373  0.7368 -0.6033 -4.4787
  106OSM   C12S10821   3.269   1.326  56.224 -0.4191  0.2467 -0.0474
  106OSM   H12S10822   3.368   1.375  56.226  0.1424 -0.8335  1.9109
  106OSM   H12T10823   3.199   1.410  56.210 -2.2295 -1.3390 -0.9806
  106OSM   C13S10824   3.266   1.234  56.106  0.5169  0.2863  0.7911
  106OSM   H13S10825   3.339   1.155  56.133  0.5347  1.0778  3.3861
  106OSM   H13T10826   3.316   1.280  56.018  2.1522 -1.9008  0.4922
  106OSM   C14S10827   3.137   1.160  56.066  1.3995 -0.1852  0.4519
  106OSM   H14S10828   3.052   1.231  56.054  0.0194 -1.4848  1.9746
  106OSM   H14T10829   3.098   1.091  56.144 -2.4120  0.5253 -0.5955
  106OSM   C15S10830   3.158   1.064  55.942 -0.6384 -0.5641 -0.1059
  106OSM   H15S10831   3.063   1.015  55.913 -0.9044  0.8829 -1.8059
  106OSM   H15T10832   3.232   0.986  55.972 -4.1071 -3.0918  2.8693
  106OSM   C16S10833   3.208   1.143  55.822 -0.9342  0.4361 -0.3654
  106OSM   H16S10834   3.216   1.076  55.734 -0.8447 -0.3752  0.2580
  106OSM   H16T10835   3.311   1.177  55.846 -0.4476 -2.4139  2.1087
  106OSM   C17S10836   3.118   1.264  55.789  0.3783  0.2318  0.1034
  106OSM   H17S10837   3.114   1.328  55.880 -2.5104 -0.2208  0.3860
  106OSM   H17T10838   3.014   1.229  55.770  0.8328 -0.5346 -1.0684
  106OSM   C18S10839   3.185   1.345  55.677 -0.8478 -0.2862  0.8016
  106OSM   H18S10840   3.125   1.432  55.642  1.5960  0.2814 -2.3656
  106OSM   H18T10841   3.197   1.288  55.583  2.5012 -0.4870  1.2524
  106OSM   H18U10842   3.290   1.364  55.706 -0.4197  1.0302 -1.4260
  106OSM    C1F10843   2.655   0.655  56.595 -0.2055 -0.7275 -1.2922
  106OSM     OF10844   2.557   0.682  56.661 -0.1131 -0.4247  0.6592
  106OSM    C2F10845   2.640   0.620  56.454 -0.4734  0.1323 -0.3121
  106OSM    H2F10846   2.663   0.512  56.440 -0.8274  0.2286 -1.9264
  106OSM    H2G10847   2.709   0.686  56.396 -2.1859  0.3767 -2.2098
  106OSM    C3F10848   2.490   0.628  56.405 -0.3880  0.2420 -0.2209
  106OSM    H3F10849   2.452   0.724  56.445  0.4856  0.7801 -0.6692
  106OSM    H3G10850   2.429   0.543  56.443 -0.6054  0.5254  0.0665
  106OSM    C4F10851   2.498   0.618  56.251  0.0106 -0.3155  0.2244
  106OSM    H4F10852   2.593   0.572  56.215  0.7175  1.5617 -0.4166
  106OSM    H4G10853   2.522   0.715  56.203  0.3264 -0.2727  0.4702
  106OSM    C5F10854   2.374   0.558  56.190  0.3533  0.9163  0.2438
  106OSM    H5F10855   2.376   0.576  56.080  0.9828 -1.6690 -0.2468
  106OSM    H5G10856   2.279   0.592  56.236 -0.5428 -1.3811  0.2330
  106OSM    C6F10857   2.353   0.400  56.186 -0.0136  0.2222  0.1028
  106OSM    H6F10858   2.263   0.376  56.126 -0.1737  0.2141  0.3436
  106OSM    H6G10859   2.323   0.360  56.285 -1.8387 -0.5626 -0.7197
  106OSM    C7F10860   2.468   0.329  56.120  0.1007  0.8213 -0.0826
  106OSM    H7F10861   2.512   0.263  56.198 -1.1533  1.1553  0.9388
  106OSM    H7G10862   2.536   0.397  56.063  0.8757 -0.5394 -0.8423
  106OSM    C8F10863   2.417   0.232  56.010 -0.3732  0.5542 -1.4365
  106OSM    H8F10864   2.335   0.287  55.960  0.5122  0.7373 -2.7570
  106OSM    H8G10865   2.366   0.143  56.053  5.1192 -2.5483 -0.3477
  106OSM    C9F10866   2.522   0.189  55.914  0.1531  0.5611 -0.2502
  106OSM    H9F10867   2.574   0.274  55.869  2.7966  0.8196  2.8897
  106OSM   C10F10868   2.566   0.065  55.894  0.6604 -0.5361 -0.3246
  106OSM   H10F10869   2.654   0.052  55.830 -0.3291 -1.8236 -1.4992
  106OSM   C11F10870   2.506  -0.062  55.957 -0.5577  0.2686  0.5212
  106OSM   H11F10871   2.411  -0.058  56.014  1.1318 -3.3722  4.0432
  106OSM   H11G10872   2.569  -0.113  56.032  1.2100  0.7154 -0.5945
  106OSM   C12F10873   2.494  -0.163  55.842  0.0433 -0.3036  0.5462
  106OSM   H12F10874   2.490  -0.260  55.896 -1.9505 -0.0913  0.8457
  106OSM   H12G10875   2.580  -0.174  55.772 -0.3127  1.4986 -0.2328
  106OSM   C13F10876   2.362  -0.145  55.768  0.2279 -0.1182 -0.2555
  106OSM   H13F10877   2.385  -0.073  55.686 -0.5793  0.2015 -0.2054
  106OSM   H13G10878   2.287  -0.102  55.838 -0.3254  2.8061 -2.4722
  106OSM   C14F10879   2.320  -0.281  55.702  0.3263 -0.5360 -0.6929
  106OSM   H14F10880   2.265  -0.342  55.776  0.6394  0.1964  0.1668
  106OSM   H14G10881   2.411  -0.327  55.657  2.7092  4.0761 -1.2030
  106OSM   C15F10882   2.218  -0.265  55.593 -0.5688  0.1359 -0.6934
  106OSM   H15F10883   2.167  -0.167  55.600 -2.2420 -0.7398  0.0473
  106OSM   H15G10884   2.134  -0.337  55.601 -0.0413 -0.2896  1.6800
  106OSM   C16F10885   2.287  -0.278  55.458  0.2279 -0.1045 -0.0786
  106OSM   H16F10886   2.343  -0.374  55.457 -0.3279 -0.4333  0.0601
  106OSM   H16G10887   2.360  -0.195  55.448 -1.9176  2.1250  1.5465
  106OSM   C17F10888   2.189  -0.281  55.336  0.2055 -0.3385  0.4449
  106OSM   H17F10889   2.131  -0.187  55.332  1.6260  0.5362 -0.1944
  106OSM   H17G10890   2.135  -0.378  55.345  1.2208 -0.7905  2.1241
  106OSM   C18F10891   2.261  -0.300  55.203  0.8441  0.2154  0.0674
  106OSM   H18F10892   2.299  -0.404  55.195  0.1286 -0.0126 -0.5150
  106OSM   H18G10893   2.341  -0.229  55.176  2.3517 -1.6929 -0.6979
  106OSM   H18H10894   2.194  -0.304  55.114  1.3581 -0.6494 -0.2962
  107OSM      N10895   0.242   1.794  73.414 -0.1923  0.8602  0.3425
  107OSM    C1510896   0.136   1.871  73.341 -0.2819  0.4509  0.5016
  107OSM   H15A10897   0.173   1.944  73.271  1.5843 -0.3168  0.6298
  107OSM   H15B10898   0.087   1.934  73.413 -0.6753 -0.5950  1.1713
  107OSM   H15C10899   0.062   1.813  73.287 -0.0281 -0.7936  1.4585
  107OSM    C1410900   0.313   1.724  73.302  0.6655  0.7292 -0.1582
  107OSM   H14A10901   0.242   1.653  73.261  1.0490 -0.5132  1.2129
  107OSM   H14B10902   0.400   1.670  73.337  1.1257  1.2316 -0.5187
  107OSM   H14C10903   0.342   1.793  73.225 -0.9963  0.8500 -0.7041
  107OSM    C1310904   0.323   1.908  73.476 -0.3468  0.3444  0.4062
  107OSM   H13A10905   0.328   1.980  73.397  0.7847 -0.8968 -0.7108
  107OSM   H13B10906   0.416   1.869  73.516 -0.7174 -0.8832  0.1015
  107OSM   H13C10907   0.265   1.963  73.549 -0.0375  1.5362 -0.2343
  107OSM    C1210908   0.189   1.701  73.524 -0.2355  0.2614  0.7716
  107OSM   H12A10909   0.271   1.677  73.589 -0.8260  0.4543  1.5944
  107OSM   H12B10910   0.139   1.612  73.487 -2.9253  2.0481 -0.2683
  107OSM    C1110911   0.075   1.766  73.617 -0.1763 -0.0816  0.5976
  107OSM   H11A10912   0.114   1.860  73.660 -1.6496  0.5553  0.5813
  107OSM   H11B10913   0.052   1.696  73.700  0.3266  0.8547  1.5351
  107OSM      P10914  -0.161   1.705  73.513  0.2086 -0.1805 -0.1310
  107OSM    O1310915  -0.224   1.686  73.647 -0.6155  0.7736  0.1406
  107OSM    O1410916  -0.243   1.750  73.397 -0.0041  0.3182 -0.3687
  107OSM    O1110917  -0.102   1.562  73.478  0.2694  0.3138 -0.1141
  107OSM    O1210918  -0.042   1.800  73.532  0.2762 -0.5124 -0.2968
  107OSM    C1S10919  -0.172   1.463  73.396  0.5805 -0.3954  0.3165
  107OSM    H1S10920  -0.272   1.445  73.443  0.0810  2.0781  0.3474
  107OSM    H1T10921  -0.128   1.362  73.412  1.0033  0.1365  2.9443
  107OSM     NF10922  -0.272   1.377  73.190  0.0591  0.4013 -0.4053
  107OSM    HNF10923  -0.232   1.305  73.134  1.1034  0.6744 -0.0246
  107OSM    C2S10924  -0.187   1.484  73.238 -0.7854 -0.4806  0.1827
  107OSM    H2S10925  -0.228   1.587  73.227  1.2494  0.6210  2.0938
  107OSM    C3S10926  -0.056   1.492  73.156  0.3585 -0.0328 -0.8525
  107OSM    H3S10927  -0.019   1.389  73.175 -0.3177 -0.1160  0.0711
  107OSM     O310928   0.038   1.577  73.210 -0.6214  0.0530  0.0969
  107OSM    HO310929   0.002   1.610  73.293 -1.4528 -0.7776  0.0833
  107OSM    C4S10930  -0.074   1.504  73.007 -0.9244 -0.3684  0.0799
  107OSM    H4S10931  -0.099   1.406  72.963  1.0418 -1.1119  0.5636
  107OSM    C5S10932  -0.048   1.612  72.926 -1.3663  0.4033 -0.9220
  107OSM    H5S10933   0.003   1.697  72.975  0.6183 -0.7296 -0.9163
  107OSM    C6S10934  -0.057   1.628  72.769  0.3498  0.6803 -0.8686
  107OSM    H6S10935  -0.047   1.736  72.746 -0.7892  1.9255  3.5324
  107OSM    H6T10936  -0.161   1.598  72.743 -0.4693 -3.3336  5.0235
  107OSM    C7S10937   0.053   1.537  72.706  0.9340 -0.2671 -0.2606
  107OSM    H7S10938   0.025   1.429  72.714 -2.4525  0.4843 -0.4017
  107OSM    H7T10939   0.151   1.559  72.753  0.9025  0.0657 -0.3479
  107OSM    C8S10940   0.054   1.555  72.550 -0.3861 -1.2467 -0.0593
  107OSM    H8S10941   0.128   1.498  72.491  1.9638  1.7437 -0.2023
  107OSM    H8T10942   0.079   1.659  72.522 -2.7639 -0.8342 -0.9063
  107OSM    C9S10943  -0.080   1.528  72.474 -0.2795  0.4606  0.3719
  107OSM    H9S10944  -0.160   1.600  72.498 -2.7137 -2.7973  3.1431
  107OSM    H9T10945  -0.119   1.426  72.496 -1.5569 -0.0318 -3.4652
  107OSM   C10S10946  -0.069   1.533  72.324 -0.2662  0.3293  0.3182
  107OSM   H10S10947  -0.010   1.445  72.291 -0.9612 -0.4034  0.9716
  107OSM   H10T10948  -0.011   1.623  72.296  0.1131 -0.5489 -1.8638
  107OSM   C11S10949  -0.200   1.521  72.247  0.0642  0.0485  0.2162
  107OSM   H11S10950  -0.275   1.595  72.282  0.1830 -1.7358  5.0453
  107OSM   H11T10951  -0.248   1.424  72.274  1.0102 -0.1751  1.2238
  107OSM   C12S10952  -0.158   1.518  72.097  0.1433 -0.2999 -0.5105
  107OSM   H12S10953  -0.113   1.420  72.070  0.5972 -0.0229 -0.7638
  107OSM   H12T10954  -0.085   1.601  72.088  3.7853 -2.6607  3.4760
  107OSM   C13S10955  -0.287   1.545  72.004  0.5034 -0.3765 -0.7426
  107OSM   H13S10956  -0.329   1.645  72.026 -0.1996 -0.6980 -0.5923
  107OSM   H13T10957  -0.363   1.471  72.036  0.3660  0.8368  1.9874
  107OSM   C14S10958  -0.263   1.511  71.853 -0.7314  0.0922  0.0202
  107OSM   H14S10959  -0.209   1.415  71.842 -1.6189 -0.3784 -0.3334
  107OSM   H14T10960  -0.197   1.590  71.810 -1.0080  0.0392 -0.5115
  107OSM   C15S10961  -0.386   1.485  71.764  0.1774 -0.5831  0.2316
  107OSM   H15S10962  -0.462   1.563  71.786  3.2360  2.6787  0.1521
  107OSM   H15T10963  -0.429   1.387  71.794 -0.7889 -0.3963 -0.5162
  107OSM   C16S10964  -0.358   1.500  71.613 -0.3164  0.3949 -0.1372
  107OSM   H16S10965  -0.269   1.440  71.583  0.2668  0.6183  1.0722
  107OSM   H16T10966  -0.320   1.600  71.582  0.1936 -0.2812 -1.7602
  107OSM   C17S10967  -0.473   1.457  71.529  0.2413 -1.1736  0.4622
  107OSM   H17S10968  -0.557   1.427  71.596 -1.3053 -0.4567 -1.0725
  107OSM   H17T10969  -0.453   1.355  71.488 -1.9042 -0.2769 -3.2419
  107OSM   C18S10970  -0.515   1.559  71.420 -0.1933  1.4197 -0.7424
  107OSM   H18S10971  -0.430   1.563  71.349  0.9032 -1.4817  0.2327
  107OSM   H18T10972  -0.543   1.654  71.471  1.0872 -0.3103  3.6000
  107OSM   H18U10973  -0.599   1.522  71.356  0.0289  0.0360 -0.2741
  107OSM    C1F10974  -0.403   1.391  73.205  0.4327 -0.6679  0.4446
  107OSM     OF10975  -0.458   1.478  73.277  0.0930  0.3687 -0.8664
  107OSM    C2F10976  -0.491   1.302  73.125 -0.2491  0.3704 -1.2009
  107OSM    H2F10977  -0.552   1.246  73.200 -2.0023  2.0442 -1.2961
  107OSM    H2G10978  -0.431   1.226  73.070 -1.0119  0.0614 -1.6145
  107OSM    C3F10979  -0.597   1.377  73.044  0.2009  0.3708 -0.0062
  107OSM    H3F10980  -0.642   1.452  73.113 -0.9611 -0.2895 -0.0224
  107OSM    H3G10981  -0.687   1.319  73.014 -1.2192  1.8118  1.3036
  107OSM    C4F10982  -0.536   1.446  72.917  0.1306  0.0971 -0.4125
  107OSM    H4F10983  -0.497   1.353  72.871 -0.4305 -1.5163  2.1741
  107OSM    H4G10984  -0.449   1.506  72.952  0.3795 -0.8449  0.6003
  107OSM    C5F10985  -0.630   1.510  72.822 -0.8640 -0.5402 -0.9123
  107OSM    H5F10986  -0.685   1.601  72.853  2.2188  0.9877  0.5134
  107OSM    H5G10987  -0.710   1.434  72.812 -0.0316 -2.0247  2.2452
  107OSM    C6F10988  -0.562   1.545  72.691  0.3752 -1.0684  0.2507
  107OSM    H6F10989  -0.493   1.632  72.692 -0.8431 -0.0737  0.1852
  107OSM    H6G10990  -0.651   1.563  72.626 -0.7930 -2.5297  1.3704
  107OSM    C7F10991  -0.489   1.433  72.620 -0.3608 -0.6675 -0.5359
  107OSM    H7F10992  -0.543   1.337  72.630  0.7809 -1.1364  1.9372
  107OSM    H7G10993  -0.396   1.410  72.676 -1.4117 -0.4285  1.4015
  107OSM    C8F10994  -0.448   1.458  72.470  0.9742 -0.2267 -0.2733
  107OSM    H8F10995  -0.375   1.377  72.450  0.8902 -0.1560 -0.8886
  107OSM    H8G10996  -0.390   1.553  72.476 -0.8979  0.8863  1.2026
  107OSM    C9F10997  -0.558   1.463  72.369  0.8245  0.1229 -0.6290
  107OSM    H9F10998  -0.616   1.556  72.360  0.2969  0.0540  1.6302
  107OSM   C10F10999  -0.610   1.362  72.291  0.0072  0.0849  0.5876
  107OSM   H10F11000  -0.684   1.384  72.213  0.3519  2.8297  0.9461
  107OSM   C11F11001  -0.565   1.213  72.275 -0.6961  0.0454  0.8466
  107OSM   H11F11002  -0.651   1.147  72.299 -2.5975  1.5341 -1.3561
  107OSM   H11G11003  -0.492   1.185  72.354 -0.7449  0.8405  1.1825
  107OSM   C12F11004  -0.499   1.202  72.136  0.4400  0.1938  0.2486
  107OSM   H12F11005  -0.429   1.117  72.156  1.9322  1.5154  0.9128
  107OSM   H12G11006  -0.440   1.288  72.098  0.3062  0.5048  0.7249
  107OSM   C13F11007  -0.607   1.175  72.032  0.0596  0.5262 -0.8962
  107OSM   H13F11008  -0.672   1.265  72.025  0.7652  1.2728  1.3161
  107OSM   H13G11009  -0.667   1.093  72.076  2.0265 -0.0810  0.8056
  107OSM   C14F11010  -0.556   1.120  71.901  0.6661  0.0983  0.4624
  107OSM   H14F11011  -0.503   1.022  71.912 -2.5304 -1.6039  2.1280
  107OSM   H14G11012  -0.490   1.191  71.847  1.2092  0.9191  2.1330
  107OSM   C15F11013  -0.677   1.083  71.808  0.8177 -0.6598  0.0922
  107OSM   H15F11014  -0.718   1.177  71.766 -2.2974 -1.9521 -0.0701
  107OSM   H15G11015  -0.761   1.040  71.866  0.4074  1.4604  1.1739
  107OSM   C16F11016  -0.638   0.992  71.693 -0.1891  0.1242 -0.1424
  107OSM   H16F11017  -0.732   0.950  71.651  0.5207 -1.8353  0.1137
  107OSM   H16G11018  -0.584   0.902  71.730  0.5397  1.3801  1.9963
  107OSM   C17F11019  -0.552   1.049  71.583 -0.2650 -0.6944 -0.6443
  107OSM   H17F11020  -0.455   1.064  71.635 -0.3824 -0.2247 -0.5616
  107OSM   H17G11021  -0.578   1.155  71.559  4.8209  1.0378  0.3181
  107OSM   C18F11022  -0.519   0.968  71.460  1.0136  0.6206  0.1103
  107OSM   H18F11023  -0.479   0.869  71.489 -0.6954  0.2956  1.4897
  107OSM   H18G11024  -0.454   1.029  71.392 -3.5082  2.9392 -2.6552
  107OSM   H18H11025  -0.611   0.939  71.405  2.5666  0.2059 -2.4851
  108OSM      N11026   2.226   0.794  57.819 -0.1783 -0.4856 -0.1535
  108OSM    C1511027   2.238   0.934  57.862 -0.5486 -1.1968  0.5094
  108OSM   H15A11028   2.236   1.003  57.778  4.8120 -0.4896  0.6218
  108OSM   H15B11029   2.323   0.952  57.925  1.6206 -1.6693 -2.1213
  108OSM   H15C11030   2.144   0.946  57.914 -0.0907 -1.9160  1.5244
  108OSM    C1411031   2.102   0.762  57.749 -0.7916  0.2642 -0.1109
  108OSM   H14A11032   2.065   0.841  57.686  1.6551  1.5241 -0.0726
  108OSM   H14B11033   2.026   0.749  57.825  0.2348 -0.1929  0.8694
  108OSM   H14C11034   2.102   0.659  57.716  0.2885 -0.9128  3.1540
  108OSM    C1311035   2.345   0.764  57.733  0.8794  0.0461  0.5179
  108OSM   H13A11036   2.359   0.847  57.665 -1.0395 -0.2083 -0.2371
  108OSM   H13B11037   2.333   0.668  57.684 -0.8867 -0.6495  2.1881
  108OSM   H13C11038   2.441   0.753  57.782  0.2771  0.3108  1.7915
  108OSM    C1211039   2.243   0.704  57.945  0.1693  0.1568  0.1531
  108OSM   H12A11040   2.169   0.736  58.017 -1.1936  0.5710 -1.3713
  108OSM   H12B11041   2.331   0.745  57.993 -0.6754  1.6951  0.4748
  108OSM    C1111042   2.258   0.547  57.948  0.2502 -0.4451 -0.4060
  108OSM   H11A11043   2.251   0.511  58.053  1.7536  2.5183  0.8158
  108OSM   H11B11044   2.364   0.540  57.917  0.7826 -1.7102  1.5528
  108OSM      P11045   2.029   0.419  57.918  0.0051 -0.2353 -0.1558
  108OSM    O1311046   2.002   0.455  58.055  0.0185 -0.0139 -0.2459
  108OSM    O1411047   1.924   0.434  57.824  0.2006 -0.3747 -0.6623
  108OSM    O1111048   2.062   0.270  57.927 -0.1026  0.0743  0.0071
  108OSM    O1211049   2.154   0.491  57.866 -0.2142  0.2111 -0.3769
  108OSM    C1S11050   2.196   0.221  57.957  0.1587  0.1619  0.1837
  108OSM    H1S11051   2.212   0.219  58.067  2.4686 -0.1965 -0.1070
  108OSM    H1T11052   2.268   0.286  57.904 -2.3887  0.8691 -2.7054
  108OSM     NF11053   2.360   0.024  57.955 -1.1506  0.1565 -0.2785
  108OSM    HNF11054   2.449   0.031  57.911 -1.0898  0.2061 -0.1464
  108OSM    C2S11055   2.228   0.072  57.906  0.1443 -0.4867 -0.8215
  108OSM    H2S11056   2.152   0.008  57.954 -0.8360  1.9898  1.1755
  108OSM    C3S11057   2.207   0.061  57.753 -0.0389  0.0562 -0.6338
  108OSM    H3S11058   2.306   0.101  57.721  0.6240 -1.8179 -1.0177
  108OSM     O311059   2.110   0.144  57.688 -0.4753 -0.0884  0.1582
  108OSM    HO311060   2.087   0.208  57.757  1.8292  2.0683 -0.9087
  108OSM    C4S11061   2.184  -0.087  57.707 -0.6836  0.4386  0.2185
  108OSM    H4S11062   2.111  -0.138  57.771  0.0553 -0.7724  0.1444
  108OSM    C5S11063   2.261  -0.154  57.619  0.8648  0.2963  0.6215
  108OSM    H5S11064   2.345  -0.107  57.565 -0.4323  0.1270 -1.6579
  108OSM    C6S11065   2.243  -0.296  57.577  0.5923  0.6310  0.4702
  108OSM    H6S11066   2.218  -0.306  57.469 -3.3246  0.1339  1.2764
  108OSM    H6T11067   2.162  -0.347  57.632 -0.5079 -2.0807 -3.1863
  108OSM    C7S11068   2.376  -0.366  57.613  0.6674 -0.4878  0.4141
  108OSM    H7S11069   2.401  -0.362  57.722  1.2525  1.2108  0.2446
  108OSM    H7T11070   2.461  -0.307  57.572  0.0745  1.1103  1.3885
  108OSM    C8S11071   2.395  -0.508  57.572  0.5877  0.6670 -1.4229
  108OSM    H8S11072   2.505  -0.520  57.559  1.3382  5.0578 -0.9122
  108OSM    H8T11073   2.354  -0.531  57.471 -1.4031  0.8783 -0.7128
  108OSM    C9S11074   2.351  -0.603  57.685  0.4261  1.4508 -0.2498
  108OSM    H9S11075   2.269  -0.550  57.737 -0.5632  0.4586 -0.7595
  108OSM    H9T11076   2.436  -0.620  57.754 -0.7552 -4.4617  0.2611
  108OSM   C10S11077   2.288  -0.735  57.652  0.5397 -0.1379 -0.9051
  108OSM   H10S11078   2.195  -0.712  57.596  1.3367  5.6148 -0.4870
  108OSM   H10T11079   2.266  -0.800  57.740  0.8938 -1.3016 -1.6474
  108OSM   C11S11080   2.382  -0.812  57.558 -0.6228 -0.0661 -0.7061
  108OSM   H11S11081   2.476  -0.836  57.612 -1.2868 -0.4404  0.3089
  108OSM   H11T11082   2.420  -0.746  57.477  1.4537  0.5073  0.6627
  108OSM   C12S11083   2.340  -0.947  57.500  0.1475  0.3851  0.3871
  108OSM   H12S11084   2.293  -1.011  57.578  1.0184  0.7561  1.2350
  108OSM   H12T11085   2.435  -0.999  57.476 -0.2695  0.8047 -2.5652
  108OSM   C13S11086   2.243  -0.941  57.386 -0.2519 -1.2165 -0.5798
  108OSM   H13S11087   2.271  -0.881  57.297 -0.5942  0.5820  0.4741
  108OSM   H13T11088   2.167  -0.888  57.447  1.1989 -0.7286  0.9025
  108OSM   C14S11089   2.179  -1.074  57.345  0.7713  1.0249  0.0501
  108OSM   H14S11090   2.116  -1.055  57.256  2.6475 -2.0782 -2.1337
  108OSM   H14T11091   2.104  -1.104  57.421  1.6631  0.1074  0.5814
  108OSM   C15S11092   2.274  -1.185  57.320 -0.7030  0.6023  0.5178
  108OSM   H15S11093   2.321  -1.214  57.416 -0.4724  0.7293  0.4446
  108OSM   H15T11094   2.360  -1.143  57.262  0.0507 -0.7254  0.6254
  108OSM   C16S11095   2.237  -1.310  57.235 -0.1313  0.6461 -0.3798
  108OSM   H16S11096   2.330  -1.357  57.194 -1.1040  0.2599 -2.2485
  108OSM   H16T11097   2.174  -1.273  57.152  0.6084 -0.4540 -1.4665
  108OSM   C17S11098   2.174  -1.433  57.305  0.7842  0.3584  0.1859
  108OSM   H17S11099   2.153  -1.505  57.223 -1.6024  1.2146 -0.0222
  108OSM   H17T11100   2.077  -1.412  57.354  0.2422  0.4332 -0.8991
  108OSM   C18S11101   2.266  -1.502  57.403  0.0882  0.4970  0.2302
  108OSM   H18S11102   2.247  -1.611  57.409 -0.6846  0.6023 -0.1299
  108OSM   H18T11103   2.261  -1.449  57.502 -1.9775  1.0774 -0.1188
  108OSM   H18U11104   2.374  -1.504  57.378  0.3034 -1.4987  1.1782
  108OSM    C1F11105   2.371  -0.005  58.081  0.0253  1.2655 -0.0048
  108OSM     OF11106   2.274   0.003  58.153  0.5041  0.4903 -0.3790
  108OSM    C2F11107   2.500  -0.069  58.133  0.6446  0.2261 -0.0761
  108OSM    H2F11108   2.577  -0.081  58.054 -0.1572  0.6271 -0.9316
  108OSM    H2G11109   2.468  -0.173  58.156  2.4208 -0.4229 -0.3417
  108OSM    C3F11110   2.528  -0.008  58.276 -0.0334 -0.0136  0.2098
  108OSM    H3F11111   2.444   0.004  58.347  0.6722 -0.6712  1.1694
  108OSM    H3G11112   2.577   0.092  58.268  0.7510 -0.4132 -0.0937
  108OSM    C4F11113   2.619  -0.093  58.360  0.0385 -1.0077  0.0031
  108OSM    H4F11114   2.719  -0.097  58.311 -0.4173  0.0288 -1.0589
  108OSM    H4G11115   2.580  -0.197  58.364 -3.4444  0.1097 -1.6273
  108OSM    C5F11116   2.608  -0.038  58.502  0.5242 -0.6498 -0.1257
  108OSM    H5F11117   2.501  -0.051  58.528  0.2252 -0.7300 -1.3371
  108OSM    H5G11118   2.628   0.070  58.518  0.7852 -0.7315  0.1171
  108OSM    C6F11119   2.698  -0.123  58.596  0.4244 -0.0405  0.5826
  108OSM    H6F11120   2.805  -0.099  58.580  1.2686 -1.5419  3.2256
  108OSM    H6G11121   2.693  -0.233  58.578  1.0956 -0.1148  0.8168
  108OSM    C7F11122   2.656  -0.112  58.737  1.0481  0.8961 -0.5594
  108OSM    H7F11123   2.555  -0.154  58.756  1.7859 -0.3274  0.7963
  108OSM    H7G11124   2.642  -0.002  58.742  1.3896  0.8931  0.6113
  108OSM    C8F11125   2.751  -0.163  58.843  0.3492 -0.1572 -0.0955
  108OSM    H8F11126   2.776  -0.271  58.840  0.0680 -0.6134  5.0403
  108OSM    H8G11127   2.699  -0.139  58.939  0.5626 -0.9997  0.2442
  108OSM    C9F11128   2.876  -0.086  58.831  0.6501  0.3059  0.6165
  108OSM    H9F11129   2.849   0.020  58.821 -2.4779 -0.3767  0.8668
  108OSM   C10F11130   2.994  -0.138  58.846  0.2198 -0.9593  0.4529
  108OSM   H10F11131   3.080  -0.085  58.802  1.8161 -2.3018  1.8000
  108OSM   C11F11132   3.045  -0.276  58.860  0.1409 -0.1039 -1.3920
  108OSM   H11F11133   2.979  -0.325  58.935  2.3253 -3.2539 -1.3812
  108OSM   H11G11134   3.142  -0.270  58.912 -0.7284 -3.0664  0.8392
  108OSM   C12F11135   3.057  -0.369  58.743  0.6661 -0.7646 -0.0994
  108OSM   H12F11136   2.968  -0.368  58.676  1.4940  3.2986 -1.4167
  108OSM   H12G11137   3.076  -0.472  58.781 -0.4291 -1.3016 -0.9458
  108OSM   C13F11138   3.170  -0.345  58.647 -0.5982 -0.1561 -0.0216
  108OSM   H13F11139   3.190  -0.236  58.649  1.9911 -0.5611  0.6558
  108OSM   H13G11140   3.169  -0.382  58.542  1.6146  2.6780 -1.1750
  108OSM   C14F11141   3.305  -0.403  58.697 -1.6132  0.0683 -0.1984
  108OSM   H14F11142   3.293  -0.506  58.735  1.6643  0.8434  3.6803
  108OSM   H14G11143   3.327  -0.343  58.788  1.4272  1.7407 -1.8694
  108OSM   C15F11144   3.422  -0.389  58.604  1.0565  0.4415 -0.0264
  108OSM   H15F11145   3.397  -0.453  58.517  0.7515  3.5407 -2.3790
  108OSM   H15G11146   3.523  -0.412  58.644  1.6545  1.9735 -0.5976
  108OSM   C16F11147   3.452  -0.257  58.538  1.3940 -0.2913 -0.2806
  108OSM   H16F11148   3.472  -0.183  58.619  1.0916  0.0028 -0.4726
  108OSM   H16G11149   3.363  -0.226  58.478 -0.6344 -0.3801  2.4585
  108OSM   C17F11150   3.582  -0.251  58.467 -0.1661  0.0286 -0.5053
  108OSM   H17F11151   3.580  -0.346  58.411 -0.1157 -0.8844  0.9741
  108OSM   H17G11152   3.677  -0.256  58.525 -0.5044  1.9572  0.2840
  108OSM   C18F11153   3.602  -0.130  58.379 -0.3921  0.1974 -0.1067
  108OSM   H18F11154   3.519  -0.113  58.308  2.0775  0.4349 -3.1787
  108OSM   H18G11155   3.698  -0.135  58.322 -1.1441  1.1685 -1.5161
  108OSM   H18H11156   3.600  -0.047  58.453  0.5335  1.8845 -1.8970
  109OSM      N11157   0.319   2.048  67.931 -0.0788 -0.2371  0.3423
  109OSM    C1511158   0.304   1.917  67.993 -0.2255 -0.0340 -0.6149
  109OSM   H15A11159   0.330   1.839  67.924 -0.6732 -0.2754 -0.5120
  109OSM   H15B11160   0.199   1.894  68.011 -0.0369  0.4244  1.2914
  109OSM   H15C11161   0.344   1.909  68.093  1.4133 -1.9282 -1.3730
  109OSM    C1411162   0.237   2.159  67.996 -0.1227 -0.0504  0.7855
  109OSM   H14A11163   0.273   2.175  68.096 -0.3555  0.4082  0.8036
  109OSM   H14B11164   0.137   2.118  68.005  0.4501 -1.8410 -0.3622
  109OSM   H14C11165   0.241   2.248  67.934  0.2395  0.4831  1.5746
  109OSM    C1311166   0.465   2.081  67.924  0.1590  0.6168  0.0140
  109OSM   H13A11167   0.522   1.991  67.905  1.1656  1.2662 -0.1326
  109OSM   H13B11168   0.490   2.122  68.020 -1.5134  0.0655  0.7319
  109OSM   H13C11169   0.487   2.157  67.851 -2.5704 -1.0552 -2.8091
  109OSM    C1211170   0.262   2.039  67.783 -0.3899 -0.4287 -0.0445
  109OSM   H12A11171   0.315   1.960  67.731 -2.2262 -1.6285 -0.1735
  109OSM   H12B11172   0.285   2.135  67.739  1.4697 -0.4982  0.6564
  109OSM    C1111173   0.112   1.999  67.768 -0.8328 -0.7674  0.5235
  109OSM   H11A11174   0.095   1.922  67.846 -0.3182 -0.0254  1.3881
  109OSM   H11B11175   0.101   1.953  67.667 -3.6068  0.8970 -0.0346
  109OSM      P11176   0.005   2.216  67.664  0.3962 -0.3102 -0.2116
  109OSM    O1311177  -0.103   2.310  67.696 -0.5427 -0.5542 -0.0605
  109OSM    O1411178   0.139   2.269  67.617 -0.3220  0.2519 -0.6258
  109OSM    O1111179  -0.054   2.138  67.538 -0.6786  0.2422 -0.0368
  109OSM    O1211180   0.022   2.107  67.789  0.6824 -0.1118 -0.0356
  109OSM    C1S11181  -0.160   2.045  67.549 -0.0366 -0.3188 -0.2593
  109OSM    H1S11182  -0.168   2.010  67.655  2.7864  0.4466  0.3052
  109OSM    H1T11183  -0.144   1.953  67.490 -2.6302 -1.2333  0.3409
  109OSM     NF11184  -0.391   2.013  67.494  0.0050 -0.0638 -0.1432
  109OSM    HNF11185  -0.416   1.984  67.402 -0.3752  0.2372 -0.1364
  109OSM    C2S11186  -0.290   2.119  67.502 -0.6190  0.9309 -0.0289
  109OSM    H2S11187  -0.324   2.185  67.584 -0.8502  1.3989 -0.5028
  109OSM    C3S11188  -0.275   2.216  67.383 -0.4225  0.9541  0.0748
  109OSM    H3S11189  -0.228   2.156  67.302 -1.5577  0.3562 -0.1696
  109OSM     O311190  -0.176   2.312  67.393 -0.3791 -1.0461  0.7747
  109OSM    HO311191  -0.120   2.270  67.458 -2.6342 -2.9909  1.6071
  109OSM    C4S11192  -0.405   2.271  67.337 -0.2884  0.3925  0.4394
  109OSM    H4S11193  -0.444   2.214  67.252  1.1723  1.3176 -0.9056
  109OSM    C5S11194  -0.467   2.390  67.381  0.0579 -1.1936 -0.1134
  109OSM    H5S11195  -0.429   2.445  67.468 -2.5604  0.9615 -0.1733
  109OSM    C6S11196  -0.578   2.462  67.318 -0.0342  0.1430  0.3973
  109OSM    H6S11197  -0.528   2.545  67.264 -0.0188 -1.9268 -3.0952
  109OSM    H6T11198  -0.650   2.515  67.384 -0.3715  0.7760 -0.4668
  109OSM    C7S11199  -0.671   2.389  67.218 -0.6343 -0.0031 -0.4761
  109OSM    H7S11200  -0.753   2.321  67.251  1.8981 -3.5721 -0.8765
  109OSM    H7T11201  -0.619   2.325  67.144 -1.5788 -0.7830 -0.4808
  109OSM    C8S11202  -0.756   2.501  67.138  0.9443 -0.0262 -0.6616
  109OSM    H8S11203  -0.679   2.553  67.078  2.3478 -1.2088  0.0584
  109OSM    H8T11204  -0.800   2.570  67.213  1.1130 -1.2665  0.6184
  109OSM    C9S11205  -0.855   2.427  67.051  0.2570  0.1383  1.2102
  109OSM    H9S11206  -0.930   2.378  67.116  1.6227  0.1968  2.8840
  109OSM    H9T11207  -0.813   2.343  66.991  0.8759 -0.8153  2.8960
  109OSM   C10S11208  -0.933   2.520  66.958 -0.9035 -0.1904  0.0307
  109OSM   H10S11209  -0.989   2.601  67.008  0.6656  0.3258  1.0067
  109OSM   H10T11210  -1.014   2.473  66.897 -1.8307  0.6196  0.6100
  109OSM   C11S11211  -0.843   2.601  66.863  0.5238  0.4750 -0.9698
  109OSM   H11S11212  -0.747   2.547  66.847  0.8994  0.1452  1.7854
  109OSM   H11T11213  -0.806   2.699  66.903  1.4348 -0.6107  1.0227
  109OSM   C12S11214  -0.904   2.642  66.723 -0.9965 -0.7320 -0.1138
  109OSM   H12S11215  -1.003   2.688  66.743 -1.2613 -1.9236  1.5515
  109OSM   H12T11216  -0.928   2.552  66.662  0.3811  1.4379 -4.2329
  109OSM   C13S11217  -0.816   2.722  66.628 -0.0554  0.2264 -1.0323
  109OSM   H13S11218  -0.706   2.719  66.644 -0.3306 -2.0214  1.0617
  109OSM   H13T11219  -0.832   2.827  66.660 -1.7257 -0.7745  1.7186
  109OSM   C14S11220  -0.862   2.710  66.487 -0.1649 -1.2363 -0.3689
  109OSM   H14S11221  -0.875   2.608  66.445 -0.5316 -1.3312 -0.0295
  109OSM   H14T11222  -0.779   2.760  66.432  0.0287  0.3377  1.2670
  109OSM   C15S11223  -0.999   2.772  66.475 -0.3489 -0.7107  1.0040
  109OSM   H15S11224  -1.007   2.872  66.523 -2.3548 -1.1195  1.6157
  109OSM   H15T11225  -1.064   2.693  66.519 -0.5804 -1.5390 -0.7509
  109OSM   C16S11226  -1.050   2.803  66.326  0.0691  0.8252  0.5645
  109OSM   H16S11227  -1.161   2.806  66.326  0.0289 -0.1723  1.1113
  109OSM   H16T11228  -0.996   2.726  66.267 -1.3966 -0.0302  0.2978
  109OSM   C17S11229  -0.990   2.937  66.272 -0.3538  0.7254  0.7816
  109OSM   H17S11230  -0.982   3.024  66.340  0.5679  0.6177  0.8206
  109OSM   H17T11231  -1.075   2.968  66.206  1.9037  1.2325 -2.0972
  109OSM   C18S11232  -0.864   2.914  66.185 -0.5094 -0.4706  0.4812
  109OSM   H18S11233  -0.866   3.006  66.123  0.3203  0.6180  2.0200
  109OSM   H18T11234  -0.854   2.829  66.114 -1.7149 -1.7073  1.7365
  109OSM   H18U11235  -0.772   2.925  66.247 -1.4466 -3.3280  2.5537
  109OSM    C1F11236  -0.439   1.945  67.606 -0.3071  0.1257 -0.5177
  109OSM     OF11237  -0.424   1.996  67.719 -0.4010 -0.4873  0.8473
  109OSM    C2F11238  -0.518   1.823  67.572 -0.6031  0.2411 -0.8859
  109OSM    H2F11239  -0.490   1.790  67.470 -0.0075  0.1111 -0.6832
  109OSM    H2G11240  -0.622   1.861  67.580 -0.9776 -0.6257 -1.5171
  109OSM    C3F11241  -0.500   1.700  67.673  0.3460 -1.4764  0.1562
  109OSM    H3F11242  -0.537   1.705  67.778  0.0797  0.4339  0.0062
  109OSM    H3G11243  -0.391   1.682  67.685  0.3768 -1.7731 -0.5379
  109OSM    C4F11244  -0.567   1.578  67.613  0.0557  0.7052  0.2410
  109OSM    H4F11245  -0.531   1.497  67.680  0.1253  1.0946  0.6782
  109OSM    H4G11246  -0.522   1.547  67.516  1.7329 -4.9035  2.4173
  109OSM    C5F11247  -0.715   1.573  67.599 -0.2342  0.8136 -0.9077
  109OSM    H5F11248  -0.758   1.671  67.571 -3.7006  0.1932  1.5739
  109OSM    H5G11249  -0.745   1.540  67.701  2.1016 -1.7341 -0.9014
  109OSM    C6F11250  -0.748   1.462  67.500  0.6550  0.4663  0.5571
  109OSM    H6F11251  -0.730   1.361  67.542 -0.1833  1.7574  4.3554
  109OSM    H6G11252  -0.693   1.475  67.404  1.3041 -1.1692  0.6688
  109OSM    C7F11253  -0.905   1.469  67.475 -0.5985 -0.3940  0.8252
  109OSM    H7F11254  -0.933   1.479  67.582  0.0115  0.2317  0.9304
  109OSM    H7G11255  -0.941   1.375  67.427  2.2094 -1.8318  1.2478
  109OSM    C8F11256  -0.967   1.587  67.397 -0.4551 -0.7712  0.1501
  109OSM    H8F11257  -0.991   1.664  67.473  1.5424 -0.6740  0.7370
  109OSM    H8G11258  -1.061   1.548  67.351  0.5199 -1.5743 -1.2569
  109OSM    C9F11259  -0.887   1.650  67.292 -0.6147  0.2064  0.2287
  109OSM    H9F11260  -0.828   1.738  67.324 -2.9371  2.4447 -1.2176
  109OSM   C10F11261  -0.893   1.625  67.150 -0.2400 -0.0316  0.4901
  109OSM   H10F11262  -0.810   1.669  67.094 -1.1906  1.7791  0.4238
  109OSM   C11F11263  -0.964   1.524  67.072  0.3866  0.6326 -0.0877
  109OSM   H11F11264  -1.065   1.510  67.117  0.3087  0.4735 -0.3127
  109OSM   H11G11265  -0.909   1.427  67.077  0.1330  0.3778 -1.6518
  109OSM   C12F11266  -0.976   1.528  66.917 -0.2509 -0.6106 -0.8302
  109OSM   H12F11267  -0.886   1.530  66.852 -0.3555 -2.1751 -1.0581
  109OSM   H12G11268  -1.001   1.636  66.909  0.4629 -0.2804  0.9230
  109OSM   C13F11269  -1.088   1.454  66.853  0.2304 -0.0158 -0.8865
  109OSM   H13F11270  -1.184   1.484  66.900  0.4421  2.6213 -1.9898
  109OSM   H13G11271  -1.087   1.343  66.860 -0.2569 -0.0141 -0.7426
  109OSM   C14F11272  -1.101   1.485  66.704 -0.3444  0.7549 -0.4016
  109OSM   H14F11273  -1.200   1.449  66.669 -1.2835  2.9603 -0.2344
  109OSM   H14G11274  -1.016   1.436  66.652  1.9789  1.8169  2.1773
  109OSM   C15F11275  -1.104   1.620  66.661  0.4189 -0.1073 -0.3457
  109OSM   H15F11276  -1.001   1.663  66.663  0.4414 -0.1676 -0.1935
  109OSM   H15G11277  -1.164   1.686  66.728  1.9432  0.9120  0.0866
  109OSM   C16F11278  -1.145   1.647  66.515  0.4564  0.0204  0.6831
  109OSM   H16F11279  -1.222   1.578  66.474 -2.4934  3.3621  0.1943
  109OSM   H16G11280  -1.052   1.631  66.456  0.7505  1.6295  0.6644
  109OSM   C17F11281  -1.199   1.786  66.487 -0.0379 -0.0077  0.4680
  109OSM   H17F11282  -1.165   1.870  66.551 -0.7767  0.2522  0.5317
  109OSM   H17G11283  -1.308   1.797  66.505 -0.2423  4.0475 -2.0399
  109OSM   C18F11284  -1.163   1.823  66.343 -0.2348 -0.7311 -0.2756
  109OSM   H18F11285  -1.202   1.925  66.318  0.7919 -0.3624 -0.4056
  109OSM   H18G11286  -1.199   1.743  66.276  0.6268 -2.2511  1.0166
  109OSM   H18H11287  -1.053   1.829  66.328 -0.1961  1.6691  0.4811
  110OSM      N11288   0.952   2.400  63.845  0.5072  0.1063 -0.5318
  110OSM    C1511289   0.958   2.252  63.819 -0.2281 -0.2826  0.1388
  110OSM   H15A11290   1.048   2.199  63.846 -2.1155 -1.3730  5.5225
  110OSM   H15B11291   0.932   2.236  63.715 -0.7732 -0.3575  0.2846
  110OSM   H15C11292   0.881   2.196  63.870 -3.3307  0.9602 -2.7927
  110OSM    C1411293   0.816   2.438  63.822  0.3276 -0.1844  0.2513
  110OSM   H14A11294   0.781   2.412  63.723 -2.5811 -2.0293  1.6362
  110OSM   H14B11295   0.803   2.542  63.849 -3.1298 -1.1293  2.7673
  110OSM   H14C11296   0.747   2.384  63.884  0.0881 -1.3450 -0.9895
  110OSM    C1311297   0.979   2.427  63.991 -0.0064  0.7073 -0.6621
  110OSM   H13A11298   0.905   2.365  64.039  0.5200 -1.0926 -2.0243
  110OSM   H13B11299   0.948   2.524  64.027 -1.3230 -0.4371  1.4992
  110OSM   H13C11300   1.081   2.410  64.022  0.0200  0.7339 -0.7346
  110OSM    C1211301   1.044   2.490  63.754  0.4012 -0.2342  0.0248
  110OSM   H12A11302   0.993   2.585  63.755 -1.4069 -1.1408  2.2601
  110OSM   H12B11303   1.042   2.466  63.649 -1.1393  0.0878 -0.0329
  110OSM    C1111304   1.190   2.513  63.807  1.1809 -0.2771 -0.3166
  110OSM   H11A11305   1.170   2.563  63.904 -1.1731 -2.8105  0.6544
  110OSM   H11B11306   1.239   2.592  63.747  2.4064 -2.1323 -1.8571
  110OSM      P11307   1.316   2.322  63.698  0.4315  0.0733 -0.0490
  110OSM    O1311308   1.197   2.281  63.614 -0.2493 -0.4249 -0.1297
  110OSM    O1411309   1.422   2.396  63.630  0.5522  0.3809 -0.3613
  110OSM    O1111310   1.395   2.190  63.752 -0.1954 -0.4520  0.1386
  110OSM    O1211311   1.265   2.398  63.831 -0.1903 -0.1474 -0.9212
  110OSM    C1S11312   1.489   2.202  63.858  0.0021 -0.5828 -0.1533
  110OSM    H1S11313   1.541   2.299  63.847 -0.9011 -0.0387  0.3045
  110OSM    H1T11314   1.571   2.127  63.851  0.6327  0.2081 -1.5755
  110OSM     NF11315   1.518   2.181  64.096 -0.2072  0.1955 -0.8885
  110OSM    HNF11316   1.534   2.102  64.153  0.0818  0.9711  0.1283
  110OSM    C2S11317   1.417   2.177  63.996 -1.2343  0.2987  0.3943
  110OSM    H2S11318   1.342   2.253  64.025 -1.2237 -0.7462  3.6377
  110OSM    C3S11319   1.327   2.047  63.996 -0.2084  0.9183 -1.2143
  110OSM    H3S11320   1.402   1.965  63.986  3.0080  3.3005  0.9340
  110OSM     O311321   1.240   2.027  63.884 -0.5864  0.3636  0.3397
  110OSM    HO311322   1.287   2.082  63.821 -3.4889 -1.2746 -3.6820
  110OSM    C4S11323   1.265   2.017  64.136  0.3368 -0.0954 -0.4900
  110OSM    H4S11324   1.342   2.009  64.214 -0.7006  0.4587  0.6259
  110OSM    C5S11325   1.131   2.012  64.169  0.0962  0.1973  0.7732
  110OSM    H5S11326   1.061   2.038  64.088  0.4355 -1.8183 -0.2220
  110OSM    C6S11327   1.077   1.988  64.300  0.8307 -0.3206 -0.1971
  110OSM    H6S11328   1.097   2.078  64.362  1.2296  0.4581 -1.4201
  110OSM    H6T11329   1.148   1.921  64.352  0.6641 -0.0159  0.4359
  110OSM    C7S11330   0.934   1.939  64.306  1.3479  0.2867  0.3017
  110OSM    H7S11331   0.916   1.853  64.237 -0.8859 -1.0875  2.4296
  110OSM    H7T11332   0.851   2.010  64.286 -0.0545 -1.5610 -0.7884
  110OSM    C8S11333   0.911   1.882  64.450 -0.1406  0.5026  0.1855
  110OSM    H8S11334   0.800   1.880  64.462 -0.0410  0.2121  1.1364
  110OSM    H8T11335   0.946   1.946  64.533 -0.4063  1.6146 -0.5416
  110OSM    C9S11336   0.949   1.734  64.468 -0.4272 -0.6071 -0.2807
  110OSM    H9S11337   1.052   1.726  64.510 -1.4765 -1.4729  2.3577
  110OSM    H9T11338   0.961   1.685  64.369  0.8651 -0.0533 -0.4127
  110OSM   C10S11339   0.856   1.656  64.561 -0.3885 -0.8723  0.3401
  110OSM   H10S11340   0.768   1.606  64.515 -0.6123 -1.5803  1.4754
  110OSM   H10T11341   0.809   1.728  64.632  1.0906  1.3452 -0.8564
  110OSM   C11S11342   0.936   1.549  64.643 -0.8274 -0.5750 -0.5117
  110OSM   H11S11343   1.026   1.596  64.687 -1.5570  0.5061 -0.1114
  110OSM   H11T11344   0.967   1.468  64.573 -1.6837  1.3135 -3.2281
  110OSM   C12S11345   0.848   1.479  64.748  0.1836  0.3936 -0.5308
  110OSM   H12S11346   0.756   1.438  64.702  0.1957  0.9410 -1.0465
  110OSM   H12T11347   0.818   1.556  64.822  1.9439 -0.4179  1.1427
  110OSM   C13S11348   0.932   1.368  64.817 -0.3989 -0.4460 -0.0913
  110OSM   H13S11349   0.962   1.301  64.733  0.5896  0.8524 -0.8044
  110OSM   H13T11350   0.863   1.324  64.891 -0.3221  0.2756  0.4157
  110OSM   C14S11351   1.055   1.422  64.892  0.1090  0.5602  0.0670
  110OSM   H14S11352   1.021   1.508  64.953 -3.0344 -0.1564 -0.4832
  110OSM   H14T11353   1.128   1.468  64.822 -0.9727  0.3901 -1.2154
  110OSM   C15S11354   1.122   1.318  64.981 -0.3971 -0.7658  0.0307
  110OSM   H15S11355   1.052   1.294  65.064  0.0800  2.8312  1.6624
  110OSM   H15T11356   1.215   1.360  65.024  0.0472 -0.7620 -0.9049
  110OSM   C16S11357   1.141   1.183  64.912 -0.0504 -0.7004 -0.2475
  110OSM   H16S11358   1.206   1.186  64.823  1.1402 -2.0489  0.5323
  110OSM   H16T11359   1.041   1.146  64.883  0.2109 -1.5321 -0.0998
  110OSM   C17S11360   1.207   1.083  65.008 -0.2792 -0.1049 -0.5501
  110OSM   H17S11361   1.140   1.078  65.096  2.2896  2.7972  1.7852
  110OSM   H17T11362   1.300   1.129  65.047 -0.8474 -0.0414  0.7781
  110OSM   C18S11363   1.238   0.938  64.952 -0.1309 -1.3171 -0.1784
  110OSM   H18S11364   1.151   0.877  64.917  1.7926 -2.9978 -2.3723
  110OSM   H18T11365   1.312   0.886  65.016  1.3158  2.1163  1.2170
  110OSM   H18U11366   1.289   0.952  64.854  0.9054 -2.3933  0.1900
  110OSM    C1F11367   1.613   2.284  64.111 -0.7213  0.4396  1.0291
  110OSM     OF11368   1.597   2.383  64.045 -0.4586 -0.0224 -0.3817
  110OSM    C2F11369   1.734   2.252  64.200  0.1505 -0.2387 -0.5172
  110OSM    H2F11370   1.800   2.341  64.209  1.4817 -0.8764 -3.3024
  110OSM    H2G11371   1.797   2.171  64.159 -0.1180  0.0527 -1.5189
  110OSM    C3F11372   1.685   2.210  64.338 -0.1942 -0.3075 -0.3904
  110OSM    H3F11373   1.597   2.142  64.335 -1.1864  0.6274  3.0049
  110OSM    H3G11374   1.653   2.300  64.396 -0.9020 -1.8788  1.8170
  110OSM    C4F11375   1.800   2.141  64.415  0.8364  0.1466  0.5390
  110OSM    H4F11376   1.899   2.191  64.411  2.7355 -3.2116  1.7941
  110OSM    H4G11377   1.821   2.052  64.353  0.6089  0.6121 -0.2188
  110OSM    C5F11378   1.757   2.110  64.560 -0.3047 -0.0574 -1.1110
  110OSM    H5F11379   1.678   2.032  64.563 -1.0102  0.6779 -0.4783
  110OSM    H5G11380   1.717   2.204  64.602 -1.7967 -1.6378  1.2219
  110OSM    C6F11381   1.874   2.050  64.635 -0.9676  0.5969 -0.2572
  110OSM    H6F11382   1.904   1.955  64.585  1.4696  1.3405 -0.3253
  110OSM    H6G11383   1.842   2.026  64.738  1.2877 -0.3453  0.2888
  110OSM    C7F11384   2.002   2.140  64.669  0.1031  0.7505  0.8761
  110OSM    H7F11385   1.949   2.237  64.678  0.2549  0.6797  2.9116
  110OSM    H7G11386   2.080   2.139  64.590 -0.4316 -3.1872  0.2108
  110OSM    C8F11387   2.067   2.113  64.810 -0.2015  1.1022 -0.5523
  110OSM    H8F11388   1.986   2.096  64.884 -0.3600 -0.7185 -1.0946
  110OSM    H8G11389   2.115   2.211  64.831 -1.5025  2.1856 -2.3576
  110OSM    C9F11390   2.150   1.983  64.812  0.0051  0.4170  0.5176
  110OSM    H9F11391   2.118   1.911  64.735 -0.1009 -1.1988  2.0037
  110OSM   C10F11392   2.248   1.952  64.903  0.6339  0.3812 -0.7326
  110OSM   H10F11393   2.312   1.864  64.886 -0.1859  0.1579 -3.1261
  110OSM   C11F11394   2.289   2.046  65.011  0.2009  0.2264  0.0260
  110OSM   H11F11395   2.283   2.153  64.981  1.7163 -0.2768 -2.3787
  110OSM   H11G11396   2.398   2.045  65.035  0.5938  0.1166 -1.6413
  110OSM   C12F11397   2.199   2.015  65.139 -1.1613 -0.9010 -0.8353
  110OSM   H12F11398   2.095   2.010  65.103  0.1064 -3.3458 -4.7192
  110OSM   H12G11399   2.215   2.097  65.213 -0.4266 -2.0561  0.3469
  110OSM   C13F11400   2.236   1.883  65.209  0.3260 -0.4329  0.0250
  110OSM   H13F11401   2.340   1.878  65.248 -0.2058 -5.2149  1.4958
  110OSM   H13G11402   2.219   1.796  65.142  0.2828 -0.3157 -0.1159
  110OSM   C14F11403   2.155   1.855  65.335  0.9699 -0.2469 -0.3837
  110OSM   H14F11404   2.142   1.953  65.386 -1.4039 -0.5359 -0.3182
  110OSM   H14G11405   2.206   1.787  65.407 -1.4333  0.4963  2.1917
  110OSM   C15F11406   2.024   1.786  65.306  0.5208  0.7466  0.4575
  110OSM   H15F11407   2.026   1.676  65.291  1.0659  0.6485  1.1515
  110OSM   H15G11408   1.979   1.830  65.215  0.3727  0.4586  0.3865
  110OSM   C16F11409   1.908   1.832  65.404 -0.0859 -0.4093 -0.6400
  110OSM   H16F11410   1.957   1.816  65.503 -0.1929 -1.3401 -0.7258
  110OSM   H16G11411   1.822   1.766  65.380 -1.0247  1.1699 -1.8607
  110OSM   C17F11412   1.863   1.981  65.417  0.1116 -0.6609  0.8564
  110OSM   H17F11413   1.802   1.998  65.326  2.9637 -0.4384 -1.1546
  110OSM   H17G11414   1.959   2.034  65.401 -0.4114 -0.4451 -2.3704
  110OSM   C18F11415   1.788   2.020  65.547  0.7872 -0.0678  0.7011
  110OSM   H18F11416   1.849   2.008  65.639  3.0558 -1.6689 -0.8854
  110OSM   H18G11417   1.688   1.973  65.550 -0.5516  1.9491 -3.7450
  110OSM   H18H11418   1.762   2.127  65.539 -0.8193 -0.2414  2.8150
  111OSM      N11419   0.327   1.173  58.227 -0.9661 -0.6465  0.3555
  111OSM    C1511420   0.332   1.209  58.374  0.4617 -0.9625  0.1995
  111OSM   H15A11421   0.352   1.119  58.429  0.6560 -0.4547  0.9718
  111OSM   H15B11422   0.237   1.247  58.409  0.5119  1.1982 -1.7362
  111OSM   H15C11423   0.397   1.288  58.408 -3.7301  3.1187 -0.1243
  111OSM    C1411424   0.205   1.090  58.218  0.1367  0.0625  0.4502
  111OSM   H14A11425   0.225   0.985  58.232 -0.3987 -0.4344 -2.0476
  111OSM   H14B11426   0.178   1.089  58.114  1.9829 -0.0709 -0.0640
  111OSM   H14C11427   0.127   1.123  58.285 -0.2042  1.0193 -0.3907
  111OSM    C1311428   0.316   1.301  58.142  0.3623 -0.1833 -0.2202
  111OSM   H13A11429   0.400   1.368  58.149 -0.5204  0.7717  2.3920
  111OSM   H13B11430   0.232   1.361  58.176  1.2247  0.5802  0.6104
  111OSM   H13C11431   0.315   1.273  58.038  2.0282 -2.4327  0.2971
  111OSM    C1211432   0.455   1.107  58.187  0.2257 -0.5724  0.0623
  111OSM   H12A11433   0.527   1.174  58.232 -0.4022 -0.8718  1.5623
  111OSM   H12B11434   0.480   1.109  58.082  1.2094  1.2774  0.2852
  111OSM    C1111435   0.501   0.965  58.249  0.1065 -0.0293  0.3244
  111OSM   H11A11436   0.576   0.916  58.183  0.1872 -0.5185  0.7710
  111OSM   H11B11437   0.415   0.895  58.258 -0.9141  1.3602  2.0020
  111OSM      P11438   0.632   0.869  58.461 -0.0778  0.3474 -0.2312
  111OSM    O1311439   0.537   0.763  58.510 -0.5073 -0.1113  0.1744
  111OSM    O1411440   0.747   0.821  58.385 -0.1729  0.3319  0.2663
  111OSM    O1111441   0.677   0.946  58.593 -0.2162  0.5528  0.7473
  111OSM    O1211442   0.565   0.988  58.377 -0.5549  0.1307  0.2266
  111OSM    C1S11443   0.734   1.084  58.587 -0.1879 -0.0210 -0.4158
  111OSM    H1S11444   0.679   1.149  58.516  3.1263  1.8975 -1.4207
  111OSM    H1T11445   0.843   1.094  58.568 -0.4720  4.2152 -0.8359
  111OSM     NF11446   0.746   1.304  58.708  0.2524  1.0200  0.6196
  111OSM    HNF11447   0.838   1.339  58.725 -0.0968  0.3454  4.9341
  111OSM    C2S11448   0.717   1.157  58.722 -0.5534 -1.1894 -0.2758
  111OSM    H2S11449   0.616   1.145  58.766 -0.9161 -1.4775 -1.1589
  111OSM    C3S11450   0.799   1.076  58.829 -0.0070 -0.1548 -0.0392
  111OSM    H3S11451   0.895   1.044  58.783 -1.4215 -0.7532 -2.7394
  111OSM     O311452   0.751   0.945  58.850  0.4219  0.4866 -0.3438
  111OSM    HO311453   0.698   0.933  58.771 -1.2531 -0.7853  0.8873
  111OSM    C4S11454   0.821   1.159  58.955  0.1654 -0.0193 -0.4181
  111OSM    H4S11455   0.750   1.137  59.036 -0.1642 -1.6693 -1.1322
  111OSM    C5S11456   0.919   1.241  58.976  0.2326 -0.2717 -0.1801
  111OSM    H5S11457   0.995   1.253  58.897 -1.5298 -0.3685 -1.9535
  111OSM    C6S11458   0.926   1.335  59.093  0.2401 -0.4464 -0.3202
  111OSM    H6S11459   0.874   1.302  59.185 -2.8347  0.8545 -1.4742
  111OSM    H6T11460   0.886   1.437  59.075  0.9105 -0.0891  0.1412
  111OSM    C7S11461   1.071   1.369  59.125 -0.2589  0.4862 -0.0840
  111OSM    H7S11462   1.124   1.278  59.160  4.5282  3.1252  0.4720
  111OSM    H7T11463   1.057   1.427  59.218 -1.3932  2.2768 -1.3043
  111OSM    C8S11464   1.155   1.438  59.013 -0.8810 -0.6752 -0.3303
  111OSM    H8S11465   1.080   1.496  58.955 -0.1082 -0.2028 -0.8781
  111OSM    H8T11466   1.210   1.370  58.944  1.0016  0.6877 -0.2726
  111OSM    C9S11467   1.266   1.536  59.052 -0.3535 -0.3197 -0.0221
  111OSM    H9S11468   1.221   1.623  59.104  0.8926  1.3216 -1.5587
  111OSM    H9T11469   1.311   1.579  58.960  0.0962 -1.2382 -0.2385
  111OSM   C10S11470   1.387   1.480  59.118 -0.7991 -0.4443  0.3651
  111OSM   H10S11471   1.442   1.413  59.047  0.4600  0.9639 -0.0502
  111OSM   H10T11472   1.347   1.404  59.188 -0.4280 -2.7556 -1.7569
  111OSM   C11S11473   1.485   1.584  59.179 -0.6809  0.4440 -0.1300
  111OSM   H11S11474   1.437   1.636  59.264 -2.5685  0.4387 -1.1483
  111OSM   H11T11475   1.496   1.659  59.098  0.6472 -1.6015 -1.9976
  111OSM   C12S11476   1.617   1.519  59.222  0.0531 -0.3066  0.4134
  111OSM   H12S11477   1.653   1.455  59.139  1.0312  1.5025 -0.6274
  111OSM   H12T11478   1.589   1.444  59.299  3.0988 -1.9882  0.0350
  111OSM   C13S11479   1.722   1.617  59.288 -0.8376  0.9372 -0.2471
  111OSM   H13S11480   1.677   1.650  59.384 -3.3916 -1.7993 -0.3530
  111OSM   H13T11481   1.735   1.717  59.243  0.9659  0.7083 -0.3190
  111OSM   C14S11482   1.860   1.541  59.313 -0.7549  0.6574 -0.5806
  111OSM   H14S11483   1.837   1.446  59.366  1.8927  0.2459 -0.0329
  111OSM   H14T11484   1.922   1.605  59.379 -2.4596  1.0528  0.7368
  111OSM   C15S11485   1.930   1.510  59.176 -0.4400 -0.9998 -0.1735
  111OSM   H15S11486   1.966   1.605  59.130 -1.2461  0.5860  2.2867
  111OSM   H15T11487   1.861   1.486  59.091  0.1889  0.9088 -1.2827
  111OSM   C16S11488   2.028   1.401  59.194 -0.2129  0.6099  0.3530
  111OSM   H16S11489   1.968   1.308  59.204 -1.0544  0.9184 -1.5743
  111OSM   H16T11490   2.076   1.398  59.295  2.1932  2.2948 -0.6604
  111OSM   C17S11491   2.134   1.389  59.090 -1.0024 -0.5850 -0.3497
  111OSM   H17S11492   2.170   1.492  59.069 -0.4940 -0.6565  0.1330
  111OSM   H17T11493   2.089   1.348  58.997 -2.4243 -2.0188  0.8994
  111OSM   C18S11494   2.247   1.294  59.132 -0.3048 -0.7342 -0.0693
  111OSM   H18S11495   2.196   1.199  59.161 -2.0657 -0.2452 -1.3509
  111OSM   H18T11496   2.313   1.329  59.214 -0.3263  1.2842 -0.8717
  111OSM   H18U11497   2.304   1.257  59.045  1.6450 -0.6321  1.1198
  111OSM    C1F11498   0.659   1.376  58.643  0.6875 -0.7437  0.5129
  111OSM     OF11499   0.539   1.343  58.641 -0.2629 -0.3583  1.1389
  111OSM    C2F11500   0.705   1.493  58.558  0.0383 -0.0942 -0.1070
  111OSM    H2F11501   0.627   1.509  58.480  3.3060  0.9758 -3.4217
  111OSM    H2G11502   0.807   1.480  58.518  0.4573  1.9883  0.1600
  111OSM    C3F11503   0.713   1.626  58.629 -0.9146  0.7479  0.6102
  111OSM    H3F11504   0.621   1.651  58.687 -0.2858  2.4237  0.9510
  111OSM    H3G11505   0.740   1.713  58.566  1.6907  1.9237  3.0897
  111OSM    C4F11506   0.815   1.631  58.744  0.0664  0.2576  0.5221
  111OSM    H4F11507   0.912   1.598  58.701 -0.1113 -0.9942  1.0519
  111OSM    H4G11508   0.785   1.551  58.816  2.0364 -2.1990 -1.2072
  111OSM    C5F11509   0.818   1.776  58.808 -0.0723 -1.1140  0.1139
  111OSM    H5F11510   0.726   1.834  58.784  0.7693 -1.6478 -5.6016
  111OSM    H5G11511   0.897   1.833  58.756 -2.4255  1.0170 -1.3563
  111OSM    C6F11512   0.846   1.769  58.955  0.4047  0.5187 -0.9522
  111OSM    H6F11513   0.882   1.867  58.993  1.9294 -1.2777  2.7740
  111OSM    H6G11514   0.915   1.684  58.977 -0.9251 -0.3361  0.0564
  111OSM    C7F11515   0.704   1.758  59.027  0.3566 -0.5053  0.7281
  111OSM    H7F11516   0.641   1.690  58.966 -3.5799  0.9532  2.7914
  111OSM    H7G11517   0.654   1.857  59.025 -1.7949 -1.5475  0.0877
  111OSM    C8F11518   0.713   1.699  59.170 -0.2664 -0.2850  0.9765
  111OSM    H8F11519   0.754   1.597  59.152 -2.8649 -0.9895 -1.5658
  111OSM    H8G11520   0.612   1.684  59.212  0.2522  2.7682  3.7071
  111OSM    C9F11521   0.798   1.790  59.260 -0.9473  0.4847  0.1728
  111OSM    H9F11522   0.876   1.852  59.212 -0.3887 -0.8465 -0.7090
  111OSM   C10F11523   0.800   1.814  59.391 -0.5444 -0.0393 -0.9784
  111OSM   H10F11524   0.869   1.888  59.434 -1.5209  0.6885 -0.6271
  111OSM   C11F11525   0.702   1.760  59.494 -0.9959 -0.6507  0.6916
  111OSM   H11F11526   0.761   1.738  59.585  0.2197 -1.7044 -0.3186
  111OSM   H11G11527   0.653   1.669  59.452  1.2024 -0.9656 -1.3919
  111OSM   C12F11528   0.583   1.855  59.537  0.3486  0.2186  0.1572
  111OSM   H12F11529   0.503   1.792  59.583 -1.6611  2.8683  0.5165
  111OSM   H12G11530   0.521   1.892  59.453  1.6703  0.7423 -0.6166
  111OSM   C13F11531   0.629   1.979  59.615 -0.8026 -0.8807  0.0475
  111OSM   H13F11532   0.626   2.064  59.544 -0.1215 -0.1783  0.8378
  111OSM   H13G11533   0.735   1.989  59.648 -0.8910  1.1975 -0.1606
  111OSM   C14F11534   0.542   2.013  59.744  0.1713  0.1556  0.0677
  111OSM   H14F11535   0.537   1.919  59.804  1.7318 -1.5878 -2.3621
  111OSM   H14G11536   0.443   2.052  59.712  0.8788  2.2252  0.2469
  111OSM   C15F11537   0.623   2.104  59.837  0.8469  0.1200 -0.7260
  111OSM   H15F11538   0.642   2.203  59.790 -1.6497  2.0016  1.8722
  111OSM   H15G11539   0.719   2.057  59.865  3.2090  4.3771 -0.8662
  111OSM   C16F11540   0.529   2.118  59.960 -0.2037  0.5997  0.0947
  111OSM   H16F11541   0.587   2.139  60.053 -1.3215 -3.2372  1.8759
  111OSM   H16G11542   0.495   2.015  59.983  3.0886 -1.1763 -2.0329
  111OSM   C17F11543   0.420   2.218  59.943  0.4285 -0.2208  0.4213
  111OSM   H17F11544   0.332   2.188  60.004 -0.5267  1.7166  0.1044
  111OSM   H17G11545   0.377   2.199  59.842  1.1175 -1.1730  0.2975
  111OSM   C18F11546   0.435   2.364  59.969  0.0953 -0.1137  0.4717
  111OSM   H18F11547   0.459   2.374  60.077  0.6378  1.2284  0.2456
  111OSM   H18G11548   0.341   2.422  59.965 -0.3776 -0.9380 -2.1883
  111OSM   H18H11549   0.512   2.422  59.913 -0.6501  0.3236 -0.1229
  112OSM      N11550   1.298   1.869  63.496 -0.0779  0.7145  0.2808
  112OSM    C1511551   1.251   1.987  63.415 -0.0659 -1.1259  1.3660
  112OSM   H15A11552   1.331   2.014  63.347 -0.9061 -3.1024 -0.5369
  112OSM   H15B11553   1.216   2.068  63.475  0.1121  1.6738 -1.9999
  112OSM   H15C11554   1.183   1.939  63.346 -0.0021 -0.8046  1.0755
  112OSM    C1411555   1.413   1.910  63.585  0.1389 -0.1176  0.5619
  112OSM   H14A11556   1.494   1.956  63.530 -0.8705  1.4894  0.3476
  112OSM   H14B11557   1.445   1.824  63.642 -1.8435 -0.5572  1.0769
  112OSM   H14C11558   1.384   1.980  63.661 -1.3360 -0.5217  0.4022
  112OSM    C1311559   1.178   1.824  63.583  0.1897 -0.1877  0.8129
  112OSM   H13A11560   1.163   1.899  63.659  0.7424  1.2579 -0.4449
  112OSM   H13B11561   1.191   1.729  63.631 -3.7038 -1.8321 -0.9865
  112OSM   H13C11562   1.100   1.823  63.508  1.8300  1.6616 -1.0599
  112OSM    C1211563   1.345   1.755  63.406  0.9738  0.5068 -0.5066
  112OSM   H12A11564   1.369   1.674  63.473  3.9996  2.3457  0.8331
  112OSM   H12B11565   1.438   1.784  63.358  1.7837 -2.3727 -0.8676
  112OSM    C1111566   1.247   1.702  63.298  0.2097  0.3230  0.0728
  112OSM   H11A11567   1.305   1.636  63.231 -0.6422  0.6596 -1.0203
  112OSM   H11B11568   1.206   1.779  63.230 -0.2404 -0.9245 -1.1092
  112OSM      P11569   1.052   1.526  63.304  0.0906  0.4730 -0.0293
  112OSM    O1311570   1.107   1.402  63.365  0.5320  0.0693 -0.8759
  112OSM    O1411571   0.902   1.537  63.330  0.2673 -0.0828  0.2717
  112OSM    O1111572   1.091   1.527  63.148 -0.3016  0.1375  0.2657
  112OSM    O1211573   1.140   1.645  63.361 -0.0527 -0.2189  0.5010
  112OSM    C1S11574   1.047   1.421  63.064 -0.0893  0.3471 -0.2121
  112OSM    H1S11575   0.940   1.393  63.079  0.1702  0.0932  1.4213
  112OSM    H1T11576   1.109   1.329  63.069 -0.2146 -0.0502 -3.7770
  112OSM     NF11577   0.982   1.367  62.828  1.1887  0.1759  0.0094
  112OSM    HNF11578   1.026   1.280  62.806  1.8180 -0.2398  2.5864
  112OSM    C2S11579   1.065   1.454  62.910 -0.0098  0.4869 -0.9935
  112OSM    H2S11580   1.014   1.552  62.899 -1.8987 -0.3737 -0.1620
  112OSM    C3S11581   1.215   1.452  62.875 -0.5583  1.0356  0.0234
  112OSM    H3S11582   1.255   1.357  62.917 -0.2814  1.8877  1.7905
  112OSM     O311583   1.293   1.558  62.942 -0.7914  0.4318 -0.2304
  112OSM    HO311584   1.248   1.576  63.025  2.6175  3.7579  1.1789
  112OSM    C4S11585   1.233   1.464  62.722 -0.2321 -1.4216 -0.0005
  112OSM    H4S11586   1.231   1.565  62.678  1.9781 -2.4601 -2.7146
  112OSM    C5S11587   1.245   1.366  62.631  0.5744  0.2084  0.2864
  112OSM    H5S11588   1.227   1.265  62.671  0.7146 -0.3230 -0.9447
  112OSM    C6S11589   1.235   1.365  62.486 -0.1425 -0.2263  0.5973
  112OSM    H6S11590   1.297   1.287  62.436 -0.0979  0.2634 -0.1256
  112OSM    H6T11591   1.284   1.456  62.445  3.1524 -1.9576  0.4013
  112OSM    C7S11592   1.089   1.323  62.439  0.1748  0.7506  0.4060
  112OSM    H7S11593   1.018   1.399  62.477 -1.8054  0.5536 -2.6202
  112OSM    H7T11594   1.059   1.222  62.475 -0.0248  0.7808  0.3194
  112OSM    C8S11595   1.084   1.310  62.281  0.1303 -0.0629 -0.7109
  112OSM    H8S11596   1.006   1.232  62.268 -2.1423  1.4456  2.5693
  112OSM    H8T11597   1.174   1.263  62.235  0.0137  0.4761 -1.5161
  112OSM    C9S11598   1.041   1.439  62.218  0.6550 -0.9152 -0.8859
  112OSM    H9S11599   1.105   1.523  62.253  0.7502  0.2159 -3.5383
  112OSM    H9T11600   0.940   1.465  62.256  1.1337  0.5237 -0.5214
  112OSM   C10S11601   1.024   1.455  62.064 -0.6464  0.7619 -0.2612
  112OSM   H10S11602   0.993   1.559  62.041  0.1967  1.3639  1.1926
  112OSM   H10T11603   0.959   1.367  62.042  1.0903 -0.6901  0.1544
  112OSM   C11S11604   1.166   1.410  62.009  0.7587  0.2307  0.1638
  112OSM   H11S11605   1.143   1.350  61.919  2.0917 -0.5862  0.3588
  112OSM   H11T11606   1.230   1.347  62.074  0.4021 -1.7841 -1.3533
  112OSM   C12S11607   1.260   1.525  61.961  0.3361 -0.5065  0.4853
  112OSM   H12S11608   1.346   1.457  61.945  0.3867  0.0488 -1.8350
  112OSM   H12T11609   1.275   1.601  62.042  0.9793  0.2569 -0.3340
  112OSM   C13S11610   1.227   1.582  61.819 -0.7056 -0.3802  0.7748
  112OSM   H13S11611   1.284   1.677  61.808  0.7016 -0.9983  2.2012
  112OSM   H13T11612   1.120   1.612  61.824 -0.1386  1.8679  0.5158
  112OSM   C14S11613   1.258   1.501  61.707 -0.6049 -0.0386 -0.0111
  112OSM   H14S11614   1.220   1.397  61.717  3.2571 -1.3712  4.7131
  112OSM   H14T11615   1.366   1.485  61.690 -0.4972 -0.4184  0.9337
  112OSM   C15S11616   1.199   1.578  61.584 -0.8029 -0.4951 -0.2738
  112OSM   H15S11617   1.176   1.683  61.609 -1.5350 -0.4529 -1.0843
  112OSM   H15T11618   1.105   1.521  61.567 -0.6958 -1.1375  1.1055
  112OSM   C16S11619   1.307   1.579  61.478  0.3368 -0.7891  0.1369
  112OSM   H16S11620   1.334   1.471  61.474  0.8995 -0.6364 -0.3169
  112OSM   H16T11621   1.390   1.644  61.513  0.0854  2.1598 -4.0165
  112OSM   C17S11622   1.264   1.637  61.335 -0.1192  0.4315 -0.1071
  112OSM   H17S11623   1.348   1.628  61.263 -1.6523  2.3379 -2.2759
  112OSM   H17T11624   1.242   1.746  61.342 -1.4403  0.3671 -2.4746
  112OSM   C18S11625   1.140   1.563  61.287 -1.0281  0.1728  0.8856
  112OSM   H18S11626   1.123   1.606  61.186  1.6567 -0.9407 -0.1309
  112OSM   H18T11627   1.054   1.583  61.354 -2.5171 -3.7214  0.3688
  112OSM   H18U11628   1.138   1.452  61.279  2.9749  0.1014 -2.8146
  112OSM    C1F11629   0.851   1.370  62.809  0.1110  0.1767  0.5647
  112OSM     OF11630   0.776   1.432  62.881 -0.0432  0.8656  0.6014
  112OSM    C2F11631   0.793   1.282  62.705  0.7104 -0.5922 -0.2750
  112OSM    H2F11632   0.755   1.190  62.755  3.3108  0.4742  4.2705
  112OSM    H2G11633   0.879   1.248  62.644  2.2967 -0.4462  1.7599
  112OSM    C3F11634   0.697   1.367  62.618  0.2204 -0.2299  0.8232
  112OSM    H3F11635   0.761   1.438  62.561  2.0980  0.3121  3.3828
  112OSM    H3G11636   0.620   1.417  62.681  1.5680  3.0992  0.0773
  112OSM    C4F11637   0.630   1.277  62.508 -0.5307 -0.4097 -0.5076
  112OSM    H4F11638   0.565   1.343  62.446  0.4647 -0.0004 -1.1429
  112OSM    H4G11639   0.564   1.198  62.549 -1.3565  0.4036 -0.2344
  112OSM    C5F11640   0.734   1.227  62.411 -0.3590 -0.8314  0.5333
  112OSM    H5F11641   0.814   1.193  62.480 -0.5627  0.9722  1.7095
  112OSM    H5G11642   0.780   1.294  62.334 -0.5392 -1.2712  0.0371
  112OSM    C6F11643   0.688   1.097  62.333  0.3437 -0.3947 -0.1463
  112OSM    H6F11644   0.602   1.064  62.394 -0.2169  0.8240 -0.2380
  112OSM    H6G11645   0.763   1.016  62.322  2.4951  1.1687  2.0031
  112OSM    C7F11646   0.615   1.137  62.204  0.9126 -0.0218  0.8288
  112OSM    H7F11647   0.677   1.209  62.146  1.9989 -2.8865 -1.8315
  112OSM    H7G11648   0.519   1.191  62.221 -0.0157 -1.2519 -0.3632
  112OSM    C8F11649   0.607   1.010  62.113 -0.5905 -0.1149  0.2861
  112OSM    H8F11650   0.601   0.934  62.195 -0.3568  0.0102  0.4192
  112OSM    H8G11651   0.703   0.995  62.061  0.6113  0.0780  2.3563
  112OSM    C9F11652   0.481   1.007  62.033  0.1015 -0.5125  0.7160
  112OSM    H9F11653   0.398   0.992  62.104 -0.0113  0.3966  0.7828
  112OSM   C10F11654   0.470   1.037  61.905  0.5164  0.1333 -0.2285
  112OSM   H10F11655   0.375   1.026  61.852  0.5472  0.7168 -0.4094
  112OSM   C11F11656   0.578   1.078  61.810  0.3809 -0.2016 -0.2614
  112OSM   H11F11657   0.653   1.134  61.870 -0.3131  0.0971  0.3526
  112OSM   H11G11658   0.547   1.149  61.731  2.3098  1.6823  0.5856
  112OSM   C12F11659   0.660   0.963  61.749  0.0041  0.1358  0.6751
  112OSM   H12F11660   0.586   0.916  61.681  1.3209  0.5482 -1.0918
  112OSM   H12G11661   0.696   0.894  61.829  1.5165  1.6293  1.3239
  112OSM   C13F11662   0.788   0.998  61.659 -1.3480 -0.7532  0.5066
  112OSM   H13F11663   0.849   0.907  61.641 -0.0269 -0.4001  2.8723
  112OSM   H13G11664   0.842   1.073  61.721 -1.3548 -0.7178  0.4697
  112OSM   C14F11665   0.740   1.063  61.530 -0.5408 -0.3347  0.1664
  112OSM   H14F11666   0.672   1.149  61.550 -1.8075 -0.4707 -3.0393
  112OSM   H14G11667   0.668   0.997  61.477 -0.5585  1.2326 -1.9040
  112OSM   C15F11668   0.844   1.110  61.429  0.0006 -0.1507 -0.3674
  112OSM   H15F11669   0.898   1.020  61.393 -1.1429 -0.8020 -0.4878
  112OSM   H15G11670   0.913   1.185  61.473  1.0104 -1.1503 -0.2212
  112OSM   C16F11671   0.782   1.178  61.306  0.0116  0.8688 -0.1995
  112OSM   H16F11672   0.704   1.248  61.343 -0.7482  0.3457 -0.7540
  112OSM   H16G11673   0.739   1.095  61.244 -0.1138  2.3097 -2.1508
  112OSM   C17F11674   0.865   1.276  61.215 -0.8099 -1.0795  0.1897
  112OSM   H17F11675   0.911   1.365  61.263 -3.5074  0.4279  0.2224
  112OSM   H17G11676   0.795   1.310  61.135 -0.6039 -2.0720 -0.4321
  112OSM   C18F11677   0.983   1.185  61.152  0.3035  0.5556 -0.2219
  112OSM   H18F11678   1.046   1.235  61.074 -0.6039  2.3187  0.1076
  112OSM   H18G11679   0.927   1.096  61.118 -1.4858 -0.2552  4.1964
  112OSM   H18H11680   1.044   1.158  61.240 -0.6941 -1.1466 -0.0239
  113OSM      N11681   1.117   0.408  58.769  0.4187  0.2345  0.2926
  113OSM    C1511682   1.141   0.534  58.710  0.4821 -0.7153  0.4170
  113OSM   H15A11683   1.169   0.605  58.786 -1.3043  1.1913 -0.5874
  113OSM   H15B11684   1.051   0.572  58.664  1.6704  0.8552 -0.7366
  113OSM   H15C11685   1.220   0.519  58.637  0.0228 -2.3104  0.2210
  113OSM    C1411686   1.063   0.321  58.662 -0.2998  0.7040 -0.7524
  113OSM   H14A11687   1.134   0.293  58.585 -2.9340 -0.4787 -2.8970
  113OSM   H14B11688   0.970   0.338  58.609 -1.3674 -2.2424  0.0415
  113OSM   H14C11689   1.038   0.232  58.717 -0.6994  2.6585  2.5053
  113OSM    C1311690   1.244   0.357  58.822  0.4583 -0.6919 -0.4337
  113OSM   H13A11691   1.277   0.426  58.898 -1.4751  1.8487 -1.7271
  113OSM   H13B11692   1.328   0.371  58.755  0.0776  1.5646 -0.5422
  113OSM   H13C11693   1.237   0.256  58.858 -0.4760 -0.3032  0.5582
  113OSM    C1211694   1.016   0.425  58.876 -0.2249 -0.2020  0.0522
  113OSM   H12A11695   0.996   0.322  58.901  1.3239 -0.3563  0.7598
  113OSM   H12B11696   0.937   0.470  58.818 -1.6334  0.8853  2.6262
  113OSM    C1111697   1.048   0.502  59.005 -0.2606 -1.3501  0.2229
  113OSM   H11A11698   1.106   0.594  58.984  0.1129 -0.6792  3.6344
  113OSM   H11B11699   1.109   0.439  59.073  1.5851  4.1008  4.3959
  113OSM      P11700   0.818   0.451  59.124 -0.2864  0.6454 -0.0418
  113OSM    O1311701   0.753   0.511  59.247  0.2505  0.1368 -0.7597
  113OSM    O1411702   0.732   0.420  59.010  0.2617 -0.0035  0.5817
  113OSM    O1111703   0.889   0.317  59.160 -0.2027 -0.5289  0.3425
  113OSM    O1211704   0.935   0.544  59.080  0.2405  0.2554  0.3687
  113OSM    C1S11705   0.947   0.324  59.291 -0.9846 -0.0073 -0.0576
  113OSM    H1S11706   0.855   0.323  59.354 -2.4470 -0.8236 -2.0798
  113OSM    H1T11707   1.014   0.409  59.317 -1.9415  0.1990  1.9120
  113OSM     NF11708   1.090   0.195  59.469 -0.1186 -0.1458 -0.8491
  113OSM    HNF11709   1.189   0.201  59.485 -0.3063 -1.4962  1.2692
  113OSM    C2S11710   1.035   0.196  59.334 -0.0908  0.7892  0.7443
  113OSM    H2S11711   0.967   0.109  59.322  0.1165  0.8513 -1.2816
  113OSM    C3S11712   1.138   0.169  59.220 -0.6086 -0.4311 -0.5295
  113OSM    H3S11713   1.202   0.258  59.206 -0.1865 -0.8883 -1.6873
  113OSM     O311714   1.072   0.160  59.089  0.4952 -0.0506 -0.0911
  113OSM    HO311715   1.001   0.224  59.098  0.9025  0.1804  1.9021
  113OSM    C4S11716   1.223   0.041  59.240  0.1421 -1.5233  0.0562
  113OSM    H4S11717   1.310   0.046  59.308  0.0382  1.2401  0.1308
  113OSM    C5S11718   1.191  -0.087  59.203  0.0107  0.2322  0.7233
  113OSM    H5S11719   1.095  -0.090  59.150  1.1867  2.5242 -1.7193
  113OSM    C6S11720   1.256  -0.212  59.234  0.1502 -0.5338 -0.5692
  113OSM    H6S11721   1.348  -0.178  59.285  0.6401 -1.5906 -0.7224
  113OSM    H6T11722   1.294  -0.265  59.144  4.5363  0.8796  0.2287
  113OSM    C7S11723   1.158  -0.279  59.341  0.8234  0.2312  1.5073
  113OSM    H7S11724   1.075  -0.304  59.272  2.2837  0.1115 -0.2914
  113OSM    H7T11725   1.139  -0.194  59.409 -0.0875  1.2935 -0.0019
  113OSM    C8S11726   1.204  -0.401  59.407  0.5685 -0.0340  0.4151
  113OSM    H8S11727   1.202  -0.480  59.329  0.9880 -0.9951  1.3509
  113OSM    H8T11728   1.136  -0.436  59.487  0.3453  2.4616  1.4171
  113OSM    C9S11729   1.348  -0.415  59.462 -0.1795 -1.1456  0.1792
  113OSM    H9S11730   1.412  -0.393  59.374 -2.4746 -2.3802 -1.8778
  113OSM    H9T11731   1.360  -0.514  59.512 -2.6709 -1.1632  0.8785
  113OSM   C10S11732   1.390  -0.319  59.570  0.5072  0.1700 -0.0200
  113OSM   H10S11733   1.323  -0.343  59.656 -1.6111 -0.0294 -1.6334
  113OSM   H10T11734   1.362  -0.218  59.531  0.1854 -0.6485 -2.0012
  113OSM   C11S11735   1.542  -0.326  59.601 -0.2030 -1.1768  0.7789
  113OSM   H11S11736   1.586  -0.426  59.617  2.5589 -0.4307 -1.3220
  113OSM   H11T11737   1.560  -0.279  59.700 -0.8245  3.2700 -0.9633
  113OSM   C12S11738   1.637  -0.246  59.518 -0.7760  0.4763  0.1641
  113OSM   H12S11739   1.592  -0.145  59.529 -2.4386 -0.4014  2.2650
  113OSM   H12T11740   1.633  -0.291  59.416  3.1019  3.3053 -1.4920
  113OSM   C13S11741   1.785  -0.243  59.565  0.3572  0.4451  0.4069
  113OSM   H13S11742   1.830  -0.344  59.567  0.2994  0.4254  0.7532
  113OSM   H13T11743   1.782  -0.221  59.674 -1.2606 -2.3493  1.0276
  113OSM   C14S11744   1.881  -0.153  59.491 -0.2020 -0.0066  0.4809
  113OSM   H14S11745   1.987  -0.178  59.512 -0.8960 -1.8507  2.0633
  113OSM   H14T11746   1.858  -0.058  59.545  0.5389  1.4563 -1.6156
  113OSM   C15S11747   1.846  -0.135  59.340 -0.1638 -0.2425  0.0315
  113OSM   H15S11748   1.874  -0.031  59.313  0.1403  1.0983  4.6384
  113OSM   H15T11749   1.738  -0.146  59.313  0.4129 -1.7711 -1.8300
  113OSM   C16S11750   1.936  -0.223  59.255  0.6346 -0.0643 -0.6907
  113OSM   H16S11751   1.919  -0.331  59.278 -2.0612  0.0783 -1.6635
  113OSM   H16T11752   2.040  -0.194  59.282  1.0663 -0.6440 -1.6592
  113OSM   C17S11753   1.947  -0.189  59.110 -0.1601  1.3852  0.0617
  113OSM   H17S11754   1.924  -0.082  59.091 -1.3428  0.9779 -0.9556
  113OSM   H17T11755   1.862  -0.245  59.065  2.0637 -0.6872 -1.8216
  113OSM   C18S11756   2.077  -0.232  59.030 -0.7184  1.1971  0.0225
  113OSM   H18S11757   2.170  -0.182  59.065 -0.4356  0.8609 -0.2452
  113OSM   H18T11758   2.056  -0.229  58.921  1.5656 -0.1750 -0.5053
  113OSM   H18U11759   2.089  -0.339  59.056 -1.3143  1.0447 -0.3020
  113OSM    C1F11760   1.009   0.206  59.580 -0.5718  1.1949  0.1595
  113OSM     OF11761   0.884   0.212  59.566  0.1428  0.0361 -0.3573
  113OSM    C2F11762   1.082   0.218  59.713 -0.3217 -1.0320 -0.6045
  113OSM    H2F11763   1.157   0.300  59.712 -1.6254  0.2282  0.5493
  113OSM    H2G11764   1.134   0.121  59.728 -1.0487 -1.3640 -0.2097
  113OSM    C3F11765   0.990   0.250  59.827 -0.0331  0.8972  0.4212
  113OSM    H3F11766   0.903   0.182  59.828  1.4645 -1.2301 -2.0014
  113OSM    H3G11767   0.935   0.342  59.798 -3.6111 -0.5448  2.0851
  113OSM    C4F11768   1.055   0.264  59.962  0.8083 -0.7259  0.7771
  113OSM    H4F11769   1.022   0.352  60.020  1.7344 -0.1714  0.4861
  113OSM    H4G11770   1.166   0.259  59.962  0.8340 -3.6909  3.2886
  113OSM    C5F11771   1.029   0.139  60.040  0.0475 -0.3320 -1.1734
  113OSM    H5F11772   1.039   0.053  59.969 -2.1236  0.0471 -2.0075
  113OSM    H5G11773   0.928   0.133  60.085  1.4462  0.1167  2.3827
  113OSM    C6F11774   1.114   0.118  60.169  0.7040 -0.2403 -1.7308
  113OSM    H6F11775   1.215   0.122  60.124  2.2676  0.7307  1.5645
  113OSM    H6G11776   1.093   0.017  60.210  1.6723  0.8636  1.8539
  113OSM    C7F11777   1.103   0.218  60.280  0.0341  0.3091  0.3292
  113OSM    H7F11778   1.008   0.207  60.336  0.1656 -0.2019  0.4579
  113OSM    H7G11779   1.111   0.320  60.236  2.8068  1.0541  2.2521
  113OSM    C8F11780   1.214   0.197  60.383 -0.2753  0.3334  1.1440
  113OSM    H8F11781   1.219   0.283  60.452 -0.0022  0.1202  1.3936
  113OSM    H8G11782   1.318   0.200  60.343 -0.3831  1.2643  0.9198
  113OSM    C9F11783   1.202   0.080  60.481  0.1260  0.1834 -0.1529
  113OSM    H9F11784   1.111   0.019  60.473  1.4009 -1.6327 -1.7780
  113OSM   C10F11785   1.299   0.050  60.571  0.4224  0.1157  0.1649
  113OSM   H10F11786   1.290  -0.037  60.638  0.3656  1.1098  1.4986
  113OSM   C11F11787   1.420   0.123  60.614 -0.2451 -0.6358 -0.4843
  113OSM   H11F11788   1.437   0.109  60.722 -2.3655 -2.0339 -0.2675
  113OSM   H11G11789   1.408   0.231  60.591 -1.7877 -0.8805 -0.9634
  113OSM   C12F11790   1.546   0.065  60.542 -0.3094  0.3953 -1.1169
  113OSM   H12F11791   1.626   0.143  60.537 -0.0218  0.1390 -0.6086
  113OSM   H12G11792   1.529   0.046  60.434  0.4785  1.0411 -1.3641
  113OSM   C13F11793   1.592  -0.074  60.594  0.1262 -0.4868 -1.1574
  113OSM   H13F11794   1.506  -0.141  60.617  1.0289 -1.7231 -1.3233
  113OSM   H13G11795   1.628  -0.058  60.698 -3.6070 -2.3561  0.6215
  113OSM   C14F11796   1.691  -0.155  60.514 -0.3969 -1.1401 -0.5853
  113OSM   H14F11797   1.731  -0.243  60.568 -0.6198  0.3013  2.0656
  113OSM   H14G11798   1.769  -0.085  60.476 -1.6492  2.4474  2.7275
  113OSM   C15F11799   1.634  -0.192  60.371  0.3375 -0.3708 -0.4477
  113OSM   H15F11800   1.707  -0.260  60.322  0.0385  0.0565 -1.5072
  113OSM   H15G11801   1.628  -0.097  60.315  1.7776  1.8600  2.8755
  113OSM   C16F11802   1.502  -0.277  60.388 -0.6057 -0.4156  0.3019
  113OSM   H16F11803   1.413  -0.220  60.422  1.5113  2.7043  1.1058
  113OSM   H16G11804   1.529  -0.347  60.470  0.4489 -1.5445 -0.9819
  113OSM   C17F11805   1.470  -0.349  60.259  0.4862  0.0298  0.5967
  113OSM   H17F11806   1.555  -0.403  60.211  0.4183 -1.2684  1.8590
  113OSM   H17G11807   1.431  -0.279  60.183 -1.3243  0.1667  1.5994
  113OSM   C18F11808   1.359  -0.455  60.284 -0.2929  0.1134 -0.0731
  113OSM   H18F11809   1.399  -0.536  60.349  2.3763  0.5747 -0.9827
  113OSM   H18G11810   1.362  -0.507  60.186  0.1285  3.7111 -2.1462
  113OSM   H18H11811   1.257  -0.414  60.301 -0.7725 -0.3042 -1.7813
  114OSM      N11812   0.977   0.491  63.636 -0.1918 -0.2518 -0.0618
  114OSM    C1511813   1.068   0.370  63.624  0.0173  0.4931  0.6424
  114OSM   H15A11814   1.050   0.304  63.707 -1.9217  0.3085  0.1301
  114OSM   H15B11815   1.172   0.391  63.605  0.5274 -0.2341  2.4800
  114OSM   H15C11816   1.027   0.311  63.543 -0.2740 -0.8406  1.7249
  114OSM    C1411817   1.028   0.586  63.738  0.9735 -0.2318 -0.0384
  114OSM   H14A11818   1.023   0.554  63.841 -3.0571  3.4702  1.1700
  114OSM   H14B11819   0.960   0.668  63.752  0.2677 -0.0162 -3.7255
  114OSM   H14C11820   1.124   0.631  63.717  0.2062  1.0437 -0.9675
  114OSM    C1311821   0.978   0.556  63.501 -0.4834 -0.3487 -0.0541
  114OSM   H13A11822   0.924   0.508  63.422 -0.7999  2.4098 -1.6416
  114OSM   H13B11823   1.081   0.572  63.472  0.3040 -1.2828  2.0375
  114OSM   H13C11824   0.918   0.646  63.508  0.6915  0.4566  0.0758
  114OSM    C1211825   0.830   0.460  63.663 -0.3846  0.7805 -1.2528
  114OSM   H12A11826   0.788   0.390  63.592 -0.5381  0.6213 -1.0118
  114OSM   H12B11827   0.770   0.549  63.654 -1.6178  0.8215  4.0518
  114OSM    C1111828   0.791   0.400  63.803  1.6113 -1.0812 -0.4556
  114OSM   H11A11829   0.684   0.371  63.800  1.4608 -0.5392 -0.5070
  114OSM   H11B11830   0.785   0.483  63.877 -1.0167 -0.7307 -0.9981
  114OSM      P11831   0.831   0.155  63.848 -0.0679 -0.1298 -0.3023
  114OSM    O1311832   0.804   0.105  63.705 -0.5966  0.4287 -0.6437
  114OSM    O1411833   0.931   0.070  63.924 -0.0611 -0.1408  0.5625
  114OSM    O1111834   0.688   0.154  63.916 -0.0440  1.0023 -0.2174
  114OSM    O1211835   0.879   0.296  63.844  0.3802 -0.2798 -0.2135
  114OSM    C1S11836   0.612   0.034  63.945  0.4772  1.5394  0.3346
  114OSM    H1S11837   0.692  -0.044  63.950 -1.5917 -0.6791  0.7217
  114OSM    H1T11838   0.547   0.012  63.858  0.6351  1.4074  0.2495
  114OSM     NF11839   0.482  -0.101  64.107 -0.0532 -0.3174 -0.4764
  114OSM    HNF11840   0.393  -0.125  64.069 -0.7548 -4.0669  2.8289
  114OSM    C2S11841   0.524   0.027  64.077 -0.0527 -0.2325  1.1336
  114OSM    H2S11842   0.592   0.054  64.160  0.5360 -2.1353  1.3061
  114OSM    C3S11843   0.417   0.143  64.074 -0.6425 -0.7436 -0.3357
  114OSM    H3S11844   0.344   0.131  63.991 -0.3967  2.3594 -1.1245
  114OSM     O311845   0.463   0.278  64.044 -0.2744  0.1805 -0.6759
  114OSM    HO311846   0.549   0.279  64.002 -0.3023 -0.2327 -0.7447
  114OSM    C4S11847   0.324   0.130  64.192  0.0209  0.6301  0.0184
  114OSM    H4S11848   0.248   0.053  64.173  0.1214  0.2083  1.2377
  114OSM    C5S11849   0.343   0.198  64.303  0.8240  0.5583  0.1414
  114OSM    H5S11850   0.427   0.269  64.304  2.6499 -1.4472 -1.3258
  114OSM    C6S11851   0.268   0.180  64.428 -0.7079 -0.3176  0.6411
  114OSM    H6S11852   0.168   0.133  64.421 -2.1506  2.6485 -0.3421
  114OSM    H6T11853   0.247   0.283  64.463 -4.3696 -1.1733  1.3010
  114OSM    C7S11854   0.371   0.124  64.529  0.1573  0.3700 -1.0783
  114OSM    H7S11855   0.332   0.136  64.632  1.6637  0.3416 -0.4914
  114OSM    H7T11856   0.465   0.182  64.542 -0.0706  0.6853 -0.8063
  114OSM    C8S11857   0.401  -0.032  64.520  0.0340  0.4191 -0.5496
  114OSM    H8S11858   0.432  -0.054  64.416  0.2893 -1.7653 -0.0783
  114OSM    H8T11859   0.302  -0.079  64.540  0.1452 -1.1967 -3.3727
  114OSM    C9S11860   0.495  -0.080  64.633 -0.5786 -0.2048  0.0972
  114OSM    H9S11861   0.477  -0.189  64.643 -4.1601  0.2598  0.0424
  114OSM    H9T11862   0.475  -0.034  64.732  0.4681  0.5220 -0.0274
  114OSM   C10S11863   0.634  -0.049  64.575  0.6739 -0.8338 -0.3913
  114OSM   H10S11864   0.656   0.060  64.567  0.7412 -0.7529  0.7077
  114OSM   H10T11865   0.645  -0.078  64.468  0.7438 -2.0651 -0.0643
  114OSM   C11S11866   0.743  -0.121  64.653  0.7275 -0.5916  0.4047
  114OSM   H11S11867   0.739  -0.076  64.755 -0.8351 -0.7199  0.4309
  114OSM   H11T11868   0.843  -0.089  64.617  0.6728  3.1853  3.0902
  114OSM   C12S11869   0.730  -0.278  64.659  0.0311 -0.1815  0.5563
  114OSM   H12S11870   0.674  -0.327  64.576  0.5628  1.1065 -0.5998
  114OSM   H12T11871   0.666  -0.302  64.747 -0.8767 -2.0240 -0.5250
  114OSM   C13S11872   0.864  -0.349  64.677 -1.5228  1.5175  0.1873
  114OSM   H13S11873   0.854  -0.454  64.710 -3.5589  0.5324 -3.0954
  114OSM   H13T11874   0.935  -0.298  64.745 -1.1806 -0.0542  1.0373
  114OSM   C14S11875   0.945  -0.358  64.540 -0.1461  0.0059 -0.2609
  114OSM   H14S11876   0.909  -0.283  64.468 -1.1162  1.3157  1.5114
  114OSM   H14T11877   0.927  -0.455  64.489  0.7128 -2.1839  3.2315
  114OSM   C15S11878   1.091  -0.335  64.561 -1.5034 -0.5847  0.3157
  114OSM   H15S11879   1.125  -0.400  64.645 -1.8341  0.9110  1.6757
  114OSM   H15T11880   1.115  -0.231  64.591  1.6069 -0.7071 -1.3861
  114OSM   C16S11881   1.183  -0.344  64.439  0.4812  0.3162 -0.5311
  114OSM   H16S11882   1.132  -0.322  64.343 -1.8759 -3.9787 -0.5456
  114OSM   H16T11883   1.223  -0.445  64.417 -1.6480 -1.0797  1.4144
  114OSM   C17S11884   1.313  -0.265  64.450 -0.5613  0.2299 -0.1327
  114OSM   H17S11885   1.282  -0.158  64.450 -2.0669 -0.0863 -3.3531
  114OSM   H17T11886   1.367  -0.278  64.354 -0.7541  2.8191 -0.6818
  114OSM   C18S11887   1.395  -0.311  64.569  0.0467 -0.1639  0.3461
  114OSM   H18S11888   1.493  -0.258  64.571  0.2458 -0.4927 -0.3647
  114OSM   H18T11889   1.407  -0.422  64.564  0.0655 -0.1220 -0.8831
  114OSM   H18U11890   1.344  -0.305  64.667  0.0993  3.0866  0.2771
  114OSM    C1F11891   0.574  -0.191  64.145  0.5039  0.3138  0.1352
  114OSM     OF11892   0.696  -0.166  64.157 -0.1301 -1.0284  0.5862
  114OSM    C2F11893   0.523  -0.329  64.164  0.2919 -0.9868 -0.0246
  114OSM    H2F11894   0.438  -0.352  64.096 -0.4734  0.9631  0.2061
  114OSM    H2G11895   0.477  -0.337  64.265  0.0553  3.7264  0.4487
  114OSM    C3F11896   0.641  -0.438  64.156  0.5780 -0.1120 -0.1819
  114OSM    H3F11897   0.685  -0.425  64.257 -1.5691 -3.3646  1.3433
  114OSM    H3G11898   0.708  -0.423  64.069  0.6435 -2.7332 -0.6525
  114OSM    C4F11899   0.581  -0.580  64.176  0.1282  0.3051  0.0953
  114OSM    H4F11900   0.656  -0.658  64.200 -1.6482 -1.4911  0.0947
  114OSM    H4G11901   0.544  -0.614  64.077 -2.5460 -1.8722  1.6804
  114OSM    C5F11902   0.472  -0.596  64.287  1.3290 -0.0752 -0.7924
  114OSM    H5F11903   0.454  -0.705  64.302 -0.6979  0.2358 -0.7407
  114OSM    H5G11904   0.376  -0.546  64.263  2.2961  1.9624 -0.6410
  114OSM    C6F11905   0.534  -0.560  64.424 -0.4727  0.0621  0.0410
  114OSM    H6F11906   0.545  -0.449  64.426 -0.7702  0.2466 -3.0858
  114OSM    H6G11907   0.630  -0.615  64.437 -1.4561 -1.3659  1.6051
  114OSM    C7F11908   0.450  -0.606  64.544 -0.2415 -0.2779  0.2560
  114OSM    H7F11909   0.458  -0.716  64.556  0.7155 -0.5615 -2.4325
  114OSM    H7G11910   0.345  -0.577  64.523  0.3997  0.5043 -2.1735
  114OSM    C8F11911   0.505  -0.542  64.671  0.9509 -0.3790  0.6074
  114OSM    H8F11912   0.506  -0.432  64.660 -2.3845 -0.4275 -2.0375
  114OSM    H8G11913   0.609  -0.575  64.688  1.6168 -0.0661 -2.3508
  114OSM    C9F11914   0.412  -0.569  64.791 -0.3613 -0.3494 -0.4893
  114OSM    H9F11915   0.408  -0.677  64.809  1.4060 -0.1203  1.7320
  114OSM   C10F11916   0.322  -0.494  64.856 -0.4089 -0.8753 -0.0945
  114OSM   H10F11917   0.257  -0.539  64.932 -1.8716 -1.1054 -1.4326
  114OSM   C11F11918   0.284  -0.350  64.848  0.2122  0.6206 -0.2589
  114OSM   H11F11919   0.336  -0.310  64.759  1.3701 -2.9255 -1.3017
  114OSM   H11G11920   0.298  -0.307  64.950 -2.0197  0.8705  0.0017
  114OSM   C12F11921   0.129  -0.330  64.830 -0.0631 -0.1860  1.0223
  114OSM   H12F11922   0.073  -0.408  64.887  1.8196 -3.2134 -0.9947
  114OSM   H12G11923   0.093  -0.327  64.725  1.6905  0.5058  0.4104
  114OSM   C13F11924   0.108  -0.186  64.892 -0.5892 -0.3582  0.9339
  114OSM   H13F11925   0.184  -0.118  64.846 -2.1319 -0.1542 -1.4976
  114OSM   H13G11926   0.130  -0.203  64.999 -1.7806  0.7583  1.3716
  114OSM   C14F11927  -0.028  -0.118  64.885  1.1520  0.2750 -0.8537
  114OSM   H14F11928  -0.032  -0.051  64.973  3.3594 -1.8848  1.0240
  114OSM   H14G11929  -0.102  -0.200  64.898 -0.1300  1.1831 -2.1192
  114OSM   C15F11930  -0.058  -0.027  64.755  0.4064  1.1483 -0.7454
  114OSM   H15F11931   0.013   0.058  64.745  0.5495  1.1034 -0.1398
  114OSM   H15G11932  -0.164   0.006  64.768 -0.2944 -0.9732 -0.6882
  114OSM   C16F11933  -0.049  -0.115  64.630 -0.0928 -0.0926 -0.4729
  114OSM   H16F11934  -0.137  -0.183  64.635 -0.4563  0.1942 -2.2807
  114OSM   H16G11935   0.042  -0.176  64.610 -0.8100 -1.4232  0.2039
  114OSM   C17F11936  -0.091  -0.026  64.515  0.7108 -1.3384  0.6774
  114OSM   H17F11937  -0.025   0.059  64.490  1.8975 -2.1924  0.8514
  114OSM   H17G11938  -0.186   0.023  64.546  0.9117 -1.6273  1.8207
  114OSM   C18F11939  -0.124  -0.107  64.392  0.4520  0.0375 -0.0672
  114OSM   H18F11940  -0.129  -0.040  64.304 -1.5410  1.4080  1.0031
  114OSM   H18G11941  -0.222  -0.156  64.368  0.6200  0.1837 -1.0957
  114OSM   H18H11942  -0.041  -0.180  64.384 -0.2788 -0.6503 -1.9180
  115OSM      N11943   2.086   1.098  48.339 -0.4297  1.0333  0.4986
  115OSM    C1511944   2.214   1.164  48.394  0.0938  1.2993  0.8303
  115OSM   H15A11945   2.304   1.147  48.337  0.0849  4.4045 -0.2936
  115OSM   H15B11946   2.234   1.120  48.491 -1.9699 -2.0178 -0.0612
  115OSM   H15C11947   2.191   1.267  48.413 -2.2794  1.6506 -2.9907
  115OSM    C1411948   2.098   0.952  48.309 -0.0120  0.4062  0.1082
  115OSM   H14A11949   2.001   0.922  48.273  0.6708 -0.3012 -1.2254
  115OSM   H14B11950   2.144   0.900  48.392  1.4200 -0.3618 -1.1041
  115OSM   H14C11951   2.163   0.936  48.224  0.3347  0.4526  0.3593
  115OSM    C1311952   1.978   1.116  48.446  0.3183  0.3850  0.1154
  115OSM   H13A11953   1.888   1.075  48.401  0.4324 -0.2775  0.4803
  115OSM   H13B11954   1.953   1.216  48.479  0.1079  0.2598  0.3414
  115OSM   H13C11955   2.018   1.056  48.526  2.3787  0.6185 -0.6750
  115OSM    C1211956   2.044   1.166  48.213  0.4481 -0.1477  0.1468
  115OSM   H12A11957   1.993   1.259  48.228 -0.3427 -0.4415 -0.6697
  115OSM   H12B11958   1.982   1.089  48.170  1.7091 -1.8122  1.1716
  115OSM    C1111959   2.141   1.198  48.102 -0.6784  0.0488 -0.3640
  115OSM   H11A11960   2.213   1.275  48.134  1.3243 -1.3113 -1.4090
  115OSM   H11B11961   2.070   1.235  48.025 -0.9212  2.5291  0.9504
  115OSM      P11962   2.299   1.112  47.919  0.3021  0.3174  0.2552
  115OSM    O1311963   2.331   0.986  47.850  1.0389  0.4708  0.1452
  115OSM    O1411964   2.224   1.210  47.841  0.8087  0.0725  0.2114
  115OSM    O1111965   2.433   1.173  47.986  0.2305 -0.4353  0.2996
  115OSM    O1211966   2.213   1.079  48.052 -0.1184 -0.1322 -0.1956
  115OSM    C1S11967   2.547   1.097  48.024  0.0018 -0.3491 -1.1605
  115OSM    H1S11968   2.534   0.986  48.022  3.1547 -0.8172 -0.7706
  115OSM    H1T11969   2.571   1.125  48.129 -1.2828 -0.1656 -0.9024
  115OSM     NF11970   2.795   1.065  47.993 -0.8229 -0.3883 -0.5049
  115OSM    HNF11971   2.854   1.131  48.038 -0.0667 -1.0289 -0.5425
  115OSM    C2S11972   2.678   1.120  47.934 -0.3246  0.1974 -0.5026
  115OSM    H2S11973   2.668   1.062  47.839 -0.3761 -2.5675  1.0707
  115OSM    C3S11974   2.689   1.274  47.900 -0.3933  0.1525  0.1137
  115OSM    H3S11975   2.694   1.330  47.996 -2.0974  1.8314 -0.7059
  115OSM     O311976   2.575   1.325  47.833 -0.4349  0.4247 -0.1982
  115OSM    HO311977   2.505   1.303  47.894 -1.2041  1.6345 -0.6023
  115OSM    C4S11978   2.817   1.316  47.821 -0.3004  1.2809  0.1849
  115OSM    H4S11979   2.815   1.255  47.730 -1.1468  0.8331  0.4925
  115OSM    C5S11980   2.918   1.400  47.834  0.8828  0.2861  0.2763
  115OSM    H5S11981   2.910   1.455  47.929 -1.3469 -0.9111  0.8468
  115OSM    C6S11982   3.030   1.410  47.729 -0.4125  0.1486 -0.0033
  115OSM    H6S11983   3.129   1.372  47.761 -0.3236 -2.2291 -2.7059
  115OSM    H6T11984   3.047   1.516  47.702  1.2675 -0.1280 -0.1218
  115OSM    C7S11985   3.004   1.340  47.588  0.3286  0.0077 -1.0319
  115OSM    H7S11986   2.895   1.335  47.565  0.0453 -2.7354  0.5069
  115OSM    H7T11987   3.035   1.234  47.604 -0.8127 -0.1474  0.3804
  115OSM    C8S11988   3.099   1.402  47.489  0.8069 -0.6048 -0.0047
  115OSM    H8S11989   3.175   1.460  47.546  0.2870 -1.1544  1.2801
  115OSM    H8T11990   3.039   1.476  47.432 -0.5770 -0.8145  1.1429
  115OSM    C9S11991   3.176   1.313  47.400 -0.4934 -0.5932 -0.1376
  115OSM    H9S11992   3.227   1.233  47.459  2.0069 -0.3377 -1.8100
  115OSM    H9T11993   3.255   1.364  47.342 -1.7129 -0.4929 -1.7966
  115OSM   C10S11994   3.089   1.245  47.293  0.4240  0.3950  0.4879
  115OSM   H10S11995   3.077   1.320  47.212  0.6230 -1.4436 -1.3221
  115OSM   H10T11996   2.986   1.221  47.327  0.6818 -3.3225 -0.8369
  115OSM   C11S11997   3.156   1.119  47.233 -0.5261 -0.1037  0.9004
  115OSM   H11S11998   3.133   1.040  47.308 -2.0172 -0.1002  0.4836
  115OSM   H11T11999   3.266   1.130  47.224 -0.6151 -0.0163 -0.2189
  115OSM   C12S12000   3.089   1.074  47.101 -0.0133 -0.5830 -0.6727
  115OSM   H12S12001   3.136   0.985  47.055  1.5581  0.5109 -1.2784
  115OSM   H12T12002   3.101   1.155  47.025  1.6203 -0.3288 -0.1717
  115OSM   C13S12003   2.938   1.034  47.118 -0.3390  0.2213  0.1363
  115OSM   H13S12004   2.876   1.123  47.138 -1.3893 -0.2548 -0.9010
  115OSM   H13T12005   2.928   0.962  47.202 -0.4773 -0.4666 -0.4593
  115OSM   C14S12006   2.877   0.970  46.987 -0.0468 -0.4427 -0.6341
  115OSM   H14S12007   2.929   0.876  46.955 -1.3099 -2.3113  2.4086
  115OSM   H14T12008   2.868   1.037  46.899  0.3353 -0.8625 -0.9980
  115OSM   C15S12009   2.728   0.926  47.003  0.4462 -0.6409 -0.1205
  115OSM   H15S12010   2.670   1.007  47.052  1.0025 -0.6474  0.5596
  115OSM   H15T12011   2.750   0.842  47.073  0.9819  1.8093  2.8342
  115OSM   C16S12012   2.646   0.892  46.877 -0.1857  0.7282  0.2221
  115OSM   H16S12013   2.692   0.805  46.826  3.5170  0.8305  2.9925
  115OSM   H16T12014   2.634   0.981  46.811 -0.8690  0.3644 -0.1585
  115OSM   C17S12015   2.506   0.838  46.907  0.9627 -0.0945 -0.3301
  115OSM   H17S12016   2.456   0.928  46.948 -1.5975 -1.7862  0.5061
  115OSM   H17T12017   2.518   0.761  46.986  0.2829 -0.6051 -0.7178
  115OSM   C18S12018   2.414   0.770  46.805 -0.4437 -0.9306  0.1417
  115OSM   H18S12019   2.383   0.837  46.721 -0.0553 -3.2062 -1.9559
  115OSM   H18T12020   2.322   0.739  46.859 -0.7214 -2.5835 -1.1708
  115OSM   H18U12021   2.455   0.678  46.757 -1.3780 -0.9242 -0.7072
  115OSM    C1F12022   2.817   0.933  48.007 -1.0809  1.0829  0.9263
  115OSM     OF12023   2.750   0.862  47.944  1.1781  0.1500 -0.0434
  115OSM    C2F12024   2.925   0.897  48.109  0.5114 -0.4479  0.9396
  115OSM    H2F12025   2.907   0.950  48.204 -0.2369  3.2651 -1.1021
  115OSM    H2G12026   3.015   0.949  48.071  0.6081  0.4177  2.3180
  115OSM    C3F12027   2.939   0.745  48.130  0.1981  0.3453 -0.3696
  115OSM    H3F12028   2.965   0.684  48.040 -1.6948  0.3772 -0.9728
  115OSM    H3G12029   2.843   0.722  48.181  0.7242  1.8108  1.3663
  115OSM    C4F12030   3.039   0.716  48.244  0.4936  0.2464 -0.1207
  115OSM    H4F12031   3.001   0.769  48.333 -0.4399  0.5579 -0.6879
  115OSM    H4G12032   3.131   0.774  48.223 -0.6840  1.8265 -1.0995
  115OSM    C5F12033   3.056   0.564  48.265 -0.5981 -0.1487 -0.5992
  115OSM    H5F12034   3.075   0.510  48.170  2.9181 -1.4157  0.6429
  115OSM    H5G12035   2.965   0.520  48.312  0.0892  1.0139  1.9958
  115OSM    C6F12036   3.181   0.530  48.348  0.1789 -0.1284 -0.3741
  115OSM    H6F12037   3.170   0.423  48.377  0.4546  0.1783  0.8945
  115OSM    H6G12038   3.179   0.580  48.447 -1.8586  1.1319 -0.9857
  115OSM    C7F12039   3.311   0.560  48.266 -0.8200 -0.9423  0.0450
  115OSM    H7F12040   3.325   0.670  48.264  0.5751 -1.1111 -0.5793
  115OSM    H7G12041   3.311   0.537  48.157 -3.3297 -2.1053  0.2287
  115OSM    C8F12042   3.438   0.495  48.324  0.5623  0.0232 -0.3686
  115OSM    H8F12043   3.489   0.459  48.232  0.9975 -0.3259  0.0056
  115OSM    H8G12044   3.417   0.400  48.376 -0.1734  0.5752  0.3683
  115OSM    C9F12045   3.519   0.594  48.406 -0.4360 -0.2691 -0.2254
  115OSM    H9F12046   3.454   0.656  48.470  0.2581  0.3555 -0.1156
  115OSM   C10F12047   3.646   0.637  48.383 -0.5412  0.2103  0.2591
  115OSM   H10F12048   3.668   0.734  48.431 -4.6143  2.0789 -1.2037
  115OSM   C11F12049   3.737   0.591  48.275  0.1138  0.2326 -0.2848
  115OSM   H11F12050   3.702   0.487  48.254 -1.1440 -0.2732  3.5149
  115OSM   H11G12051   3.833   0.567  48.325  0.2867 -0.8233 -1.0690
  115OSM   C12F12052   3.741   0.690  48.160  0.7993  0.8049  0.3423
  115OSM   H12F12053   3.792   0.786  48.183  0.9265  1.2014 -1.4896
  115OSM   H12G12054   3.638   0.720  48.130  0.5697 -0.6297 -0.3915
  115OSM   C13F12055   3.808   0.639  48.033 -0.0991 -0.3292 -0.0754
  115OSM   H13F12056   3.808   0.720  47.957  0.3470  1.9851  2.2118
  115OSM   H13G12057   3.751   0.554  47.991 -1.4522  0.9461 -0.9114
  115OSM   C14F12058   3.944   0.585  48.055 -0.3248 -0.5701 -0.4121
  115OSM   H14F12059   3.941   0.506  48.133  1.4765  2.6588  3.2731
  115OSM   H14G12060   4.013   0.664  48.092  0.1616 -0.4921 -1.4347
  115OSM   C15F12061   4.001   0.543  47.920  0.0261 -0.7465  0.0990
  115OSM   H15F12062   4.013   0.625  47.846  0.5896 -0.8062  0.1188
  115OSM   H15G12063   3.930   0.470  47.876 -1.1138 -0.1999  0.9816
  115OSM   C16F12064   4.132   0.471  47.933  0.0516 -0.6563 -0.4205
  115OSM   H16F12065   4.122   0.389  48.007 -3.8081 -1.4989 -1.6184
  115OSM   H16G12066   4.206   0.539  47.980  0.3726 -0.3960 -1.2776
  115OSM   C17F12067   4.191   0.408  47.804  0.1471  0.1018 -0.0600
  115OSM   H17F12068   4.284   0.353  47.831  0.7994  0.8807 -0.6593
  115OSM   H17G12069   4.229   0.494  47.744  1.1984 -0.5093 -0.2937
  115OSM   C18F12070   4.098   0.333  47.718 -0.2215 -0.3057  0.3272
  115OSM   H18F12071   4.037   0.262  47.777 -1.5407  0.8524  0.4047
  115OSM   H18G12072   4.142   0.276  47.633 -0.8774 -1.5985  0.8445
  115OSM   H18H12073   4.024   0.400  47.669  0.6722  0.9227  0.5948
  116OSM      N12074   2.448   0.494  47.625 -0.3602 -0.6061 -0.2224
  116OSM    C1512075   2.546   0.548  47.521 -0.2179 -0.2866  0.7377
  116OSM   H15A12076   2.605   0.463  47.490  3.0322  1.1724  2.3527
  116OSM   H15B12077   2.614   0.617  47.570  0.3905  2.6833 -3.7105
  116OSM   H15C12078   2.507   0.604  47.438  2.4322  0.2395 -0.2672
  116OSM    C1412079   2.530   0.422  47.729 -0.1770 -0.5032 -0.3014
  116OSM   H14A12080   2.607   0.481  47.777  1.0579  0.3512 -3.1711
  116OSM   H14B12081   2.591   0.347  47.680  0.6817 -1.1932  1.7117
  116OSM   H14C12082   2.471   0.392  47.814  0.1443 -1.3486 -0.3593
  116OSM    C1312083   2.378   0.611  47.688 -0.2722 -0.1228 -0.6694
  116OSM   H13A12084   2.456   0.686  47.692 -0.8629  0.4830  2.1665
  116OSM   H13B12085   2.351   0.584  47.789 -0.0722 -0.7780 -0.7886
  116OSM   H13C12086   2.290   0.647  47.638  1.3527  1.0666 -2.8380
  116OSM    C1212087   2.341   0.396  47.578 -1.0554  0.2500  0.3879
  116OSM   H12A12088   2.265   0.405  47.653  1.2341  0.1169  2.8737
  116OSM   H12B12089   2.381   0.295  47.585  1.3392  1.1320  0.2743
  116OSM    C1112090   2.281   0.410  47.442 -0.4284  0.3985  0.1451
  116OSM   H11A12091   2.221   0.321  47.413  1.9255 -1.2259 -0.0081
  116OSM   H11B12092   2.364   0.407  47.368  0.7925 -3.5049  1.4027
  116OSM      P12093   2.047   0.519  47.436 -0.6467  0.6533 -0.0226
  116OSM    O1312094   1.995   0.464  47.564  0.1191 -0.3562  0.0174
  116OSM    O1412095   2.001   0.653  47.401  0.9802  0.2791  0.2842
  116OSM    O1112096   2.022   0.422  47.321 -0.4236  0.2400  0.4224
  116OSM    O1212097   2.206   0.530  47.440  0.2286  0.3850  0.6065
  116OSM    C1S12098   1.930   0.459  47.216  0.3994  0.0427  0.0232
  116OSM    H1S12099   1.848   0.529  47.241 -0.9164 -0.9638 -1.3418
  116OSM    H1T12100   1.868   0.369  47.199  1.2377 -0.7644  1.0530
  116OSM     NF12101   1.877   0.530  46.988  0.1273 -0.0670 -0.0182
  116OSM    HNF12102   1.854   0.458  46.924  0.6982 -0.5245  0.2746
  116OSM    C2S12103   1.989   0.502  47.082 -0.6498  0.9600  0.8225
  116OSM    H2S12104   2.031   0.602  47.102 -1.5663  1.3500  0.8619
  116OSM    C3S12105   2.101   0.404  47.028 -0.1727  0.1123  0.1219
  116OSM    H3S12106   2.065   0.299  47.022 -0.9800  0.3008  1.3593
  116OSM     O312107   2.214   0.393  47.127  0.8448  0.1187  0.0629
  116OSM    HO312108   2.170   0.425  47.206 -2.0322 -1.4648 -0.7231
  116OSM    C4S12109   2.145   0.447  46.890 -0.1681  0.2470  0.9611
  116OSM    H4S12110   2.170   0.554  46.880 -3.1565  0.8458 -1.7384
  116OSM    C5S12111   2.149   0.372  46.780  0.0159 -0.2215  0.1779
  116OSM    H5S12112   2.136   0.263  46.789 -0.8756 -0.2285 -0.9717
  116OSM    C6S12113   2.171   0.426  46.640  0.2449 -0.0667  1.4450
  116OSM    H6S12114   2.275   0.418  46.603  0.8994  1.5090  2.7812
  116OSM    H6T12115   2.152   0.536  46.642  3.2148  0.6182 -1.2344
  116OSM    C7S12116   2.059   0.373  46.546 -0.1918  0.4552 -0.8813
  116OSM    H7S12117   1.957   0.405  46.573 -0.2508 -1.5054  1.5775
  116OSM    H7T12118   2.062   0.262  46.555 -1.9672  0.5116  1.1852
  116OSM    C8S12119   2.073   0.411  46.400 -0.3056 -1.1702 -0.3565
  116OSM    H8S12120   2.169   0.384  46.350 -0.4557 -0.8031 -0.8604
  116OSM    H8T12121   2.074   0.522  46.401  1.0176 -1.1729  0.5436
  116OSM    C9S12122   1.956   0.373  46.302 -0.4709 -0.5833  0.5027
  116OSM    H9S12123   1.857   0.410  46.336 -0.1443 -1.2686  2.3021
  116OSM    H9T12124   1.942   0.263  46.309  0.8542 -0.9672 -1.6748
  116OSM   C10S12125   1.991   0.409  46.155  0.5354  0.3152 -0.3287
  116OSM   H10S12126   2.097   0.441  46.152  0.9667 -0.9224  0.6816
  116OSM   H10T12127   1.930   0.493  46.115  1.6914  0.8917 -0.9252
  116OSM   C11S12128   1.972   0.282  46.063 -0.6616 -0.6328  0.1079
  116OSM   H11S12129   1.872   0.235  46.055 -1.5008  1.2011 -0.8296
  116OSM   H11T12130   2.046   0.206  46.095 -0.2481 -0.2812  0.0021
  116OSM   C12S12131   2.016   0.325  45.923 -0.3773  0.1108  0.1046
  116OSM   H12S12132   2.111   0.380  45.907 -1.1126  1.5460  0.5311
  116OSM   H12T12133   1.942   0.396  45.882  1.5716  1.6313 -0.9222
  116OSM   C13S12134   2.034   0.204  45.830 -0.1066 -0.3798  0.1998
  116OSM   H13S12135   1.942   0.143  45.825  0.2508 -0.9338  0.2834
  116OSM   H13T12136   2.111   0.139  45.877  0.3198  1.5917  2.4510
  116OSM   C14S12137   2.057   0.255  45.688  0.3635  0.1765 -0.0968
  116OSM   H14S12138   2.133   0.336  45.690  2.1212 -1.3057 -1.9808
  116OSM   H14T12139   1.965   0.299  45.643  0.5149  0.7085  0.1055
  116OSM   C15S12140   2.112   0.142  45.597 -0.5800 -0.0184  0.9605
  116OSM   H15S12141   2.037   0.061  45.588 -0.0593 -0.2909 -1.5047
  116OSM   H15T12142   2.207   0.097  45.633 -1.7624 -2.6059  1.0630
  116OSM   C16S12143   2.141   0.206  45.462  0.3080 -0.3013  1.2089
  116OSM   H16S12144   2.185   0.129  45.395  2.0503  0.2113  1.6918
  116OSM   H16T12145   2.226   0.278  45.468 -0.2289  0.2547  2.7160
  116OSM   C17S12146   2.028   0.274  45.392 -0.4290 -0.4231 -0.1056
  116OSM   H17S12147   2.002   0.368  45.446 -2.5361 -1.8887  1.5739
  116OSM   H17T12148   1.939   0.207  45.393  0.2769 -1.3776 -0.1333
  116OSM   C18S12149   2.067   0.320  45.250  0.0539  0.4739 -0.5088
  116OSM   H18S12150   1.991   0.379  45.194 -1.7781  0.1586  1.4915
  116OSM   H18T12151   2.094   0.239  45.180 -2.1517  0.1569 -1.0876
  116OSM   H18U12152   2.157   0.382  45.267 -2.0487  3.0916  2.0622
  116OSM    C1F12153   1.796   0.635  47.001  0.1587  0.9874 -0.0453
  116OSM     OF12154   1.797   0.712  47.098  0.1437 -0.0800  0.1956
  116OSM    C2F12155   1.709   0.656  46.886 -0.3907  0.0014  0.9946
  116OSM    H2F12156   1.642   0.567  46.878 -0.6791  0.2539  0.5266
  116OSM    H2G12157   1.776   0.637  46.800 -1.8585  0.5370 -0.3079
  116OSM    C3F12158   1.624   0.783  46.883 -0.6345 -0.3342 -0.4564
  116OSM    H3F12159   1.677   0.865  46.936  3.0681 -0.5354 -3.3617
  116OSM    H3G12160   1.532   0.773  46.944 -0.7881 -0.3287 -0.6886
  116OSM    C4F12161   1.593   0.845  46.746 -0.0645 -0.1179  0.5838
  116OSM    H4F12162   1.692   0.883  46.714  0.2422 -1.4967 -0.1781
  116OSM    H4G12163   1.526   0.931  46.769  1.7793  1.2032  1.2086
  116OSM    C5F12164   1.540   0.748  46.646  0.3984 -1.0628  0.0991
  116OSM    H5F12165   1.460   0.686  46.692 -2.0320  2.4199  0.9459
  116OSM    H5G12166   1.614   0.666  46.628  0.9489 -0.6725  0.5624
  116OSM    C6F12167   1.472   0.810  46.517 -0.6136 -0.4176  0.7301
  116OSM    H6F12168   1.548   0.837  46.440 -2.0128 -1.8333 -1.2452
  116OSM    H6G12169   1.405   0.893  46.549  1.5218  3.2237 -3.1377
  116OSM    C7F12170   1.389   0.708  46.435  0.0414  0.0032  0.9503
  116OSM    H7F12171   1.323   0.647  46.501  0.1967 -1.9133 -0.5820
  116OSM    H7G12172   1.448   0.625  46.391 -2.0772  1.0340 -4.5858
  116OSM    C8F12173   1.310   0.793  46.328  0.5787  0.1379  0.7999
  116OSM    H8F12174   1.372   0.872  46.282  0.2306  0.6291  1.1647
  116OSM    H8G12175   1.227   0.858  46.365  0.1014  1.5419 -2.4136
  116OSM    C9F12176   1.237   0.707  46.225  0.6346  0.2226 -0.5294
  116OSM    H9F12177   1.249   0.598  46.235 -0.9577 -0.4347 -4.2052
  116OSM   C10F12178   1.156   0.756  46.133 -0.0699  0.0636 -0.2564
  116OSM   H10F12179   1.108   0.693  46.055 -0.0282  0.6092 -0.7301
  116OSM   C11F12180   1.128   0.898  46.123  0.0935 -0.3931  0.3555
  116OSM   H11F12181   1.170   0.960  46.206 -3.8880 -1.0338  3.1366
  116OSM   H11G12182   1.018   0.912  46.125  0.2550  0.9829  0.8543
  116OSM   C12F12183   1.197   0.969  45.999  0.3539 -0.6444  0.0100
  116OSM   H12F12184   1.305   0.943  45.990  0.6296  0.6160 -0.6567
  116OSM   H12G12185   1.195   1.079  46.014  2.7722 -0.1983 -2.1550
  116OSM   C13F12186   1.122   0.935  45.871  0.5824 -0.9910 -0.7472
  116OSM   H13F12187   1.013   0.948  45.885  0.3177 -3.9458  0.6344
  116OSM   H13G12188   1.135   0.827  45.847  1.5238 -0.8141 -1.0768
  116OSM   C14F12189   1.167   1.029  45.760  0.1674 -0.0344 -0.2041
  116OSM   H14F12190   1.274   1.008  45.742  0.0475 -1.1762  0.3389
  116OSM   H14G12191   1.150   1.134  45.793 -1.7728 -0.8125  1.5409
  116OSM   C15F12192   1.094   1.015  45.625  0.4041 -0.0439  0.0728
  116OSM   H15F12193   0.986   1.029  45.647  0.7433  1.4986  0.9005
  116OSM   H15G12194   1.116   0.910  45.594 -0.3969 -0.7658  1.7965
  116OSM   C16F12195   1.143   1.119  45.525  0.8188  0.6534  0.3170
  116OSM   H16F12196   1.108   1.211  45.576  0.9613  0.5883  0.5361
  116OSM   H16G12197   1.091   1.104  45.428 -0.4190 -1.6597  1.2839
  116OSM   C17F12198   1.288   1.122  45.480  0.1805 -0.2726  0.2215
  116OSM   H17F12199   1.347   1.152  45.569  0.0946  0.4963  0.0226
  116OSM   H17G12200   1.288   1.204  45.406 -0.0104 -0.9764 -0.5763
  116OSM   C18F12201   1.357   0.993  45.430 -0.2185  0.5858  0.4382
  116OSM   H18F12202   1.466   1.011  45.422  0.1501 -0.8926  1.6448
  116OSM   H18G12203   1.301   0.958  45.341  0.2110  0.9055  0.0359
  116OSM   H18H12204   1.351   0.911  45.505 -0.5853  0.5365  0.3535
  117OSM      N12205   1.688   1.375  48.018  0.6489 -1.3783  0.5749
  117OSM    C1512206   1.784   1.484  47.984  0.1273  0.0529 -0.3891
  117OSM   H15A12207   1.881   1.443  47.960 -0.7155 -2.0710 -0.3915
  117OSM   H15B12208   1.781   1.563  48.057  3.1327  1.2948 -1.4429
  117OSM   H15C12209   1.747   1.544  47.902 -2.5638 -0.8508  0.0424
  117OSM    C1412210   1.700   1.339  48.166 -0.3078  1.0587 -0.1109
  117OSM   H14A12211   1.801   1.306  48.186  0.5480  3.3437 -0.3306
  117OSM   H14B12212   1.646   1.248  48.186  1.0468  0.0591 -0.9242
  117OSM   H14C12213   1.664   1.418  48.231 -1.6151 -0.4643  1.1045
  117OSM    C1312214   1.557   1.443  48.002 -0.0335 -0.2231  0.4014
  117OSM   H13A12215   1.538   1.485  47.904 -2.9971 -1.1782  0.4478
  117OSM   H13B12216   1.543   1.526  48.070  1.7084  1.0158 -0.6636
  117OSM   H13C12217   1.474   1.375  48.013  0.8309 -1.5163 -0.7509
  117OSM    C1212218   1.685   1.252  47.928  0.3092 -0.9162  0.4999
  117OSM   H12A12219   1.684   1.286  47.825 -0.7479  1.9949  1.4004
  117OSM   H12B12220   1.589   1.204  47.938  0.2186 -1.2885 -1.6043
  117OSM    C1112221   1.805   1.151  47.938 -0.4292 -0.0824 -0.1238
  117OSM   H11A12222   1.905   1.199  47.935  0.0076  0.0639  5.4573
  117OSM   H11B12223   1.784   1.083  47.853 -0.8583 -0.5421  0.3395
  117OSM      P12224   1.740   0.943  48.071 -0.3780 -0.0784 -0.0211
  117OSM    O1312225   1.817   0.859  47.978 -0.5796  0.2185 -0.2165
  117OSM    O1412226   1.713   0.905  48.207 -0.3442 -0.8667  0.3707
  117OSM    O1112227   1.599   0.969  48.003  0.3565  0.1920  0.2885
  117OSM    O1212228   1.807   1.089  48.066  0.1145  0.5531  0.1262
  117OSM    C1S12229   1.472   0.958  48.063 -0.3677 -0.4749 -0.4242
  117OSM    H1S12230   1.469   1.027  48.150  0.7495  2.0534 -2.2343
  117OSM    H1T12231   1.452   0.853  48.090 -0.3983 -0.9254 -2.0826
  117OSM     NF12232   1.243   1.023  48.009  0.2854 -0.0064 -0.3609
  117OSM    HNF12233   1.181   1.000  47.935 -2.6554  2.7101  1.0378
  117OSM    C2S12234   1.372   1.025  47.961 -0.5299  0.1377  0.3465
  117OSM    H2S12235   1.397   1.133  47.973 -0.5401  0.0314  1.4282
  117OSM    C3S12236   1.381   0.965  47.817 -0.3641 -0.1474 -0.3234
  117OSM    H3S12237   1.345   0.861  47.832 -0.9442 -0.1361 -1.4898
  117OSM     O312238   1.508   0.937  47.762 -0.0164  0.7510 -0.3568
  117OSM    HO312239   1.556   0.954  47.843 -1.2896  2.3362  0.1393
  117OSM    C4S12240   1.286   1.034  47.727 -0.7061 -0.3293  0.1380
  117OSM    H4S12241   1.296   1.141  47.706  3.0643 -0.8563 -1.6111
  117OSM    C5S12242   1.200   0.967  47.654  0.7979  0.2559 -0.2320
  117OSM    H5S12243   1.195   0.859  47.639  3.0781  0.4306 -3.2142
  117OSM    C6S12244   1.107   1.045  47.558 -0.5913  0.4837  0.0386
  117OSM    H6S12245   1.070   1.138  47.607 -0.7957  0.6416 -0.4120
  117OSM    H6T12246   1.020   0.979  47.536 -0.2262  0.0490 -0.1233
  117OSM    C7S12247   1.170   1.094  47.429 -0.4978  0.2075  0.6588
  117OSM    H7S12248   1.198   1.016  47.356 -1.0534  0.4046  0.2328
  117OSM    H7T12249   1.265   1.149  47.445  0.5587 -1.5611  0.7351
  117OSM    C8S12250   1.081   1.190  47.358  0.7903  0.0933 -0.1855
  117OSM    H8S12251   1.041   1.265  47.430  0.0253  0.5926 -1.0996
  117OSM    H8T12252   0.993   1.134  47.320 -0.7201  1.5781  0.9684
  117OSM    C9S12253   1.137   1.270  47.244  0.5899 -0.1946  0.3994
  117OSM    H9S12254   1.155   1.198  47.161 -1.2359 -0.3345  0.0860
  117OSM    H9T12255   1.238   1.311  47.265  0.5116  1.1035 -1.4683
  117OSM   C10S12256   1.045   1.383  47.196 -0.3551  0.9793  0.4862
  117OSM   H10S12257   1.095   1.420  47.104  2.3310  1.3964  1.9932
  117OSM   H10T12258   1.057   1.476  47.256  2.1796  0.4422  0.9240
  117OSM   C11S12259   0.906   1.326  47.174 -0.4974  0.1650  0.0580
  117OSM   H11S12260   0.841   1.310  47.262  1.1237  0.0421  1.2865
  117OSM   H11T12261   0.921   1.235  47.111  2.7032  0.2871  0.4530
  117OSM   C12S12262   0.825   1.416  47.076  0.4980  0.7179 -0.3035
  117OSM   H12S12263   0.848   1.521  47.104 -0.6043  0.2809  2.6971
  117OSM   H12T12264   0.721   1.391  47.109  0.9417  0.8008  1.2373
  117OSM   C13S12265   0.835   1.388  46.920 -0.1610 -0.3217 -0.0840
  117OSM   H13S12266   0.867   1.285  46.897  1.6472  0.3853 -0.9119
  117OSM   H13T12267   0.907   1.455  46.869 -0.9727 -0.2426 -1.1733
  117OSM   C14S12268   0.698   1.426  46.860  0.1394 -0.8416 -0.5662
  117OSM   H14S12269   0.694   1.537  46.856  2.4759 -0.5758  1.6867
  117OSM   H14T12270   0.620   1.378  46.924  1.2799  0.1539  1.7010
  117OSM   C15S12271   0.692   1.372  46.718 -0.7034 -0.4399  0.2586
  117OSM   H15S12272   0.714   1.263  46.715 -1.1500 -0.5366  0.4563
  117OSM   H15T12273   0.753   1.431  46.647 -1.9762  1.3671  0.6115
  117OSM   C16S12274   0.550   1.386  46.665  0.4770  0.7446  0.4471
  117OSM   H16S12275   0.520   1.493  46.658 -1.9523  0.0459 -0.9191
  117OSM   H16T12276   0.480   1.334  46.735 -1.7039  2.2675 -0.4725
  117OSM   C17S12277   0.532   1.342  46.516  0.1175 -0.2570  0.0244
  117OSM   H17S12278   0.544   1.233  46.495 -1.6259 -0.3639 -0.6177
  117OSM   H17T12279   0.606   1.402  46.459 -0.6832  1.6129  0.8835
  117OSM   C18S12280   0.389   1.380  46.468 -0.7158 -0.0540  0.8938
  117OSM   H18S12281   0.330   1.304  46.524 -1.2806 -0.8075 -0.6666
  117OSM   H18T12282   0.385   1.364  46.358  0.8895  1.2260  0.6071
  117OSM   H18U12283   0.365   1.485  46.496  0.7511  0.5875 -0.1160
  117OSM    C1F12284   1.189   1.093  48.106  0.3202 -0.8937 -0.4433
  117OSM     OF12285   1.262   1.164  48.171 -0.2102  0.2457 -0.7749
  117OSM    C2F12286   1.040   1.099  48.112  0.0233  0.0001  0.4361
  117OSM    H2F12287   0.996   1.026  48.041 -0.5258 -0.5080  1.2850
  117OSM    H2G12288   1.011   1.200  48.075  1.3478  0.5239  0.7704
  117OSM    C3F12289   0.975   1.079  48.249  0.7175  0.1495  0.2518
  117OSM    H3F12290   1.033   1.134  48.327  0.6502 -0.5273  0.7841
  117OSM    H3G12291   0.987   0.970  48.266  2.1500  0.0599 -1.1566
  117OSM    C4F12292   0.826   1.128  48.257  1.3802 -0.0154  0.4724
  117OSM    H4F12293   0.765   1.040  48.225  0.6292  0.7078 -0.1413
  117OSM    H4G12294   0.797   1.218  48.198  2.0470  0.4261  0.8144
  117OSM    C5F12295   0.789   1.148  48.402  0.3021  0.2791 -0.7619
  117OSM    H5F12296   0.869   1.091  48.454 -0.8679 -1.2426 -0.5539
  117OSM    H5G12297   0.687   1.114  48.429  0.7864 -2.0578 -1.6196
  117OSM    C6F12298   0.805   1.301  48.434  0.1515  0.3706 -0.0772
  117OSM    H6F12299   0.722   1.359  48.389  1.0538  0.1473 -2.1601
  117OSM    H6G12300   0.899   1.331  48.384  0.4178  0.2158  0.3238
  117OSM    C7F12301   0.829   1.332  48.583  0.7504  0.7459  0.4251
  117OSM    H7F12302   0.898   1.258  48.629  0.5105  0.1566 -0.1621
  117OSM    H7G12303   0.738   1.310  48.643  0.1596  0.1514 -0.6647
  117OSM    C8F12304   0.868   1.479  48.607 -0.4870  1.3323 -0.5704
  117OSM    H8F12305   0.946   1.512  48.535  1.3577  0.8268  1.1134
  117OSM    H8G12306   0.934   1.476  48.696 -0.1036  1.0466 -0.8573
  117OSM    C9F12307   0.742   1.562  48.612 -0.3214 -0.1502  1.1874
  117OSM    H9F12308   0.690   1.543  48.707  0.3400 -2.3191  1.1718
  117OSM   C10F12309   0.676   1.635  48.523  0.2432 -0.7969  0.4074
  117OSM   H10F12310   0.578   1.684  48.537  1.9279  2.9169  0.3220
  117OSM   C11F12311   0.730   1.669  48.387  0.2713 -0.3963 -0.1604
  117OSM   H11F12312   0.649   1.629  48.324 -1.7144  2.7991  0.1331
  117OSM   H11G12313   0.819   1.611  48.355 -1.4375 -2.4973 -1.3816
  117OSM   C12F12314   0.753   1.819  48.348  0.0791 -0.4380 -1.0501
  117OSM   H12F12315   0.857   1.838  48.382  0.5298 -2.4182 -1.1924
  117OSM   H12G12316   0.680   1.891  48.392  0.2954  1.6841 -3.8904
  117OSM   C13F12317   0.765   1.856  48.196  0.8715  0.0712  0.5542
  117OSM   H13F12318   0.657   1.868  48.170  1.1828  0.1450 -0.8014
  117OSM   H13G12319   0.794   1.767  48.135  0.3432 -0.9851  1.8071
  117OSM   C14F12320   0.832   1.986  48.152  0.0035 -0.4059  0.0236
  117OSM   H14F12321   0.938   1.996  48.186  0.0060  0.9091 -0.3095
  117OSM   H14G12322   0.773   2.073  48.187  1.2293  1.2447 -1.7485
  117OSM   C15F12323   0.820   2.004  47.997  0.8459 -0.3461 -0.1231
  117OSM   H15F12324   0.716   1.994  47.958  0.5327 -2.1407  1.0559
  117OSM   H15G12325   0.879   1.928  47.943  2.8902 -0.0472  1.6074
  117OSM   C16F12326   0.873   2.143  47.970 -0.5454  0.5274  0.4216
  117OSM   H16F12327   0.982   2.128  47.984 -0.6510 -2.3812 -1.1395
  117OSM   H16G12328   0.838   2.227  48.033 -1.8173 -0.7191  1.4300
  117OSM   C17F12329   0.850   2.186  47.824 -0.1475  0.2007 -0.4205
  117OSM   H17F12330   0.884   2.116  47.745 -0.5015  1.4012 -1.6970
  117OSM   H17G12331   0.746   2.219  47.799 -0.8698  0.2258  2.3673
  117OSM   C18F12332   0.936   2.311  47.790  0.4102  0.5789  0.1285
  117OSM   H18F12333   0.910   2.398  47.855 -2.4009 -0.1499  0.1223
  117OSM   H18G12334   0.920   2.330  47.682 -0.4509 -0.6576  0.0155
  117OSM   H18H12335   1.040   2.279  47.814 -0.3002 -0.8891  1.4456
  118OSM      N12336   0.526   1.649  37.765  0.4359  0.5650  0.4524
  118OSM    C1512337   0.524   1.518  37.827  0.2950  0.8171  0.2449
  118OSM   H15A12338   0.488   1.433  37.771 -0.0852  1.2540 -0.1756
  118OSM   H15B12339   0.461   1.519  37.915 -1.7548 -2.4584 -0.9857
  118OSM   H15C12340   0.622   1.494  37.866  0.6820  1.0779 -0.5471
  118OSM    C1412341   0.607   1.747  37.852 -0.4277  0.4530  0.4322
  118OSM   H14A12342   0.587   1.849  37.821  0.5457  1.1098  1.8343
  118OSM   H14B12343   0.710   1.717  37.848  0.1862  2.4680 -0.0262
  118OSM   H14C12344   0.579   1.741  37.957  2.5733 -0.4047  1.2860
  118OSM    C1312345   0.580   1.626  37.629  0.3192  0.1962 -0.0615
  118OSM   H13A12346   0.678   1.581  37.622 -0.2341 -0.9320 -0.9407
  118OSM   H13B12347   0.592   1.722  37.582  2.3527 -0.1762 -0.4058
  118OSM   H13C12348   0.515   1.561  37.573 -0.7177 -0.2686  1.6126
  118OSM    C1212349   0.379   1.706  37.766 -0.6650 -0.2130  0.1278
  118OSM   H12A12350   0.352   1.726  37.869  1.7199  1.0210  0.5766
  118OSM   H12B12351   0.313   1.631  37.724  1.5811 -2.0375 -0.3687
  118OSM    C1112352   0.359   1.842  37.689  0.0828  1.0775  0.9869
  118OSM   H11A12353   0.251   1.852  37.666  0.2414 -2.5276 -2.3865
  118OSM   H11B12354   0.413   1.841  37.592  0.8820 -0.8387  1.3930
  118OSM      P12355   0.308   1.996  37.890 -0.5224  0.5296 -0.4525
  118OSM    O1312356   0.379   2.093  37.979  0.2023 -0.3894 -0.1935
  118OSM    O1412357   0.182   2.041  37.830  0.5947  0.1330  0.3110
  118OSM    O1112358   0.274   1.864  37.975 -0.2388  0.5182  0.3011
  118OSM    O1212359   0.399   1.950  37.772  0.0217 -0.6714  0.0459
  118OSM    C1S12360   0.349   1.810  38.080 -0.1038 -0.2474  0.3657
  118OSM    H1S12361   0.381   1.896  38.143  0.4007 -0.2764  0.1563
  118OSM    H1T12362   0.446   1.763  38.054 -0.8686 -1.8678  0.2804
  118OSM     NF12363   0.327   1.670  38.286 -0.1271  0.2406  0.1930
  118OSM    HNF12364   0.353   1.574  38.284 -2.4434 -0.4434  0.1232
  118OSM    C2S12365   0.268   1.705  38.159 -0.6554  0.4887  0.1205
  118OSM    H2S12366   0.178   1.763  38.185 -0.1225  1.4281 -0.0737
  118OSM    C3S12367   0.244   1.588  38.062  0.3118 -0.1467 -0.1031
  118OSM    H3S12368   0.340   1.567  38.010  1.2468  1.5807  0.8273
  118OSM     O312369   0.148   1.611  37.962  0.2752  0.0763  0.2624
  118OSM    HO312370   0.164   1.705  37.947  1.0715  0.1609  1.4798
  118OSM    C4S12371   0.192   1.467  38.138 -1.0890 -0.2716  0.5709
  118OSM    H4S12372   0.259   1.380  38.130  0.1115  0.4820  1.8489
  118OSM    C5S12373   0.077   1.455  38.201  0.8117 -0.4305 -0.2016
  118OSM    H5S12374   0.007   1.538  38.214 -0.9102 -2.0964  1.8382
  118OSM    C6S12375   0.025   1.333  38.280 -0.3372  0.0238 -0.3503
  118OSM    H6S12376   0.098   1.250  38.267  1.2933  1.5168 -1.2304
  118OSM    H6T12377  -0.072   1.292  38.245  0.6072 -1.8923 -0.8910
  118OSM    C7S12378   0.003   1.342  38.433  0.4072 -0.4061  0.2966
  118OSM    H7S12379   0.016   1.241  38.477  1.3001  0.0562  1.1376
  118OSM    H7T12380  -0.100   1.377  38.454  0.6454  0.5835 -0.1600
  118OSM    C8S12381   0.088   1.442  38.520  0.6296 -0.1357  0.5452
  118OSM    H8S12382   0.051   1.540  38.485 -3.7684 -2.0466 -0.8599
  118OSM    H8T12383   0.199   1.436  38.510  0.7042 -0.6563  1.5700
  118OSM    C9S12384   0.043   1.427  38.663 -0.5174 -0.0591  1.0412
  118OSM    H9S12385  -0.069   1.427  38.663 -0.5635  0.6329 -0.7280
  118OSM    H9T12386   0.070   1.527  38.702  1.4067  0.0043 -0.3456
  118OSM   C10S12387   0.105   1.316  38.740 -0.1136 -0.3405  0.4721
  118OSM   H10S12388   0.215   1.330  38.728 -0.0193 -0.3951  1.1908
  118OSM   H10T12389   0.085   1.217  38.693  0.0801 -0.0489 -0.2262
  118OSM   C11S12390   0.083   1.326  38.892 -0.3143 -0.1718  0.4380
  118OSM   H11S12391  -0.027   1.322  38.905 -0.1411 -0.8032  1.8946
  118OSM   H11T12392   0.119   1.423  38.932 -1.8468  0.3107  0.7316
  118OSM   C12S12393   0.144   1.210  38.962  0.0886 -0.4480 -0.1499
  118OSM   H12S12394   0.252   1.209  38.935  0.4253  1.2853  0.9754
  118OSM   H12T12395   0.107   1.110  38.930  0.5459 -0.4095 -0.8113
  118OSM   C13S12396   0.124   1.210  39.114 -0.1829  0.1759 -0.8130
  118OSM   H13S12397   0.015   1.211  39.136 -0.3816 -2.7893 -1.2757
  118OSM   H13T12398   0.171   1.301  39.157  1.1692 -0.6478 -0.5106
  118OSM   C14S12399   0.180   1.091  39.187 -0.4903  0.1690  0.4998
  118OSM   H14S12400   0.283   1.073  39.149 -0.7912  0.9344 -0.7349
  118OSM   H14T12401   0.122   0.997  39.173 -0.6435  0.6026 -2.4818
  118OSM   C15S12402   0.193   1.103  39.335  0.0453  0.0151 -0.8057
  118OSM   H15S12403   0.097   1.114  39.390 -0.5724 -0.8458 -1.6791
  118OSM   H15T12404   0.259   1.187  39.366 -0.5086 -0.0076  0.5161
  118OSM   C16S12405   0.248   0.975  39.404 -0.4161 -0.2137 -0.9829
  118OSM   H16S12406   0.332   0.938  39.341  0.4588 -0.9489  0.5469
  118OSM   H16T12407   0.178   0.888  39.407  1.0515 -1.4260  0.7093
  118OSM   C17S12408   0.301   0.992  39.554 -0.1065 -0.8834  0.7312
  118OSM   H17S12409   0.214   1.014  39.620 -0.0078 -1.0159  0.9048
  118OSM   H17T12410   0.373   1.076  39.564 -0.8359 -0.4751  3.4531
  118OSM   C18S12411   0.362   0.867  39.608  0.9437 -0.2213 -0.0361
  118OSM   H18S12412   0.420   0.890  39.700  1.6428 -1.1219 -0.2367
  118OSM   H18T12413   0.438   0.839  39.532 -0.4004  3.1448 -2.8583
  118OSM   H18U12414   0.286   0.785  39.602 -0.1861  0.4462  3.2130
  118OSM    C1F12415   0.318   1.746  38.392 -0.5711  0.0053  0.0034
  118OSM     OF12416   0.248   1.839  38.391 -0.4750 -0.6151  0.1795
  118OSM    C2F12417   0.381   1.692  38.514  0.0784 -0.7324  0.3367
  118OSM    H2F12418   0.483   1.737  38.517 -0.5606  0.8999 -1.2824
  118OSM    H2G12419   0.395   1.584  38.489  1.6026 -0.3259 -0.6811
  118OSM    C3F12420   0.298   1.709  38.638  0.2386 -0.5068 -0.7393
  118OSM    H3F12421   0.194   1.669  38.633 -0.1489 -0.3123  2.8002
  118OSM    H3G12422   0.293   1.817  38.665  0.2094 -0.7866  0.4228
  118OSM    C4F12423   0.376   1.634  38.751  1.2479  0.1309 -0.2593
  118OSM    H4F12424   0.479   1.676  38.764  1.1521 -0.3520  2.4808
  118OSM    H4G12425   0.374   1.526  38.724 -0.5535 -0.1947  1.0369
  118OSM    C5F12426   0.306   1.666  38.882 -0.7360 -0.1638 -0.5107
  118OSM    H5F12427   0.198   1.643  38.870 -1.1613  2.0184 -1.2668
  118OSM    H5G12428   0.311   1.772  38.915 -0.0923 -0.1763 -0.5412
  118OSM    C6F12429   0.374   1.591  38.991  0.3116  0.5306 -0.1604
  118OSM    H6F12430   0.478   1.630  39.001  0.0435  0.8525  2.0396
  118OSM    H6G12431   0.386   1.484  38.964  3.1461  0.8976 -0.6461
  118OSM    C7F12432   0.303   1.607  39.125 -0.0207 -0.4103  0.1149
  118OSM    H7F12433   0.194   1.589  39.116 -0.1371  0.0501  0.5632
  118OSM    H7G12434   0.318   1.714  39.151 -1.9592 -0.2268  0.6871
  118OSM    C8F12435   0.365   1.513  39.218 -0.3541  0.4706 -0.2401
  118OSM    H8F12436   0.467   1.544  39.246  0.1688  0.8785 -2.3857
  118OSM    H8G12437   0.362   1.413  39.170 -2.6786  0.3235  0.0659
  118OSM    C9F12438   0.276   1.508  39.343  0.6403  0.0974 -0.0077
  118OSM    H9F12439   0.168   1.508  39.323  0.2626  4.5395  0.8975
  118OSM   C10F12440   0.314   1.513  39.474 -0.0135  0.4975  0.5400
  118OSM   H10F12441   0.241   1.517  39.557 -0.9535  3.8087 -0.3248
  118OSM   C11F12442   0.453   1.531  39.524  0.3903  0.1191 -0.2183
  118OSM   H11F12443   0.495   1.625  39.483 -1.4443  1.7853  1.5034
  118OSM   H11G12444   0.534   1.461  39.496 -0.9685 -1.4366 -0.3859
  118OSM   C12F12445   0.452   1.533  39.678  0.0264  0.1413  0.0765
  118OSM   H12F12446   0.392   1.617  39.717  1.2727 -0.1877  2.9638
  118OSM   H12G12447   0.553   1.560  39.716 -0.0620  0.7272 -0.0983
  118OSM   C13F12448   0.429   1.401  39.753  0.2941 -0.1035 -0.3289
  118OSM   H13F12449   0.361   1.330  39.700  2.2581 -1.2180 -1.4541
  118OSM   H13G12450   0.391   1.419  39.856 -0.5954  0.4441 -0.7378
  118OSM   C14F12451   0.557   1.313  39.775 -0.4824  0.5669  0.1609
  118OSM   H14F12452   0.625   1.375  39.839 -0.5109  0.6500  0.1094
  118OSM   H14G12453   0.608   1.301  39.678 -0.0628 -0.0462  0.4520
  118OSM   C15F12454   0.536   1.184  39.851  0.3255  0.0011 -0.9544
  118OSM   H15F12455   0.636   1.137  39.867  0.3610  0.4132  0.1326
  118OSM   H15G12456   0.461   1.123  39.797  0.5328  0.4763 -1.7955
  118OSM   C16F12457   0.475   1.212  39.990  0.2259 -0.3206  0.4129
  118OSM   H16F12458   0.367   1.236  39.976 -0.3770 -1.3626  2.7639
  118OSM   H16G12459   0.521   1.294  40.049 -1.4575  1.2514 -0.3413
  118OSM   C17F12460   0.469   1.084  40.070  0.1447 -0.6547  0.1925
  118OSM   H17F12461   0.436   1.110  40.173  1.5184 -1.9925  1.0071
  118OSM   H17G12462   0.568   1.036  40.086  0.8569  0.3005 -1.1721
  118OSM   C18F12463   0.364   0.992  40.013 -0.5345 -0.7257  0.1121
  118OSM   H18F12464   0.402   0.947  39.918 -1.0562  0.0705 -0.4903
  118OSM   H18G12465   0.264   1.037  39.994  0.2076  0.0367 -2.4782
  118OSM   H18H12466   0.342   0.911  40.085  0.2517 -0.3550  0.7810
  119OSM      N12467   2.367   1.679  37.854  0.2207 -0.2942 -0.3358
  119OSM    C1512468   2.380   1.765  37.727  0.9361  0.0283 -0.1577
  119OSM   H15A12469   2.292   1.757  37.665  0.7742 -0.3399  0.1171
  119OSM   H15B12470   2.465   1.732  37.670  1.9021 -0.5677  1.5449
  119OSM   H15C12471   2.400   1.871  37.740 -2.7604  0.6969  1.5011
  119OSM    C1412472   2.357   1.534  37.803 -0.0011  0.1811  0.2642
  119OSM   H14A12473   2.317   1.475  37.884  0.8720  1.9270  2.0766
  119OSM   H14B12474   2.455   1.499  37.771 -0.5491 -2.3307  1.0847
  119OSM   H14C12475   2.292   1.531  37.717  1.3279  1.7149 -0.8743
  119OSM    C1312476   2.488   1.702  37.938  0.2796  0.4059 -0.3742
  119OSM   H13A12477   2.481   1.649  38.032  3.2037 -1.7104 -1.1948
  119OSM   H13B12478   2.496   1.807  37.958  0.1539  0.1824  0.9030
  119OSM   H13C12479   2.582   1.680  37.888  0.2122  2.1918 -1.3516
  119OSM    C1212480   2.243   1.717  37.940  0.2117  0.1196  0.6335
  119OSM   H12A12481   2.253   1.819  37.973 -1.9868 -0.0709  2.1022
  119OSM   H12B12482   2.253   1.658  38.030 -1.7942 -0.4994  0.5053
  119OSM    C1112483   2.103   1.694  37.880  1.2234 -0.1315  0.1930
  119OSM   H11A12484   2.106   1.733  37.776  0.2739 -1.3614 -0.3058
  119OSM   H11B12485   2.033   1.761  37.933  0.6589  0.2034 -0.9394
  119OSM      P12486   2.045   1.472  38.003  0.1148  0.1936 -0.5594
  119OSM    O1312487   1.902   1.448  38.030 -0.2923 -0.0666  0.2745
  119OSM    O1412488   2.135   1.358  37.984  0.5084  0.1526 -0.0482
  119OSM    O1112489   2.102   1.562  38.119 -0.4169 -0.0905 -0.0749
  119OSM    O1212490   2.064   1.562  37.881  0.7047 -0.0326  0.8351
  119OSM    C1S12491   2.117   1.506  38.248  0.6281  0.1438  0.0182
  119OSM    H1S12492   2.189   1.422  38.250  0.4448 -0.0584 -1.1291
  119OSM    H1T12493   2.017   1.473  38.283  1.2769 -1.5422  0.3645
  119OSM     NF12494   2.167   1.533  38.485  0.6173  0.1666  0.1601
  119OSM    HNF12495   2.084   1.527  38.539  0.3162  2.2018  0.0069
  119OSM    C2S12496   2.160   1.603  38.362 -0.3886  0.2602  0.2554
  119OSM    H2S12497   2.262   1.637  38.335  0.7428 -1.6292  1.9554
  119OSM    C3S12498   2.066   1.724  38.370 -0.6477  0.2731  0.3555
  119OSM    H3S12499   1.975   1.682  38.417  0.6451 -1.9348  1.0635
  119OSM     O312500   2.009   1.770  38.249 -0.1152  0.4216  0.0596
  119OSM    HO312501   2.012   1.693  38.192 -0.2852  0.2826  0.2403
  119OSM    C4S12502   2.115   1.836  38.457  0.5514  0.0172  0.4631
  119OSM    H4S12503   2.101   1.805  38.562 -0.5077  2.5499  1.1468
  119OSM    C5S12504   2.164   1.961  38.436 -0.9025 -0.5356 -0.1189
  119OSM    H5S12505   2.175   1.999  38.333 -0.6904  1.1439  0.4942
  119OSM    C6S12506   2.215   2.060  38.539  0.4934  0.1967  0.4260
  119OSM    H6S12507   2.187   2.164  38.512 -0.3560  0.1355  1.0440
  119OSM    H6T12508   2.325   2.061  38.554  0.8726  1.4289 -1.9277
  119OSM    C7S12509   2.145   2.030  38.677 -0.0998 -0.2954  0.2167
  119OSM    H7S12510   2.184   1.934  38.716  2.0870  0.3385 -0.2709
  119OSM    H7T12511   2.036   2.035  38.660 -0.1373  0.5068  0.6506
  119OSM    C8S12512   2.186   2.119  38.787  0.3251 -0.3870  0.0507
  119OSM    H8S12513   2.153   2.224  38.774  0.2076 -0.4528 -0.1972
  119OSM    H8T12514   2.297   2.115  38.793  0.3941 -1.6507 -1.2707
  119OSM    C9S12515   2.137   2.072  38.930  0.4337 -0.6776  0.2228
  119OSM    H9S12516   2.151   1.962  38.923 -2.2046 -1.0973  0.4843
  119OSM    H9T12517   2.030   2.088  38.954  0.8188  1.4557  0.7990
  119OSM   C10S12518   2.218   2.132  39.045 -0.2742 -0.3231  0.1549
  119OSM   H10S12519   2.185   2.237  39.054  0.0037  0.0652 -2.6332
  119OSM   H10T12520   2.325   2.132  39.016 -0.3286 -0.3131 -0.0464
  119OSM   C11S12521   2.200   2.061  39.179 -0.5261 -0.4919 -0.1241
  119OSM   H11S12522   2.092   2.054  39.204 -0.3745 -1.6406  0.2778
  119OSM   H11T12523   2.244   2.130  39.254  0.4250 -1.7956  0.5684
  119OSM   C12S12524   2.260   1.919  39.179 -0.2284 -0.2971  0.2587
  119OSM   H12S12525   2.369   1.912  39.159  0.1380  1.0057  1.6014
  119OSM   H12T12526   2.204   1.847  39.115  1.1749 -0.5763 -0.7130
  119OSM   C13S12527   2.244   1.855  39.323  0.2138  0.3557 -0.3899
  119OSM   H13S12528   2.263   1.747  39.305 -0.4422  0.4742 -2.0175
  119OSM   H13T12529   2.140   1.861  39.363 -0.4095 -0.2650 -1.8380
  119OSM   C14S12530   2.337   1.899  39.433  0.0140  0.2250 -0.0853
  119OSM   H14S12531   2.334   2.005  39.466  0.6244 -0.5244  2.6488
  119OSM   H14T12532   2.440   1.883  39.395  0.2060 -2.2105  1.2655
  119OSM   C15S12533   2.318   1.819  39.564 -0.2047  1.0768  0.2308
  119OSM   H15S12534   2.286   1.716  39.538  1.5467 -0.2496  2.8123
  119OSM   H15T12535   2.233   1.859  39.622 -0.0339  1.8903 -0.0578
  119OSM   C16S12536   2.445   1.813  39.661 -0.2335 -0.2673 -0.4615
  119OSM   H16S12537   2.479   1.918  39.676 -1.5083  0.2327 -0.9465
  119OSM   H16T12538   2.523   1.757  39.606 -1.2040  0.5656 -2.7793
  119OSM   C17S12539   2.426   1.718  39.778 -0.4283 -0.0844 -0.1281
  119OSM   H17S12540   2.510   1.734  39.849  0.8159 -3.3021 -0.7330
  119OSM   H17T12541   2.429   1.613  39.743  0.4466 -0.5372  1.2367
  119OSM   C18S12542   2.293   1.744  39.852  0.7309  0.0136 -0.1799
  119OSM   H18S12543   2.304   1.680  39.942  0.5448 -0.3642 -0.4188
  119OSM   H18T12544   2.212   1.700  39.790 -1.0276  0.1442  1.9158
  119OSM   H18U12545   2.265   1.850  39.872  0.0282 -0.2641  0.3544
  119OSM    C1F12546   2.254   1.435  38.515 -0.1000 -0.2969  0.3201
  119OSM     OF12547   2.345   1.402  38.438 -0.0225 -0.0238 -0.0090
  119OSM    C2F12548   2.217   1.360  38.647  0.4359 -0.2596  0.6177
  119OSM    H2F12549   2.114   1.319  38.640  0.9998 -1.8923  1.3376
  119OSM    H2G12550   2.219   1.444  38.720  2.6636 -0.4047  0.8101
  119OSM    C3F12551   2.319   1.252  38.690  1.0063 -0.1534  0.0627
  119OSM    H3F12552   2.424   1.287  38.700  0.6414  0.9246  0.3016
  119OSM    H3G12553   2.309   1.188  38.600 -0.8898  2.6662 -1.9044
  119OSM    C4F12554   2.273   1.176  38.815  0.4940 -0.0438  0.1071
  119OSM    H4F12555   2.316   1.074  38.803 -2.6954 -1.5308  0.1500
  119OSM    H4G12556   2.165   1.150  38.804 -0.0047  0.8688  2.2059
  119OSM    C5F12557   2.299   1.238  38.953 -0.4514  0.4045 -0.0490
  119OSM    H5F12558   2.268   1.344  38.964  0.4333  0.5171  1.8230
  119OSM    H5G12559   2.407   1.216  38.973 -0.6387 -0.2864  0.2502
  119OSM    C6F12560   2.232   1.172  39.075 -0.0339 -0.0136  0.1288
  119OSM    H6F12561   2.215   1.064  39.060 -3.9056  0.2859  1.3569
  119OSM    H6G12562   2.131   1.215  39.061  0.9385  1.9755 -1.2796
  119OSM    C7F12563   2.295   1.204  39.210  0.3528 -0.1408 -0.2454
  119OSM    H7F12564   2.283   1.312  39.230  1.3579 -0.0522 -0.0837
  119OSM    H7G12565   2.402   1.178  39.217  0.2036 -0.4643  0.9559
  119OSM    C8F12566   2.227   1.120  39.324 -0.1779 -0.0736  0.5532
  119OSM    H8F12567   2.206   1.019  39.283 -0.0918 -0.3726  1.2272
  119OSM    H8G12568   2.125   1.163  39.340 -0.8414 -0.4238 -2.2518
  119OSM    C9F12569   2.318   1.123  39.453  0.3933  0.3349 -0.1238
  119OSM    H9F12570   2.400   1.050  39.458 -0.8957 -1.0912  1.0963
  119OSM   C10F12571   2.305   1.212  39.558  0.3424  0.2324  0.1386
  119OSM   H10F12572   2.367   1.198  39.648  0.3821  0.0563  0.0867
  119OSM   C11F12573   2.211   1.323  39.575  0.3215 -0.0671 -0.1176
  119OSM   H11F12574   2.138   1.331  39.492 -0.0579 -0.7779  0.1463
  119OSM   H11G12575   2.267   1.419  39.577  1.9763 -0.9788 -0.9612
  119OSM   C12F12576   2.123   1.300  39.708 -0.0968 -0.5462  0.2179
  119OSM   H12F12577   2.080   1.199  39.692 -0.1567 -0.7495  1.5046
  119OSM   H12G12578   2.040   1.373  39.723  0.4963 -0.0267  1.0666
  119OSM   C13F12579   2.204   1.309  39.838  0.1286  0.8679  0.3241
  119OSM   H13F12580   2.296   1.371  39.829  1.2406 -0.6338  0.9287
  119OSM   H13G12581   2.241   1.212  39.878 -3.4316 -0.3842  0.9474
  119OSM   C14F12582   2.137   1.373  39.959 -0.1762  0.5942 -0.2925
  119OSM   H14F12583   2.050   1.307  39.983  1.1592 -1.0837  0.1904
  119OSM   H14G12584   2.106   1.475  39.929  1.4482  0.4073 -2.8775
  119OSM   C15F12585   2.229   1.366  40.082 -0.6633 -1.5784 -0.0358
  119OSM   H15F12586   2.304   1.444  40.059 -0.6539 -1.9205 -1.2039
  119OSM   H15G12587   2.282   1.268  40.078  1.1666 -0.6018 -1.6751
  119OSM   C16F12588   2.162   1.370  40.224 -0.4584  0.5152 -0.3285
  119OSM   H16F12589   2.230   1.423  40.294 -3.3561  2.6021  1.0814
  119OSM   H16G12590   2.139   1.264  40.250  0.1316  0.3533 -0.4598
  119OSM   C17F12591   2.023   1.437  40.217  0.4919  0.1853  0.3777
  119OSM   H17F12592   1.954   1.375  40.155  0.5447 -1.4434  1.8815
  119OSM   H17G12593   2.031   1.536  40.166  2.2272  0.3825  0.9860
  119OSM   C18F12594   1.948   1.459  40.350  0.0180  1.2601 -0.5270
  119OSM   H18F12595   1.952   1.375  40.423  0.0953  1.3416 -0.4356
  119OSM   H18G12596   1.839   1.468  40.332 -0.5638 -2.9828 -0.1649
  119OSM   H18H12597   1.978   1.555  40.398  0.9889  1.8310 -2.1957
  120OSM      N12598   1.850   0.131  47.605 -0.8003 -0.3421  0.1520
  120OSM    C1512599   1.767   0.252  47.630 -0.5412 -0.5429  0.5908
  120OSM   H15A12600   1.742   0.264  47.734  3.2139 -0.6368  1.6534
  120OSM   H15B12601   1.676   0.257  47.572  0.2237 -1.9288 -0.8272
  120OSM   H15C12602   1.839   0.328  47.604 -0.5993 -1.2369 -1.9304
  120OSM    C1412603   1.911   0.154  47.464  0.1488  0.7014  0.0813
  120OSM   H14A12604   1.984   0.078  47.441 -0.8195  0.1061 -1.2466
  120OSM   H14B12605   1.952   0.251  47.443 -1.5140  1.1272 -1.5129
  120OSM   H14C12606   1.835   0.135  47.389 -0.7968  0.7686  0.9943
  120OSM    C1312607   1.962   0.116  47.705  0.2635  0.4112  1.0580
  120OSM   H13A12608   1.919   0.095  47.802 -1.4023  2.0986  0.7313
  120OSM   H13B12609   2.023   0.202  47.729 -1.0957  0.6726  4.0102
  120OSM   H13C12610   2.029   0.035  47.680 -0.9979 -0.8762  1.7095
  120OSM    C1212611   1.754   0.009  47.593  0.1735 -1.0256 -0.2067
  120OSM   H12A12612   1.807  -0.064  47.534  0.3138  0.5529 -2.1621
  120OSM   H12B12613   1.675   0.050  47.531 -0.1199  1.6936  1.7646
  120OSM    C1112614   1.694  -0.048  47.724  1.0552  0.2986 -0.5336
  120OSM   H11A12615   1.631  -0.133  47.689 -0.2667 -0.1163  2.5476
  120OSM   H11B12616   1.626   0.030  47.763  1.3574 -0.4528  1.6193
  120OSM      P12617   1.842  -0.237  47.810 -0.4680 -0.0135  0.1611
  120OSM    O1312618   1.895  -0.256  47.669 -0.4260  0.3597 -0.7102
  120OSM    O1412619   1.934  -0.271  47.920  0.1362 -0.0585  0.0900
  120OSM    O1112620   1.719  -0.336  47.815  0.0412 -0.3494  0.3143
  120OSM    O1212621   1.780  -0.092  47.823 -0.3337  0.4655 -0.1807
  120OSM    C1S12622   1.646  -0.374  47.927  0.5644  0.3164  0.4606
  120OSM    H1S12623   1.642  -0.281  47.988 -0.4045  1.1858 -0.8705
  120OSM    H1T12624   1.690  -0.460  47.982  1.9744  0.5676 -0.2384
  120OSM     NF12625   1.435  -0.468  48.017 -0.3944 -0.3794 -0.5399
  120OSM    HNF12626   1.404  -0.560  48.041  0.0796 -1.3550 -3.2444
  120OSM    C2S12627   1.495  -0.428  47.899  0.4237 -0.4108 -0.8394
  120OSM    H2S12628   1.443  -0.345  47.848  0.2618  1.1441  1.6863
  120OSM    C3S12629   1.500  -0.537  47.801 -0.4901 -0.6393  1.0590
  120OSM    H3S12630   1.560  -0.617  47.850 -1.0974 -3.0406 -1.8035
  120OSM     O312631   1.575  -0.513  47.682  0.2213  0.2449  0.2742
  120OSM    HO312632   1.638  -0.444  47.705 -2.0498  2.4106  0.3715
  120OSM    C4S12633   1.368  -0.586  47.758  0.4033  0.0034  0.0959
  120OSM    H4S12634   1.295  -0.511  47.724 -1.7231 -1.8305  0.3650
  120OSM    C5S12635   1.325  -0.715  47.763  0.0903 -0.0840 -0.4526
  120OSM    H5S12636   1.398  -0.794  47.787  0.5282  0.4772  0.0978
  120OSM    C6S12637   1.195  -0.763  47.703 -0.3884 -0.2075 -0.0027
  120OSM    H6S12638   1.161  -0.715  47.609  1.2346 -1.4182 -1.2680
  120OSM    H6T12639   1.108  -0.745  47.769 -1.0081  1.2044 -1.1557
  120OSM    C7S12640   1.213  -0.910  47.691 -0.4464 -0.4702 -0.7005
  120OSM    H7S12641   1.237  -0.958  47.788 -1.3087  3.7378  1.8426
  120OSM    H7T12642   1.289  -0.932  47.613  0.4111 -0.1303  0.0151
  120OSM    C8S12643   1.085  -0.983  47.657 -0.2104 -0.2248  0.0899
  120OSM    H8S12644   1.018  -0.985  47.746 -2.0467 -0.6447 -1.2395
  120OSM    H8T12645   1.109  -1.090  47.641  1.0151  0.3586 -2.5415
  120OSM    C9S12646   1.002  -0.925  47.540  0.6669  0.2024 -0.0615
  120OSM    H9S12647   1.068  -0.943  47.452  0.4351 -2.2343  0.2120
  120OSM    H9T12648   0.974  -0.818  47.553  0.5354  0.0938  0.5872
  120OSM   C10S12649   0.872  -1.000  47.502  0.3413 -0.3612 -0.5103
  120OSM   H10S12650   0.793  -0.983  47.578  1.6705 -1.2910  1.1405
  120OSM   H10T12651   0.899  -1.107  47.497  2.7876  0.2139 -1.3318
  120OSM   C11S12652   0.805  -0.969  47.365 -0.4073  0.3890  0.5141
  120OSM   H11S12653   0.888  -0.986  47.293 -1.7348  0.8419 -1.2215
  120OSM   H11T12654   0.779  -0.861  47.363  1.0591  0.7729  0.9809
  120OSM   C12S12655   0.669  -1.040  47.328 -0.0770  0.1988 -0.7572
  120OSM   H12S12656   0.604  -1.037  47.419  0.7996 -0.1099 -0.1066
  120OSM   H12T12657   0.694  -1.148  47.322  2.3203  0.6422  0.2811
  120OSM   C13S12658   0.605  -0.995  47.200  0.2620 -0.2673 -0.1371
  120OSM   H13S12659   0.677  -1.030  47.123  1.7487 -0.8408  1.4455
  120OSM   H13T12660   0.592  -0.884  47.203 -0.7551 -0.3922  0.5640
  120OSM   C14S12661   0.476  -1.067  47.160  0.2074 -0.4895  0.3402
  120OSM   H14S12662   0.388  -1.054  47.226  0.2447 -0.1987  0.3292
  120OSM   H14T12663   0.497  -1.176  47.154 -0.3617 -0.6022  0.3267
  120OSM   C15S12664   0.428  -1.012  47.018 -0.8096 -0.1381 -0.2333
  120OSM   H15S12665   0.524  -0.977  46.975  0.9882 -0.7184  2.9367
  120OSM   H15T12666   0.363  -0.923  47.028  2.5941  2.5705 -0.5584
  120OSM   C16S12667   0.355  -1.117  46.940  0.4387  0.7627 -0.2810
  120OSM   H16S12668   0.432  -1.197  46.937  1.4237  1.6781  0.1855
  120OSM   H16T12669   0.337  -1.087  46.835  0.3296 -1.0143 -0.8080
  120OSM   C17S12670   0.232  -1.172  47.016  0.2356 -0.3161 -0.1198
  120OSM   H17S12671   0.174  -1.079  47.035 -0.1601 -0.5555 -0.1448
  120OSM   H17T12672   0.258  -1.216  47.114  1.7890 -0.6377 -0.6507
  120OSM   C18S12673   0.145  -1.272  46.941  0.0592 -0.0273  0.0457
  120OSM   H18S12674   0.126  -1.229  46.841 -0.0133  5.1131  1.9822
  120OSM   H18T12675   0.057  -1.300  47.003  1.6600 -2.8886  1.2161
  120OSM   H18U12676   0.212  -1.361  46.936  0.4051  0.0910  1.7742
  120OSM    C1F12677   1.389  -0.376  48.100  1.2771  0.2668  0.4651
  120OSM     OF12678   1.392  -0.260  48.082  0.0338  0.2084  0.0056
  120OSM    C2F12679   1.316  -0.438  48.226  0.0473 -0.1794 -0.0784
  120OSM    H2F12680   1.395  -0.508  48.260 -0.3940 -0.5863  0.1296
  120OSM    H2G12681   1.215  -0.479  48.204 -0.1180 -2.3747  3.8242
  120OSM    C3F12682   1.312  -0.329  48.337 -0.8007 -0.1950 -0.7408
  120OSM    H3F12683   1.263  -0.380  48.423  1.9618 -2.0295 -0.1342
  120OSM    H3G12684   1.251  -0.247  48.294  2.1856  0.6412 -3.7561
  120OSM    C4F12685   1.451  -0.271  48.381  0.2747 -0.0341  0.3685
  120OSM    H4F12686   1.498  -0.211  48.300  1.6151  1.1327  1.9392
  120OSM    H4G12687   1.513  -0.360  48.403 -0.8607 -0.6025  1.4361
  120OSM    C5F12688   1.438  -0.181  48.502 -0.5602  0.3366 -0.0445
  120OSM    H5F12689   1.380  -0.088  48.485 -2.2467 -0.7462 -0.4105
  120OSM    H5G12690   1.543  -0.147  48.516  0.2168 -0.9064 -2.3746
  120OSM    C6F12691   1.409  -0.252  48.632  1.0202  0.4806 -0.3071
  120OSM    H6F12692   1.478  -0.339  48.631  2.5349  1.6340 -0.1261
  120OSM    H6G12693   1.304  -0.289  48.637  1.3528 -0.3434  3.5294
  120OSM    C7F12694   1.439  -0.165  48.759  0.8786 -0.2794  0.6571
  120OSM    H7F12695   1.373  -0.078  48.739 -1.5001 -2.6639 -3.4679
  120OSM    H7G12696   1.545  -0.133  48.767  0.7595 -0.3400  3.8023
  120OSM    C8F12697   1.381  -0.233  48.887 -0.2929  0.5468 -0.1801
  120OSM    H8F12698   1.286  -0.275  48.847  0.1932 -0.3729 -0.3930
  120OSM    H8G12699   1.369  -0.163  48.972 -0.7462 -2.0153  1.9760
  120OSM    C9F12700   1.458  -0.356  48.928 -0.8940 -0.0795  0.0098
  120OSM    H9F12701   1.543  -0.379  48.862  0.4840  0.7879  1.3961
  120OSM   C10F12702   1.426  -0.454  49.016 -0.4512  0.2099  0.4183
  120OSM   H10F12703   1.495  -0.540  49.024  0.4868  0.8575 -0.3740
  120OSM   C11F12704   1.304  -0.452  49.113 -0.4307  0.0082  0.3918
  120OSM   H11F12705   1.274  -0.345  49.128 -1.6935  0.6080 -4.7147
  120OSM   H11G12706   1.337  -0.478  49.216  3.5972 -1.0157 -1.0023
  120OSM   C12F12707   1.169  -0.525  49.081 -0.3091 -0.2251  0.1739
  120OSM   H12F12708   1.127  -0.503  48.980 -2.4771 -1.3193  0.7742
  120OSM   H12G12709   1.090  -0.491  49.152 -0.2986 -1.3924  0.7676
  120OSM   C13F12710   1.173  -0.681  49.093  0.6923 -0.1782  0.4459
  120OSM   H13F12711   1.257  -0.720  49.033 -0.4570 -0.5629 -0.9776
  120OSM   H13G12712   1.081  -0.715  49.041 -0.2261  3.7482 -0.8667
  120OSM   C14F12713   1.178  -0.731  49.237 -1.0607 -0.5957 -0.1470
  120OSM   H14F12714   1.108  -0.676  49.303 -0.6057  1.4581 -1.2931
  120OSM   H14G12715   1.281  -0.702  49.265 -0.1133 -2.1842 -1.7440
  120OSM   C15F12716   1.160  -0.885  49.267 -0.4903  0.5402 -0.0032
  120OSM   H15F12717   1.202  -0.936  49.178 -0.0567  2.0334 -0.6870
  120OSM   H15G12718   1.053  -0.910  49.280 -0.4919  1.1259  1.2900
  120OSM   C16F12719   1.241  -0.934  49.385 -0.1385  0.7807 -0.4660
  120OSM   H16F12720   1.348  -0.911  49.364  0.5697 -2.7261 -1.3946
  120OSM   H16G12721   1.221  -1.039  49.415  0.6727  0.6359 -0.4055
  120OSM   C17F12722   1.209  -0.851  49.521 -0.3547  1.2018 -0.3520
  120OSM   H17F12723   1.100  -0.831  49.523 -0.5561  0.1273  1.8047
  120OSM   H17G12724   1.268  -0.758  49.509  1.0555  0.1810 -1.8041
  120OSM   C18F12725   1.250  -0.922  49.653  1.0084 -0.3833 -0.2551
  120OSM   H18F12726   1.360  -0.935  49.654  1.0675 -0.3350 -1.9973
  120OSM   H18G12727   1.225  -1.030  49.646  0.6167 -0.2654 -0.8345
  120OSM   H18H12728   1.214  -0.859  49.737 -0.2156 -1.3421 -0.0222
  121OSM      N12729   1.617   2.197  37.443  0.5328 -0.4616 -0.0301
  121OSM    C1512730   1.485   2.221  37.506  0.1940  0.5057  0.1513
  121OSM   H15A12731   1.460   2.326  37.496  0.8999  0.6202 -0.5811
  121OSM   H15B12732   1.491   2.185  37.608  1.5748 -0.1910 -0.1483
  121OSM   H15C12733   1.418   2.155  37.454 -0.4767  1.1936  0.1206
  121OSM    C1412734   1.607   2.221  37.292  0.3810  0.1117  0.2195
  121OSM   H14A12735   1.702   2.203  37.245 -0.9476 -2.5511 -1.7545
  121OSM   H14B12736   1.574   2.322  37.273 -0.0177 -0.2283 -0.9573
  121OSM   H14C12737   1.542   2.151  37.240 -0.0978  0.0589  0.8724
  121OSM    C1312738   1.716   2.296  37.494  0.3938 -0.3248 -0.3784
  121OSM   H13A12739   1.693   2.395  37.456 -0.7981  0.1958  1.5732
  121OSM   H13B12740   1.819   2.274  37.469  0.5405  0.5334 -0.5605
  121OSM   H13C12741   1.706   2.311  37.600  2.5785  1.1740 -0.3134
  121OSM    C1212742   1.666   2.053  37.470  0.0709 -0.9913  0.3178
  121OSM   H12A12743   1.740   2.040  37.392 -1.0296  1.1448 -1.1866
  121OSM   H12B12744   1.588   1.985  37.439 -3.3157  2.4344  0.5767
  121OSM    C1112745   1.719   2.022  37.608 -0.2574  0.5704  0.5335
  121OSM   H11A12746   1.811   2.083  37.622  1.0516 -0.9878 -0.8766
  121OSM   H11B12747   1.744   1.914  37.610 -0.3463  0.5177 -0.5838
  121OSM      P12748   1.529   1.952  37.769 -0.0778 -0.0065  0.2160
  121OSM    O1312749   1.432   2.015  37.859  0.3309 -0.0901  0.4161
  121OSM    O1412750   1.477   1.867  37.662 -0.0090 -0.2665 -0.4592
  121OSM    O1112751   1.622   1.854  37.864 -0.6301 -0.2882 -0.0717
  121OSM    O1212752   1.624   2.059  37.709 -0.4407  0.7290 -0.2823
  121OSM    C1S12753   1.707   1.914  37.960 -0.8379  0.3506 -0.9136
  121OSM    H1S12754   1.709   2.025  37.957 -0.5697  0.4509  1.6164
  121OSM    H1T12755   1.815   1.891  37.949 -1.3223 -2.0454 -1.0890
  121OSM     NF12756   1.736   1.950  38.211 -0.3011 -0.2155  0.2942
  121OSM    HNF12757   1.813   1.902  38.251  0.4794 -1.8427 -2.8647
  121OSM    C2S12758   1.667   1.873  38.107 -0.3387 -0.0811 -0.3057
  121OSM    H2S12759   1.560   1.898  38.126 -0.4485 -1.6523  1.4504
  121OSM    C3S12760   1.674   1.717  38.130 -0.1221 -0.9309  0.2811
  121OSM    H3S12761   1.778   1.685  38.148 -0.5783 -2.5513  0.2198
  121OSM     O312762   1.638   1.639  38.015 -0.1291  0.8042  0.7062
  121OSM    HO312763   1.606   1.702  37.949 -0.3151  0.9793  0.9647
  121OSM    C4S12764   1.598   1.674  38.247 -0.1585 -0.4152 -0.2555
  121OSM    H4S12765   1.489   1.675  38.232 -0.3684  0.5682  1.1242
  121OSM    C5S12766   1.648   1.651  38.366 -0.3687  0.2669 -0.6158
  121OSM    H5S12767   1.757   1.659  38.378  0.1000 -3.1136 -1.7417
  121OSM    C6S12768   1.578   1.608  38.499  0.6151 -0.0712  0.7874
  121OSM    H6S12769   1.554   1.704  38.549  0.0203  0.6519 -0.8100
  121OSM    H6T12770   1.641   1.544  38.565 -0.0601  1.3324  2.9022
  121OSM    C7S12771   1.443   1.524  38.463 -0.0758  0.2482 -0.2437
  121OSM    H7S12772   1.461   1.438  38.395 -0.5064 -1.4528  1.6643
  121OSM    H7T12773   1.377   1.595  38.409 -0.1779  0.6710  0.4256
  121OSM    C8S12774   1.359   1.462  38.577  0.3008  0.0402 -0.1704
  121OSM    H8S12775   1.407   1.367  38.609  3.3187  1.8962  1.2106
  121OSM    H8T12776   1.258   1.442  38.533 -0.4353  1.0726  0.9910
  121OSM    C9S12777   1.351   1.560  38.698  0.1668 -0.3074 -0.5401
  121OSM    H9S12778   1.251   1.557  38.746  0.7968  1.3957  0.9987
  121OSM    H9T12779   1.346   1.663  38.656 -2.1500 -0.1310  0.0534
  121OSM   C10S12780   1.451   1.536  38.816  0.0565  0.4212 -0.1171
  121OSM   H10S12781   1.558   1.553  38.794 -0.0820  0.7579 -0.5608
  121OSM   H10T12782   1.440   1.428  38.839  3.2107  0.1423  0.5263
  121OSM   C11S12783   1.424   1.624  38.940  0.0733 -0.2578  0.2790
  121OSM   H11S12784   1.317   1.618  38.970 -0.5224  1.4337 -1.3565
  121OSM   H11T12785   1.448   1.728  38.910 -1.5495  0.2731  0.7494
  121OSM   C12S12786   1.512   1.592  39.064  0.8238 -0.8045  0.3257
  121OSM   H12S12787   1.491   1.659  39.151  1.7527 -0.3382  0.2041
  121OSM   H12T12788   1.615   1.613  39.029 -0.1880 -0.4329 -2.7498
  121OSM   C13S12789   1.519   1.446  39.115  0.2288 -0.1763  0.7454
  121OSM   H13S12790   1.591   1.435  39.198  0.5554  1.2419  0.6913
  121OSM   H13T12791   1.558   1.385  39.031 -1.9696  3.1118 -3.0641
  121OSM   C14S12792   1.382   1.373  39.131 -0.0192  0.0249  0.0241
  121OSM   H14S12793   1.390   1.264  39.153  2.3738  0.2685  0.6663
  121OSM   H14T12794   1.322   1.374  39.038 -2.8353 -0.3843  1.6950
  121OSM   C15S12795   1.292   1.429  39.241  0.7451 -0.7083  0.6517
  121OSM   H15S12796   1.190   1.387  39.228  1.2280 -1.4823 -0.7544
  121OSM   H15T12797   1.280   1.535  39.210  0.3785 -1.3853 -1.6319
  121OSM   C16S12798   1.354   1.419  39.378  1.2851  0.1606  0.1112
  121OSM   H16S12799   1.456   1.465  39.381  1.6186 -0.5305 -0.3772
  121OSM   H16T12800   1.374   1.314  39.408  0.7139  0.1886  0.6143
  121OSM   C17S12801   1.278   1.479  39.493 -0.3934 -1.0330 -0.4007
  121OSM   H17S12802   1.175   1.438  39.504 -1.1203  0.4548 -1.3963
  121OSM   H17T12803   1.260   1.585  39.465 -0.2820 -0.6411  0.9322
  121OSM   C18S12804   1.364   1.480  39.624 -0.0850 -0.1638 -0.6736
  121OSM   H18S12805   1.396   1.375  39.642  1.9939  0.2073 -1.8929
  121OSM   H18T12806   1.307   1.524  39.709  2.8378  0.9719  0.8317
  121OSM   H18U12807   1.452   1.546  39.609  0.4249 -0.9515 -1.2544
  121OSM    C1F12808   1.711   2.077  38.228  0.1363  0.0422 -0.3805
  121OSM     OF12809   1.633   2.140  38.161 -0.0174  0.4189  0.5501
  121OSM    C2F12810   1.780   2.144  38.344  0.5141 -0.7085 -0.6418
  121OSM    H2F12811   1.788   2.249  38.308 -0.5826 -0.6398 -0.7098
  121OSM    H2G12812   1.883   2.104  38.354  0.3230 -0.9219  0.6976
  121OSM    C3F12813   1.709   2.148  38.476  0.4692  0.0010 -0.1602
  121OSM    H3F12814   1.608   2.195  38.468 -0.1080 -1.1129  0.4085
  121OSM    H3G12815   1.767   2.202  38.554  3.2595  1.3870 -2.9645
  121OSM    C4F12816   1.679   2.010  38.537 -0.3445 -0.9671  0.5221
  121OSM    H4F12817   1.774   1.954  38.556 -1.6016 -3.9175 -1.0990
  121OSM    H4G12818   1.613   1.960  38.463 -2.1008  1.9571 -0.0484
  121OSM    C5F12819   1.588   2.015  38.667 -0.7170  0.4996 -0.1322
  121OSM    H5F12820   1.545   1.914  38.684  0.6791 -0.2391 -0.7678
  121OSM    H5G12821   1.516   2.098  38.649  0.0234  0.9220 -1.2756
  121OSM    C6F12822   1.670   2.044  38.792 -0.2667  0.1996  0.6197
  121OSM    H6F12823   1.693   2.153  38.789 -1.7157  0.5199  0.7071
  121OSM    H6G12824   1.768   1.992  38.782  0.5038  1.9440 -2.6486
  121OSM    C7F12825   1.600   2.012  38.922 -0.4898  0.1440  0.0112
  121OSM    H7F12826   1.679   2.039  38.995  2.3872  1.0145 -3.1511
  121OSM    H7G12827   1.578   1.904  38.932  1.4847 -0.0866  2.9156
  121OSM    C8F12828   1.469   2.093  38.945  0.6648 -0.0124 -0.0186
  121OSM    H8F12829   1.401   2.049  38.870 -0.9357 -1.6183  2.2295
  121OSM    H8G12830   1.484   2.199  38.917  1.0733  0.1058  0.6192
  121OSM    C9F12831   1.413   2.078  39.087 -0.2064 -0.3215 -0.2655
  121OSM    H9F12832   1.408   1.974  39.121  2.5065 -0.1700  0.9025
  121OSM   C10F12833   1.384   2.178  39.180  0.3600  0.4963  0.3372
  121OSM   H10F12834   1.357   2.141  39.280 -2.9576  0.2756 -0.4921
  121OSM   C11F12835   1.391   2.332  39.157  0.3763 -0.0542 -0.5499
  121OSM   H11F12836   1.346   2.348  39.057  2.6518 -2.4978 -2.0940
  121OSM   H11G12837   1.495   2.369  39.151  0.5543 -0.2502  0.9563
  121OSM   C12F12838   1.318   2.418  39.267  0.1219 -0.4879 -0.5032
  121OSM   H12F12839   1.217   2.374  39.284  1.5783 -3.8321  0.3568
  121OSM   H12G12840   1.298   2.522  39.235 -2.1503 -0.3264  1.1521
  121OSM   C13F12841   1.399   2.438  39.396  0.0998 -0.3020  0.2233
  121OSM   H13F12842   1.470   2.353  39.396  2.1578  1.3379 -0.2473
  121OSM   H13G12843   1.332   2.432  39.485 -1.3212 -0.4786 -0.8164
  121OSM   C14F12844   1.484   2.562  39.400 -0.1280  0.4875  0.7066
  121OSM   H14F12845   1.400   2.635  39.402 -1.5549 -0.9701 -1.2435
  121OSM   H14G12846   1.528   2.583  39.300 -3.0608  1.2711 -0.5440
  121OSM   C15F12847   1.583   2.571  39.515  0.0581  0.4400 -0.4285
  121OSM   H15F12848   1.662   2.494  39.499  0.2016  0.3520  0.6418
  121OSM   H15G12849   1.536   2.545  39.612  1.0752  0.9310  0.2140
  121OSM   C16F12850   1.675   2.694  39.523  0.6444 -0.8102 -0.2568
  121OSM   H16F12851   1.709   2.724  39.422  0.5372 -0.9925 -0.3454
  121OSM   H16G12852   1.762   2.668  39.587  1.9109  3.7152  0.2720
  121OSM   C17F12853   1.608   2.819  39.576  0.2027  0.1597 -0.0633
  121OSM   H17F12854   1.546   2.798  39.665  0.6349  0.2099  0.2565
  121OSM   H17G12855   1.533   2.856  39.503  0.6308 -0.2595 -0.7295
  121OSM   C18F12856   1.705   2.932  39.603  0.1696 -0.5241  0.1586
  121OSM   H18F12857   1.751   2.971  39.509 -1.2303  0.9098  0.0209
  121OSM   H18G12858   1.784   2.912  39.678 -0.0887 -1.6048  0.1555
  121OSM   H18H12859   1.638   3.012  39.638  0.6451 -0.3531  0.6878
  122OSM      N12860   0.043   0.701  37.981  0.6220  0.4392  0.1485
  122OSM    C1512861   0.002   0.739  38.124 -0.9215 -0.2289  0.3711
  122OSM   H15A12862  -0.085   0.803  38.131  0.3290  1.4032  1.8957
  122OSM   H15B12863   0.079   0.791  38.178  0.7222 -0.5269 -1.5932
  122OSM   H15C12864  -0.009   0.657  38.193  0.2783 -0.3727  0.3982
  122OSM    C1412865   0.144   0.585  37.982  0.4641 -0.1304 -0.8727
  122OSM   H14A12866   0.125   0.507  38.055 -0.0281  0.2015 -0.6426
  122OSM   H14B12867   0.236   0.631  38.014 -0.4850  2.0378 -1.0709
  122OSM   H14C12868   0.151   0.545  37.882 -1.1966 -1.0542 -0.6751
  122OSM    C1312869  -0.078   0.650  37.915 -0.1531 -0.0965 -0.5198
  122OSM   H13A12870  -0.125   0.580  37.982  1.1145  0.1468  0.6783
  122OSM   H13B12871  -0.061   0.594  37.824 -2.2251 -4.4959  1.5353
  122OSM   H13C12872  -0.152   0.722  37.882  2.1941  2.6628 -0.1517
  122OSM    C1212873   0.094   0.823  37.908 -0.3338 -0.6999  0.3768
  122OSM   H12A12874   0.028   0.905  37.930  1.0297  0.8691 -1.0645
  122OSM   H12B12875   0.076   0.805  37.803 -0.9973  2.2714 -0.1018
  122OSM    C1112876   0.233   0.867  37.957  0.7419  0.2996  0.3162
  122OSM   H11A12877   0.305   0.787  37.931  1.0096  0.6874 -0.1568
  122OSM   H11B12878   0.235   0.875  38.067 -2.0349 -0.6825  0.5068
  122OSM      P12879   0.219   1.126  37.933  0.1597  0.3978  0.1185
  122OSM    O1312880   0.298   1.226  37.865  0.1350 -0.6969  0.4959
  122OSM    O1412881   0.073   1.134  37.903 -0.6473 -0.2315 -0.4875
  122OSM    O1112882   0.244   1.133  38.088 -0.5083 -0.0879 -0.8940
  122OSM    O1212883   0.275   0.981  37.890 -0.0966 -0.4653  0.0270
  122OSM    C1S12884   0.376   1.148  38.150  0.6262  0.4442 -0.0330
  122OSM    H1S12885   0.420   1.246  38.123  2.0455 -0.5656 -1.5612
  122OSM    H1T12886   0.442   1.065  38.119 -2.1285 -1.6017 -0.8126
  122OSM     NF12887   0.484   1.160  38.381 -0.5172 -0.8581 -0.1983
  122OSM    HNF12888   0.541   1.080  38.401  1.1764  0.1629 -0.7170
  122OSM    C2S12889   0.360   1.142  38.309 -0.3744  0.1710  0.5688
  122OSM    H2S12890   0.291   1.221  38.345 -2.0505  0.2071 -2.3479
  122OSM    C3S12891   0.277   1.013  38.342 -0.2220  0.9090  0.2498
  122OSM    H3S12892   0.312   0.931  38.276  0.9806 -0.2691  2.2361
  122OSM     O312893   0.137   1.026  38.308  0.5212  0.3817  0.1987
  122OSM    HO312894   0.135   1.090  38.236  1.4588  0.3833  0.1628
  122OSM    C4S12895   0.304   0.966  38.479 -0.7809 -0.7274 -0.0772
  122OSM    H4S12896   0.400   0.915  38.492 -1.3434 -1.6512  0.5367
  122OSM    C5S12897   0.225   0.984  38.586 -0.2966 -0.5918  0.5817
  122OSM    H5S12898   0.125   1.024  38.565 -0.1206 -0.6931 -0.5165
  122OSM    C6S12899   0.261   0.938  38.724  0.2837 -0.2689  0.3635
  122OSM    H6S12900   0.187   0.858  38.746 -2.8931  2.7673  1.6864
  122OSM    H6T12901   0.232   1.014  38.800 -1.5766 -0.0413 -0.5285
  122OSM    C7S12902   0.411   0.892  38.746  0.1305  0.0900 -0.2271
  122OSM    H7S12903   0.482   0.974  38.721 -0.9765  1.1789  0.0962
  122OSM    H7T12904   0.418   0.806  38.676  0.3430 -1.4281  1.5823
  122OSM    C8S12905   0.433   0.835  38.889  0.1174 -0.1939  0.3954
  122OSM    H8S12906   0.374   0.741  38.896 -0.1146 -0.4233 -2.9656
  122OSM    H8T12907   0.396   0.910  38.962 -0.6570 -0.9442  0.7984
  122OSM    C9S12908   0.578   0.813  38.937 -0.1785  0.5719 -0.0060
  122OSM    H9S12909   0.629   0.909  38.911 -1.9378  1.7086  0.5862
  122OSM    H9T12910   0.643   0.738  38.888  0.4028  1.8465 -1.2704
  122OSM   C10S12911   0.584   0.794  39.091 -0.4783  0.4559  0.7180
  122OSM   H10S12912   0.541   0.696  39.123 -0.5473  0.5420  0.8896
  122OSM   H10T12913   0.523   0.874  39.139  1.0356  0.6276  2.4447
  122OSM   C11S12914   0.724   0.784  39.154  0.4187 -0.6143  0.6468
  122OSM   H11S12915   0.801   0.847  39.105 -2.4778  1.4303 -1.5865
  122OSM   H11T12916   0.763   0.683  39.125  0.2317 -0.1870 -1.2129
  122OSM   C12S12917   0.724   0.798  39.305 -0.3616 -0.4723  0.8075
  122OSM   H12S12918   0.642   0.742  39.355 -0.1800 -0.4949  1.0818
  122OSM   H12T12919   0.713   0.904  39.338  0.5510  0.7932 -2.5407
  122OSM   C13S12920   0.856   0.739  39.358  0.1411 -0.3359  0.1030
  122OSM   H13S12921   0.932   0.816  39.380  1.3934 -0.6268 -2.7839
  122OSM   H13T12922   0.905   0.670  39.286 -0.9968 -1.0560 -0.0122
  122OSM   C14S12923   0.848   0.654  39.486  0.8679  0.1770 -0.5698
  122OSM   H14S12924   0.805   0.553  39.470  3.3336 -0.8310 -1.2854
  122OSM   H14T12925   0.776   0.698  39.558  0.0981 -1.0179 -0.5942
  122OSM   C15S12926   0.984   0.628  39.566 -0.2181 -1.1411 -0.5415
  122OSM   H15S12927   0.959   0.617  39.674  1.0235  0.9240  0.0097
  122OSM   H15T12928   1.055   0.712  39.552 -1.1196 -0.8626 -4.4743
  122OSM   C16S12929   1.059   0.508  39.523  0.1430  0.2281  0.4649
  122OSM   H16S12930   1.105   0.532  39.425 -0.9035  0.8226  0.1069
  122OSM   H16T12931   0.987   0.425  39.511 -1.4868  1.7967 -1.2040
  122OSM   C17S12932   1.172   0.471  39.611 -0.3807 -0.4342 -0.3159
  122OSM   H17S12933   1.130   0.469  39.714 -3.2626  0.7848 -1.3428
  122OSM   H17T12934   1.252   0.548  39.610 -1.8680  1.1623 -1.0963
  122OSM   C18S12935   1.251   0.346  39.589  0.3553  0.6770  0.4020
  122OSM   H18S12936   1.190   0.258  39.617  0.6463  0.2357 -0.3484
  122OSM   H18T12937   1.348   0.360  39.643  1.9835  0.5880 -2.3362
  122OSM   H18U12938   1.264   0.320  39.482 -0.1830  3.1362 -0.3336
  122OSM    C1F12939   0.540   1.282  38.394 -0.6278  0.2061 -0.1987
  122OSM     OF12940   0.480   1.383  38.357  0.2260 -0.5473  0.1372
  122OSM    C2F12941   0.689   1.288  38.441  0.2187  0.2614 -0.2650
  122OSM    H2F12942   0.735   1.357  38.367  1.5528 -0.2157  0.0937
  122OSM    H2G12943   0.731   1.188  38.417 -0.4498  0.7289 -4.0827
  122OSM    C3F12944   0.698   1.327  38.589  0.3475 -0.0319 -0.6001
  122OSM    H3F12945   0.660   1.431  38.587 -0.8004 -0.4334 -1.6620
  122OSM    H3G12946   0.804   1.322  38.621  0.3932 -1.4923 -0.9118
  122OSM    C4F12947   0.627   1.240  38.697 -0.8808  0.3792 -0.4125
  122OSM    H4F12948   0.686   1.146  38.701 -2.1214 -0.3648  1.4256
  122OSM    H4G12949   0.520   1.217  38.674 -0.7611  0.9844 -1.6580
  122OSM    C5F12950   0.628   1.311  38.838 -0.4657  0.0449 -0.4852
  122OSM    H5F12951   0.552   1.392  38.843 -0.4259  0.0002  1.1215
  122OSM    H5G12952   0.719   1.373  38.853 -1.1432  0.2622  4.0257
  122OSM    C6F12953   0.612   1.216  38.959  0.0462  0.3873  0.3838
  122OSM    H6F12954   0.664   1.123  38.927 -0.1832  0.1514  0.6861
  122OSM    H6G12955   0.509   1.175  38.967  0.9543 -2.6193 -1.4668
  122OSM    C7F12956   0.659   1.283  39.092 -0.0704  0.6998  0.1540
  122OSM    H7F12957   0.601   1.377  39.103 -0.4103  0.6575 -1.1354
  122OSM    H7G12958   0.768   1.304  39.083  0.1004 -0.7932 -2.2841
  122OSM    C8F12959   0.643   1.196  39.213 -0.2986  1.0887 -0.0173
  122OSM    H8F12960   0.711   1.109  39.202 -1.2174  0.3230  0.2978
  122OSM    H8G12961   0.540   1.155  39.212  0.7452 -2.0843 -4.4009
  122OSM    C9F12962   0.670   1.268  39.341 -0.3525 -0.0837 -0.0460
  122OSM    H9F12963   0.588   1.339  39.359 -1.1258  0.2773 -4.1543
  122OSM   C10F12964   0.780   1.256  39.416  0.0860  0.4856  0.0142
  122OSM   H10F12965   0.780   1.322  39.504 -1.8635 -0.0402  0.4692
  122OSM   C11F12966   0.890   1.153  39.409 -0.6481  0.2680 -0.2851
  122OSM   H11F12967   0.985   1.196  39.373 -0.2479  1.2250  1.7726
  122OSM   H11G12968   0.873   1.076  39.331 -0.6481  0.3781 -0.3969
  122OSM   C12F12969   0.917   1.091  39.550 -0.3020 -0.2256  0.5835
  122OSM   H12F12970   0.979   1.159  39.612 -0.1092  0.2223 -0.0755
  122OSM   H12G12971   0.981   1.005  39.519  0.9926  1.1920 -0.8585
  122OSM   C13F12972   0.799   1.028  39.630 -0.1311  0.2611 -0.1210
  122OSM   H13F12973   0.734   0.966  39.565  1.0988 -1.3062  0.0906
  122OSM   H13G12974   0.735   1.111  39.670  0.3881  1.1917 -1.1649
  122OSM   C14F12975   0.846   0.952  39.752 -0.2140 -0.2176  0.1125
  122OSM   H14F12976   0.890   1.031  39.816 -0.6861 -0.6393  0.9776
  122OSM   H14G12977   0.931   0.889  39.720 -0.9654 -0.6677 -1.0620
  122OSM   C15F12978   0.732   0.876  39.819  1.1681 -0.1387  0.8315
  122OSM   H15F12979   0.694   0.810  39.738  0.5707  1.7376 -0.4786
  122OSM   H15G12980   0.650   0.945  39.844  0.5471 -0.9574  1.0925
  122OSM   C16F12981   0.764   0.818  39.958 -0.6311 -0.1737  0.3766
  122OSM   H16F12982   0.814   0.723  39.929  1.1297  1.5775 -2.9526
  122OSM   H16G12983   0.670   0.795  40.011 -1.1346  0.8436 -0.0417
  122OSM   C17F12984   0.854   0.903  40.055  0.6233  0.5313  0.0340
  122OSM   H17F12985   0.807   1.002  40.070  0.7980  0.8257 -1.2661
  122OSM   H17G12986   0.955   0.914  40.010  1.0622 -1.4833  0.3976
  122OSM   C18F12987   0.887   0.835  40.185  0.0086  0.8274 -0.2151
  122OSM   H18F12988   0.927   0.732  40.173 -2.2107 -0.4686  2.3880
  122OSM   H18G12989   0.803   0.823  40.257 -0.9279 -2.3306 -1.6334
  122OSM   H18H12990   0.961   0.893  40.245 -1.4920  3.0352 -0.3956
  123OSM      N12991   0.488   1.969  52.329  0.5750  0.1484  0.3018
  123OSM    C1512992   0.561   2.082  52.389 -0.0068  1.4792 -0.3682
  123OSM   H15A12993   0.658   2.088  52.342 -0.4957 -0.7228 -1.8247
  123OSM   H15B12994   0.580   2.064  52.494 -0.3058 -3.1918 -0.8891
  123OSM   H15C12995   0.519   2.179  52.365  2.5132  1.7829 -4.4704
  123OSM    C1412996   0.471   1.988  52.180  0.8334  0.0844  0.6669
  123OSM   H14A12997   0.403   2.068  52.156  0.4488 -1.2935 -3.6795
  123OSM   H14B12998   0.419   1.907  52.133 -2.1639 -0.2382  4.1270
  123OSM   H14C12999   0.560   2.015  52.124  0.2375  1.5165  0.3779
  123OSM    C1313000   0.574   1.841  52.338  0.0167 -0.1419 -0.5121
  123OSM   H13A13001   0.517   1.755  52.307  2.1730 -2.4174  1.4449
  123OSM   H13B13002   0.618   1.823  52.435 -0.3412  2.2325  0.1436
  123OSM   H13C13003   0.652   1.856  52.264 -0.8194 -0.1954 -1.4236
  123OSM    C1213004   0.344   1.957  52.391 -0.5522 -0.3585 -0.5260
  123OSM   H12A13005   0.291   2.043  52.351  1.9949  0.3686 -2.6412
  123OSM   H12B13006   0.348   1.974  52.498 -0.6238 -0.2703 -0.5351
  123OSM    C1113007   0.274   1.829  52.355  1.0821  0.8273 -0.2392
  123OSM   H11A13008   0.263   1.820  52.245  1.3724 -0.9319 -0.1513
  123OSM   H11B13009   0.170   1.842  52.392  0.3542  0.1502 -1.9475
  123OSM      P13010   0.339   1.584  52.356 -0.5135 -0.5810 -0.2249
  123OSM    O1313011   0.222   1.573  52.268 -0.3425 -0.2169 -0.1927
  123OSM    O1413012   0.469   1.579  52.287  0.2615  0.1900  0.4333
  123OSM    O1113013   0.315   1.479  52.468 -0.5704  0.4095 -0.3071
  123OSM    O1213014   0.329   1.716  52.430  0.0204 -0.0159  0.0390
  123OSM    C1S13015   0.190   1.442  52.527 -0.0903  0.1451 -0.2789
  123OSM    H1S13016   0.109   1.516  52.511  0.2511  0.9590  1.5413
  123OSM    H1T13017   0.200   1.417  52.635  1.2703  0.6535 -0.2741
  123OSM     NF13018  -0.005   1.270  52.516  0.3765 -0.3283  0.2516
  123OSM    HNF13019  -0.004   1.203  52.590  2.4490  0.7729  1.3303
  123OSM    C2S13020   0.122   1.309  52.463 -0.7915  0.2178 -0.6322
  123OSM    H2S13021   0.103   1.339  52.357 -0.9181 -1.0049 -0.9687
  123OSM    C3S13022   0.220   1.186  52.458  1.0503  1.2869 -0.6102
  123OSM    H3S13023   0.237   1.157  52.564 -1.4623 -0.0089 -0.4774
  123OSM     O313024   0.339   1.214  52.385  0.5697  0.2564 -0.2549
  123OSM    HO313025   0.335   1.306  52.359  1.6146  0.2047 -0.6615
  123OSM    C4S13026   0.147   1.063  52.399  0.4048 -0.2382  0.2020
  123OSM    H4S13027   0.052   1.078  52.346  0.8113  0.1082 -0.4420
  123OSM    C5S13028   0.158   0.938  52.449  0.7069 -0.5234 -0.6279
  123OSM    H5S13029   0.233   0.940  52.530  0.0053  0.5997  0.0406
  123OSM    C6S13030   0.070   0.813  52.445  1.4208 -0.2719 -0.3876
  123OSM    H6S13031  -0.019   0.812  52.510  1.7347 -2.2482  0.0512
  123OSM    H6T13032   0.126   0.721  52.473 -1.6374 -3.1079 -2.7604
  123OSM    C7S13033   0.016   0.801  52.301  0.7093  0.9604  0.0887
  123OSM    H7S13034  -0.045   0.892  52.281 -0.0555  1.0366  2.4411
  123OSM    H7T13035  -0.044   0.708  52.309  2.5435 -0.2083  0.7175
  123OSM    C8S13036   0.107   0.765  52.189 -0.0518 -0.9069  0.5355
  123OSM    H8S13037   0.191   0.706  52.233  0.1310 -1.8122 -0.9374
  123OSM    H8T13038   0.153   0.855  52.143 -0.0364 -1.2952 -0.2397
  123OSM    C9S13039   0.036   0.668  52.084  1.4853  0.6321  0.4715
  123OSM    H9S13040  -0.047   0.729  52.044  2.4946  2.3324  0.8320
  123OSM    H9T13041   0.004   0.583  52.148  0.9038  0.7512  0.3447
  123OSM   C10S13042   0.112   0.628  51.955  0.0829 -0.3921 -0.5326
  123OSM   H10S13043   0.211   0.602  51.999 -1.2420 -0.9739  2.3452
  123OSM   H10T13044   0.127   0.708  51.881  2.1633 -0.8235 -0.6551
  123OSM   C11S13045   0.046   0.517  51.878 -0.3629 -0.3021 -0.5474
  123OSM   H11S13046  -0.060   0.538  51.851 -1.5459 -1.1826  2.8789
  123OSM   H11T13047   0.050   0.429  51.945  1.9779 -0.6896 -1.0980
  123OSM   C12S13048   0.127   0.483  51.752  0.5484  0.3835  0.1258
  123OSM   H12S13049   0.224   0.431  51.768  1.7188  2.5288  0.4494
  123OSM   H12T13050   0.143   0.573  51.688  0.6437  2.2505  2.6197
  123OSM   C13S13051   0.052   0.391  51.654  0.4612  0.3364 -0.4492
  123OSM   H13S13052  -0.041   0.444  51.625  0.7322  1.4262  0.6238
  123OSM   H13T13053   0.021   0.297  51.704 -1.5495  2.9557  3.7906
  123OSM   C14S13054   0.128   0.357  51.527 -0.6217 -0.4459  1.5786
  123OSM   H14S13055   0.226   0.306  51.537  0.0127 -0.1864 -2.0460
  123OSM   H14T13056   0.154   0.456  51.483 -3.0129 -0.9390 -1.2963
  123OSM   C15S13057   0.039   0.283  51.422  0.3163  0.0581 -0.0205
  123OSM   H15S13058   0.106   0.258  51.337  0.0059 -1.3870  0.1281
  123OSM   H15T13059  -0.036   0.351  51.378  2.0525  1.7485 -0.5109
  123OSM   C16S13060  -0.046   0.161  51.474  0.1945 -0.3050  0.2296
  123OSM   H16S13061  -0.099   0.203  51.561 -1.5916 -2.5346  0.3079
  123OSM   H16T13062   0.027   0.091  51.520  0.0074  0.4825  1.7846
  123OSM   C17S13063  -0.140   0.084  51.371 -0.6265  0.3971 -0.4234
  123OSM   H17S13064  -0.206   0.024  51.437 -0.4482  1.5711  0.8616
  123OSM   H17T13065  -0.088   0.015  51.301 -1.2467 -0.3577 -0.1532
  123OSM   C18S13066  -0.232   0.172  51.287 -0.3852 -0.0980 -0.6862
  123OSM   H18S13067  -0.309   0.107  51.240 -0.8900  0.2468 -0.3541
  123OSM   H18T13068  -0.192   0.218  51.194 -0.2623 -1.3381 -1.2651
  123OSM   H18U13069  -0.279   0.246  51.355  2.9887 -0.5231  2.4023
  123OSM    C1F13070  -0.113   1.344  52.510  0.3585  0.6227  0.9304
  123OSM     OF13071  -0.133   1.434  52.429 -0.5694  0.3894 -0.6370
  123OSM    C2F13072  -0.221   1.306  52.609  0.9469  0.4393 -0.2419
  123OSM    H2F13073  -0.234   1.378  52.692 -1.9805 -2.5127  2.1424
  123OSM    H2G13074  -0.193   1.208  52.653 -1.4147  0.8470  2.4370
  123OSM    C3F13075  -0.352   1.269  52.531 -0.1164 -0.0303 -0.0761
  123OSM    H3F13076  -0.419   1.352  52.502 -0.3003 -0.6442 -1.5138
  123OSM    H3G13077  -0.406   1.209  52.608  0.1526 -0.2026 -0.0215
  123OSM    C4F13078  -0.337   1.167  52.421  0.1541  0.0970  0.3754
  123OSM    H4F13079  -0.269   1.080  52.434  1.4049  0.2633 -3.7605
  123OSM    H4G13080  -0.279   1.208  52.336 -0.6567  1.8546  0.6188
  123OSM    C5F13081  -0.470   1.086  52.403  0.0613  0.0921 -0.2035
  123OSM    H5F13082  -0.470   1.022  52.312  0.7397 -1.7179  1.0095
  123OSM    H5G13083  -0.561   1.150  52.401  0.3877  0.5768  0.2067
  123OSM    C6F13084  -0.494   0.966  52.508 -0.5068 -0.0953 -1.1176
  123OSM    H6F13085  -0.517   1.016  52.604 -0.9074 -2.8139  0.3133
  123OSM    H6G13086  -0.416   0.887  52.513 -2.9038 -2.5709 -0.4027
  123OSM    C7F13087  -0.625   0.890  52.493  0.1438  0.7538 -0.2497
  123OSM    H7F13088  -0.617   0.806  52.421  1.3807 -0.8587  1.6645
  123OSM    H7G13089  -0.690   0.962  52.439  1.4991  2.6677  0.5569
  123OSM    C8F13090  -0.701   0.845  52.617 -0.2879  0.6289  1.1903
  123OSM    H8F13091  -0.795   0.804  52.575  0.1243 -1.1052  1.8621
  123OSM    H8G13092  -0.732   0.924  52.688  1.6168  1.0722  1.5850
  123OSM    C9F13093  -0.651   0.725  52.693  0.1908 -0.9488 -0.2726
  123OSM    H9F13094  -0.597   0.649  52.635 -0.5421  0.4497 -2.9610
  123OSM   C10F13095  -0.640   0.719  52.825 -0.4680  0.5558  0.1660
  123OSM   H10F13096  -0.596   0.626  52.866  0.1422  1.6457  2.1132
  123OSM   C11F13097  -0.675   0.812  52.935  0.8409  0.3204  0.1508
  123OSM   H11F13098  -0.785   0.825  52.948  0.4069 -1.7442 -0.9906
  123OSM   H11G13099  -0.637   0.912  52.906  6.0489 -1.1957  0.8469
  123OSM   C12F13100  -0.582   0.780  53.057 -0.1339  0.7449  0.6911
  123OSM   H12F13101  -0.477   0.795  53.024 -0.0696 -0.8794  0.0520
  123OSM   H12G13102  -0.574   0.670  53.074  0.1821  0.6190 -0.2244
  123OSM   C13F13103  -0.599   0.852  53.184  0.5269 -0.7040  0.1983
  123OSM   H13F13104  -0.705   0.833  53.213 -0.7815  1.3637 -2.6701
  123OSM   H13G13105  -0.585   0.961  53.166  1.5303 -0.4645  2.1855
  123OSM   C14F13106  -0.518   0.790  53.291 -0.0696 -0.6022  0.1921
  123OSM   H14F13107  -0.408   0.802  53.293  0.4439 -4.2702  2.5310
  123OSM   H14G13108  -0.537   0.681  53.298 -4.5762 -0.3969 -3.7687
  123OSM   C15F13109  -0.527   0.854  53.432  0.8427  0.3825  0.0246
  123OSM   H15F13110  -0.620   0.819  53.480 -0.2242  2.1842 -0.6423
  123OSM   H15G13111  -0.517   0.964  53.428  2.5418  0.2537 -0.2086
  123OSM   C16F13112  -0.410   0.809  53.529  0.0231  0.4371 -0.6813
  123OSM   H16F13113  -0.317   0.863  53.502 -0.8772  2.0258 -0.6862
  123OSM   H16G13114  -0.392   0.699  53.526  0.1367  0.3859  1.2066
  123OSM   C17F13115  -0.440   0.844  53.674  0.0279 -0.8102 -0.1510
  123OSM   H17F13116  -0.479   0.948  53.675  0.5411 -0.6171  1.2191
  123OSM   H17G13117  -0.345   0.856  53.730 -0.0547 -1.9091  0.2498
  123OSM   C18F13118  -0.524   0.760  53.758  0.5986  1.5664  0.3540
  123OSM   H18F13119  -0.563   0.816  53.845 -2.4168  3.7422 -2.1443
  123OSM   H18G13120  -0.475   0.661  53.768  0.1004  1.1755 -0.8136
  123OSM   H18H13121  -0.626   0.744  53.716  0.6704 -1.2480  1.0059
  124OSM      N13122   0.881   1.041  52.967  0.4095  0.7622 -0.3191
  124OSM    C1513123   0.880   1.078  53.118  0.7730 -0.9555 -0.0050
  124OSM   H15A13124   0.964   1.138  53.149 -0.4138 -0.3772  2.3278
  124OSM   H15B13125   0.882   0.999  53.191  2.6075 -1.7407 -0.8560
  124OSM   H15C13126   0.784   1.123  53.142  1.0422  0.5765 -1.5819
  124OSM    C1413127   0.761   0.955  52.948 -0.5195 -0.0018 -0.6384
  124OSM   H14A13128   0.749   0.856  52.990 -0.4245  0.2614  0.0247
  124OSM   H14B13129   0.748   0.957  52.841  3.2649 -0.9963 -1.2753
  124OSM   H14C13130   0.674   1.010  52.980  0.5323  2.4791 -1.7861
  124OSM    C1313131   0.856   1.159  52.883 -0.5739  0.4498 -0.8453
  124OSM   H13A13132   0.779   1.141  52.809 -0.3697 -1.3135 -0.6780
  124OSM   H13B13133   0.942   1.184  52.822  0.0408 -0.6385 -0.4611
  124OSM   H13C13134   0.851   1.249  52.942  1.6088 -0.6481  1.1712
  124OSM    C1213135   1.005   0.960  52.936  0.2907 -0.8705  0.4638
  124OSM   H12A13136   0.986   0.908  52.843  0.2334  0.7036 -0.4459
  124OSM   H12B13137   1.008   0.881  53.010 -0.1109 -0.8019  0.5538
  124OSM    C1113138   1.129   1.048  52.925  0.0395 -0.2046  0.9253
  124OSM   H11A13139   1.113   1.118  52.840 -0.3464 -0.7442  0.5468
  124OSM   H11B13140   1.213   0.981  52.896  0.3642 -0.5643  2.5992
  124OSM      P13141   1.283   1.229  53.036 -0.0856  0.2546  0.0985
  124OSM    O1313142   1.262   1.350  53.118  0.3537 -0.0254 -0.5270
  124OSM    O1413143   1.410   1.148  53.055  0.4035  0.5213  0.1198
  124OSM    O1113144   1.279   1.282  52.886 -0.2043  0.0956 -0.0123
  124OSM    O1213145   1.162   1.126  53.042 -0.1030  0.0099  0.1602
  124OSM    C1S13146   1.352   1.402  52.855 -0.5358  0.4364 -0.3744
  124OSM    H1S13147   1.361   1.473  52.940  0.8858 -0.9972  0.7174
  124OSM    H1T13148   1.311   1.459  52.768 -0.8527  1.3552  0.3514
  124OSM     NF13149   1.593   1.494  52.816  0.5930 -0.0964 -0.5884
  124OSM    HNF13150   1.608   1.529  52.724 -0.6710  6.2381  1.0934
  124OSM    C2S13151   1.504   1.375  52.826 -0.4297 -0.1108 -0.0030
  124OSM    H2S13152   1.545   1.316  52.911 -0.8548 -2.5405 -1.3792
  124OSM    C3S13153   1.517   1.281  52.698 -0.0526  0.8950 -0.2822
  124OSM    H3S13154   1.476   1.337  52.611 -1.4858 -0.6874 -0.6639
  124OSM     O313155   1.430   1.169  52.709 -0.0231 -0.0697  0.6257
  124OSM    HO313156   1.365   1.200  52.773 -2.6982 -0.4267 -1.7249
  124OSM    C4S13157   1.655   1.233  52.675 -0.9006 -0.3515 -1.4528
  124OSM    H4S13158   1.685   1.155  52.748  0.6091  1.4954  0.0208
  124OSM    C5S13159   1.739   1.278  52.580 -0.1929 -1.0696  0.3792
  124OSM    H5S13160   1.704   1.363  52.520 -0.2531 -0.4474  1.2622
  124OSM    C6S13161   1.887   1.261  52.571  0.0914 -0.3580  0.6987
  124OSM    H6S13162   1.942   1.349  52.530 -1.4300  1.0977  1.6809
  124OSM    H6T13163   1.906   1.182  52.495  1.4690  1.2526 -0.7255
  124OSM    C7S13164   1.952   1.207  52.694 -0.4118 -0.1659 -0.3538
  124OSM    H7S13165   2.057   1.178  52.670 -0.4412 -0.2738 -0.3509
  124OSM    H7T13166   1.907   1.114  52.734 -1.9023  0.1095 -1.3366
  124OSM    C8S13167   1.948   1.321  52.794  0.2569 -1.1525  0.7342
  124OSM    H8S13168   1.861   1.307  52.861 -0.2981 -2.5369 -0.2450
  124OSM    H8T13169   1.939   1.424  52.753 -1.8271  0.5403  4.8838
  124OSM    C9S13170   2.070   1.330  52.879  0.4214 -1.2757  0.1789
  124OSM    H9S13171   2.076   1.433  52.921 -1.5691 -0.2906 -1.7321
  124OSM    H9T13172   2.157   1.314  52.812  1.1611  0.2198  0.7248
  124OSM   C10S13173   2.077   1.231  52.998 -0.5294  0.1294 -0.6752
  124OSM   H10S13174   2.176   1.258  53.041 -1.5746  1.9520  0.7782
  124OSM   H10T13175   2.075   1.129  52.955 -1.4481  1.3958 -4.0054
  124OSM   C11S13176   1.979   1.240  53.116  0.2919 -0.0719 -0.4646
  124OSM   H11S13177   1.990   1.140  53.162 -1.0493 -0.7383 -1.5227
  124OSM   H11T13178   1.879   1.240  53.067  1.5916  2.1906 -3.4090
  124OSM   C12S13179   1.989   1.360  53.207 -0.2100 -0.2547 -1.1614
  124OSM   H12S13180   1.967   1.448  53.143 -1.4660 -1.2484 -2.1401
  124OSM   H12T13181   2.088   1.348  53.258 -2.2804 -0.9333  3.1663
  124OSM   C13S13182   1.889   1.363  53.323 -0.9090  0.0956  0.4678
  124OSM   H13S13183   1.928   1.296  53.402  1.7133 -0.4810 -1.1596
  124OSM   H13T13184   1.799   1.312  53.283  0.3155 -3.4961  1.9060
  124OSM   C14S13185   1.865   1.498  53.389 -0.0909 -0.2635 -0.3941
  124OSM   H14S13186   1.786   1.553  53.334 -0.2700  1.9776  1.9029
  124OSM   H14T13187   1.957   1.558  53.371 -1.1420  1.9083  1.0244
  124OSM   C15S13188   1.849   1.480  53.543 -0.2401 -0.1875 -0.0803
  124OSM   H15S13189   1.928   1.411  53.580 -0.1461  0.2115  0.4837
  124OSM   H15T13190   1.757   1.421  53.565 -1.3692  0.5166 -2.6009
  124OSM   C16S13191   1.862   1.613  53.619  0.0105  0.0532  0.2054
  124OSM   H16S13192   1.768   1.664  53.588 -0.8575 -0.4419  1.9168
  124OSM   H16T13193   1.948   1.673  53.584 -0.5185  2.2353  2.3942
  124OSM   C17S13194   1.846   1.603  53.774 -0.0086  0.3936 -0.4175
  124OSM   H17S13195   1.932   1.549  53.819  1.0194  3.4758  1.6717
  124OSM   H17T13196   1.753   1.544  53.789 -2.5975  4.1125 -0.4295
  124OSM   C18S13197   1.831   1.736  53.845 -0.0663  0.5184  0.0638
  124OSM   H18S13198   1.930   1.786  53.852  0.3948 -0.5247  1.3115
  124OSM   H18T13199   1.796   1.714  53.948  0.6717  1.3152  0.5060
  124OSM   H18U13200   1.762   1.798  53.784 -1.4985  0.0003  1.1142
  124OSM    C1F13201   1.619   1.568  52.913  0.7175 -0.5398 -0.8971
  124OSM     OF13202   1.562   1.550  53.030 -0.5836  0.4467  1.1885
  124OSM    C2F13203   1.701   1.684  52.892 -0.1971  0.2406  0.7051
  124OSM    H2F13204   1.636   1.767  52.856 -2.5288 -1.0267  1.7786
  124OSM    H2G13205   1.776   1.676  52.811  0.3332 -0.2858  1.2436
  124OSM    C3F13206   1.799   1.709  53.014 -0.1083 -0.6789 -0.3788
  124OSM    H3F13207   1.897   1.734  52.968 -1.1169  5.4581  0.0246
  124OSM    H3G13208   1.821   1.616  53.070 -0.7670 -1.9657 -2.1397
  124OSM    C4F13209   1.760   1.823  53.115  0.1006  0.3710 -0.1012
  124OSM    H4F13210   1.662   1.797  53.160  0.5538 -0.9981  0.1509
  124OSM    H4G13211   1.742   1.917  53.060 -0.2784  0.3207 -0.0609
  124OSM    C5F13212   1.869   1.846  53.228  0.5381 -0.3474  0.8670
  124OSM    H5F13213   1.958   1.893  53.181  0.7024 -0.7376  0.7767
  124OSM    H5G13214   1.897   1.740  53.250  0.7387 -0.4845 -0.0072
  124OSM    C6F13215   1.818   1.903  53.359  0.4848 -0.5782  0.1936
  124OSM    H6F13216   1.738   1.831  53.388 -2.1543  0.1895 -4.2140
  124OSM    H6G13217   1.770   1.998  53.327  0.1508 -1.0284 -0.6654
  124OSM    C7F13218   1.922   1.913  53.475 -0.2469  0.6080  0.6943
  124OSM    H7F13219   1.980   1.819  53.463 -0.8850  0.5267 -3.1337
  124OSM    H7G13220   1.860   1.913  53.566  0.7110 -1.5076  1.4114
  124OSM    C8F13221   2.013   2.035  53.442  0.0773 -0.0420 -0.9821
  124OSM    H8F13222   2.044   2.014  53.338 -0.1348  1.6090 -1.4082
  124OSM    H8G13223   2.102   2.032  53.508 -0.0058  0.3318 -0.8491
  124OSM    C9F13224   1.956   2.171  53.451 -0.7541  0.0497 -0.2990
  124OSM    H9F13225   1.885   2.190  53.368 -0.4926  1.5170 -0.2115
  124OSM   C10F13226   1.988   2.271  53.538  0.2451  0.0948 -0.5633
  124OSM   H10F13227   1.933   2.366  53.540  0.6856  0.3550  1.2936
  124OSM   C11F13228   2.063   2.252  53.670 -0.4783  1.5115  0.1726
  124OSM   H11F13229   2.088   2.342  53.731  0.5055  0.6715  1.0371
  124OSM   H11G13230   2.164   2.210  53.648 -0.4457  1.0537  1.1465
  124OSM   C12F13231   2.009   2.146  53.773  0.5993 -0.7221 -0.2137
  124OSM   H12F13232   2.039   2.042  53.747  0.8268 -0.6738 -0.1500
  124OSM   H12G13233   1.898   2.145  53.773  0.5996 -0.7971 -0.2919
  124OSM   C13F13234   2.073   2.167  53.922 -1.2868  0.4882  0.2702
  124OSM   H13F13235   2.075   2.276  53.939  1.7013  1.2866 -3.5847
  124OSM   H13G13236   2.178   2.143  53.895 -0.8494  0.2967  2.0097
  124OSM   C14F13237   2.021   2.071  54.033  0.3900  0.3837  0.9058
  124OSM   H14F13238   2.022   1.964  54.002 -2.0590  0.7535 -0.7225
  124OSM   H14G13239   1.913   2.092  54.044  0.6154  1.0505  1.9002
  124OSM   C15F13240   2.102   2.080  54.163  0.3503 -0.5655  0.0523
  124OSM   H15F13241   2.099   2.184  54.201  1.8352 -0.2057 -0.7546
  124OSM   H15G13242   2.211   2.063  54.148  0.8275  1.3936  1.0168
  124OSM   C16F13243   2.023   1.989  54.257  0.4554  0.2236 -0.5448
  124OSM   H16F13244   2.024   1.884  54.219 -0.8337  0.5385 -1.5024
  124OSM   H16G13245   1.919   2.025  54.261 -0.9345 -3.0215 -2.6820
  124OSM   C17F13246   2.083   1.992  54.399  0.4883  0.3039 -0.3857
  124OSM   H17F13247   2.069   2.096  54.437  1.1770  0.1014  0.4523
  124OSM   H17G13248   2.192   1.979  54.383  0.6317  0.9597  0.0013
  124OSM   C18F13249   2.049   1.886  54.498  0.1495  0.0181 -0.9027
  124OSM   H18F13250   2.094   1.787  54.474  0.3656 -0.0273 -0.3234
  124OSM   H18G13251   1.939   1.871  54.509  0.3374  0.4786  2.2958
  124OSM   H18H13252   2.076   1.921  54.599 -0.4781  2.0120 -1.3743
  125OSM      N13253   2.399   0.790  41.318 -0.2176  0.0606  0.0887
  125OSM    C1513254   2.304   0.670  41.339  0.2192  0.1224  0.4692
  125OSM   H15A13255   2.205   0.706  41.364 -0.1474 -1.5444  1.6064
  125OSM   H15B13256   2.349   0.604  41.411  2.1197  0.1734 -0.6154
  125OSM   H15C13257   2.290   0.612  41.248  1.3845  0.7981 -0.1537
  125OSM    C1413258   2.538   0.742  41.304  0.0173 -0.5467  0.3902
  125OSM   H14A13259   2.578   0.681  41.383 -0.3085 -3.2159 -1.3441
  125OSM   H14B13260   2.602   0.826  41.284 -0.2327 -0.5155 -0.3251
  125OSM   H14C13261   2.543   0.687  41.210 -1.0300  0.4836 -0.2915
  125OSM    C1313262   2.352   0.862  41.200  0.2224 -0.1728 -0.5783
  125OSM   H13A13263   2.267   0.915  41.240  2.7751  1.6126  3.0683
  125OSM   H13B13264   2.330   0.795  41.119  0.1586 -1.0816  0.1683
  125OSM   H13C13265   2.429   0.927  41.164  0.9725 -0.6917  0.0434
  125OSM    C1213266   2.399   0.879  41.441 -0.0057 -0.3232  0.0313
  125OSM   H12A13267   2.296   0.888  41.474 -0.1800  0.3381 -0.6681
  125OSM   H12B13268   2.446   0.970  41.407 -0.5585 -0.0840 -0.1149
  125OSM    C1113269   2.470   0.834  41.578 -0.4817 -0.0685 -0.1115
  125OSM   H11A13270   2.467   0.927  41.639 -2.5811  3.4503 -4.8409
  125OSM   H11B13271   2.579   0.820  41.560 -0.6989 -0.3627 -1.3168
  125OSM      P13272   2.274   0.716  41.702 -0.0166 -0.0649 -0.0993
  125OSM    O1313273   2.213   0.847  41.683  0.2848  0.3444 -0.4436
  125OSM    O1413274   2.184   0.612  41.658  0.0047  0.1560  0.2895
  125OSM    O1113275   2.303   0.695  41.853  0.1150 -0.8996 -1.0119
  125OSM    O1213276   2.414   0.708  41.633 -0.2995  0.5267 -0.0108
  125OSM    C1S13277   2.411   0.767  41.920 -0.5561  0.3638 -0.3710
  125OSM    H1S13278   2.508   0.768  41.866  0.0886  2.1341  0.7336
  125OSM    H1T13279   2.439   0.726  42.020 -0.0344  0.3594 -0.5162
  125OSM     NF13280   2.473   0.977  42.032  0.2382 -0.7066 -0.2397
  125OSM    HNF13281   2.453   1.003  42.126 -0.6189 -0.7485 -0.4001
  125OSM    C2S13282   2.365   0.908  41.959  0.2638 -0.8435  0.1509
  125OSM    H2S13283   2.364   0.979  41.874  1.0726  1.8110  2.2044
  125OSM    C3S13284   2.232   0.913  42.034  0.1452  0.4283  0.8037
  125OSM    H3S13285   2.248   0.901  42.143  1.3670  1.3153  0.7393
  125OSM     O313286   2.133   0.818  41.996 -0.2775 -0.2250  0.1916
  125OSM    HO313287   2.180   0.755  41.941 -0.0408 -0.7107  0.9326
  125OSM    C4S13288   2.185   1.052  42.020  0.7070 -0.0703 -0.2412
  125OSM    H4S13289   2.217   1.129  42.092 -0.9957  0.1708  0.3012
  125OSM    C5S13290   2.120   1.090  41.911 -0.1759  0.2067 -0.4975
  125OSM    H5S13291   2.100   1.015  41.832 -0.4686  0.0436 -0.2692
  125OSM    C6S13292   2.086   1.237  41.873 -0.8044 -0.6653 -0.3883
  125OSM    H6S13293   1.977   1.253  41.883 -0.7640 -0.8135  0.2919
  125OSM    H6T13294   2.136   1.250  41.774  2.4450  1.1316  1.2951
  125OSM    C7S13295   2.158   1.344  41.963 -0.7456  0.2082  0.7321
  125OSM    H7S13296   2.268   1.332  41.956 -0.6484  1.2446  0.3142
  125OSM    H7T13297   2.123   1.333  42.068 -0.9005 -2.1798  0.4871
  125OSM    C8S13298   2.139   1.487  41.913  0.2831  0.8195 -0.4481
  125OSM    H8S13299   2.187   1.564  41.977  0.4691  1.4419 -1.3148
  125OSM    H8T13300   2.030   1.507  41.902 -0.5550 -3.0664 -0.6464
  125OSM    C9S13301   2.201   1.511  41.786  0.2432 -0.4315 -0.4942
  125OSM    H9S13302   2.161   1.450  41.703 -0.8441  0.2577 -0.4976
  125OSM    H9T13303   2.311   1.495  41.792  0.6775  1.9788 -0.7795
  125OSM   C10S13304   2.187   1.657  41.742 -1.3511  0.0886  0.2190
  125OSM   H10S13305   2.251   1.708  41.817  1.4279 -2.5771 -0.1652
  125OSM   H10T13306   2.081   1.692  41.738 -1.1593  0.5970 -0.4668
  125OSM   C11S13307   2.250   1.678  41.599 -0.5106 -0.8619 -0.7024
  125OSM   H11S13308   2.220   1.598  41.528  0.7985 -1.1237 -0.9737
  125OSM   H11T13309   2.360   1.674  41.607 -0.1722  1.0662 -3.2864
  125OSM   C12S13310   2.226   1.815  41.537 -0.1173 -0.0260  0.1345
  125OSM   H12S13311   2.118   1.836  41.520 -0.5495 -1.6736  0.5947
  125OSM   H12T13312   2.273   1.821  41.437  0.5222  2.5746  0.5346
  125OSM   C13S13313   2.295   1.923  41.626  0.1441  0.1647  0.4974
  125OSM   H13S13314   2.400   1.889  41.641  0.5153  0.0615 -1.9495
  125OSM   H13T13315   2.246   1.922  41.726  1.7339 -0.1402  1.3146
  125OSM   C14S13316   2.303   2.068  41.567 -0.0214  1.0685  0.2431
  125OSM   H14S13317   2.361   2.119  41.647  2.6183  0.2666 -1.0286
  125OSM   H14T13318   2.202   2.110  41.548  0.6402  2.1620 -1.0166
  125OSM   C15S13319   2.362   2.074  41.424 -0.3591  0.2773 -1.2614
  125OSM   H15S13320   2.363   2.185  41.413 -6.2223  0.8841  0.7222
  125OSM   H15T13321   2.281   2.043  41.355  0.3703 -0.1852 -1.9316
  125OSM   C16S13322   2.502   2.006  41.403 -0.1496 -0.1534 -0.4596
  125OSM   H16S13323   2.478   1.898  41.403  2.2551 -0.7354 -0.6302
  125OSM   H16T13324   2.568   2.035  41.487 -0.5896 -1.1450  0.2378
  125OSM   C17S13325   2.556   2.054  41.271 -0.1203 -0.3063  0.4193
  125OSM   H17S13326   2.539   2.164  41.268 -0.0101 -0.3128 -0.4849
  125OSM   H17T13327   2.495   2.002  41.195  1.5791 -1.8368  0.0596
  125OSM   C18S13328   2.714   2.036  41.250  0.0525  0.5277 -0.7886
  125OSM   H18S13329   2.728   1.926  41.258  0.0068  0.6777  3.1151
  125OSM   H18T13330   2.769   2.078  41.337  0.4670 -1.4779 -0.0155
  125OSM   H18U13331   2.744   2.075  41.151  2.3869 -1.8227 -1.1259
  125OSM    C1F13332   2.591   1.003  41.982  0.2185  0.8335 -1.1518
  125OSM     OF13333   2.623   0.973  41.866  0.2535  0.0258 -0.2225
  125OSM    C2F13334   2.691   1.045  42.083 -0.0639 -0.0636  0.0322
  125OSM    H2F13335   2.775   0.976  42.061 -0.1347 -0.1951  0.1685
  125OSM    H2G13336   2.654   1.029  42.186 -0.7332  3.8717  0.5660
  125OSM    C3F13337   2.708   1.193  42.072 -0.1035 -0.4425 -0.7888
  125OSM    H3F13338   2.767   1.223  42.161 -0.9771 -3.1595  0.7952
  125OSM    H3G13339   2.608   1.240  42.069 -0.5152 -1.2171  0.3654
  125OSM    C4F13340   2.784   1.243  41.956  0.1624 -0.3039 -0.2198
  125OSM    H4F13341   2.726   1.235  41.862  0.3130  0.9513 -0.4387
  125OSM    H4G13342   2.874   1.180  41.941 -0.8754 -1.5090 -1.5879
  125OSM    C5F13343   2.833   1.382  41.973 -1.1680  0.3631 -0.0875
  125OSM    H5F13344   2.883   1.415  41.879 -1.0943  2.3119  0.5786
  125OSM    H5G13345   2.908   1.405  42.052 -2.7082 -0.8896  1.8144
  125OSM    C6F13346   2.725   1.497  41.983  0.5402  0.5999  0.2581
  125OSM    H6F13347   2.766   1.582  42.043  0.9333  1.9150 -1.7974
  125OSM    H6G13348   2.642   1.446  42.038  3.1855 -2.4454  1.7835
  125OSM    C7F13349   2.659   1.550  41.858 -0.6790 -0.4106  0.5412
  125OSM    H7F13350   2.575   1.613  41.893 -1.1320  0.8761 -2.5376
  125OSM    H7G13351   2.619   1.467  41.796 -0.6756 -1.5901  2.0546
  125OSM    C8F13352   2.742   1.640  41.766  0.3618  0.2221 -0.0554
  125OSM    H8F13353   2.829   1.593  41.714 -0.3420 -0.2821 -0.8016
  125OSM    H8G13354   2.786   1.714  41.836 -1.8828  0.7729  0.8628
  125OSM    C9F13355   2.665   1.701  41.651  0.2567  0.2227 -0.4608
  125OSM    H9F13356   2.592   1.774  41.689 -1.2849 -0.8117 -1.3333
  125OSM   C10F13357   2.666   1.679  41.514 -1.0258  0.5040  0.3174
  125OSM   H10F13358   2.600   1.743  41.454  1.0014  1.8918 -0.5359
  125OSM   C11F13359   2.750   1.571  41.449 -1.1699 -0.6507  0.0501
  125OSM   H11F13360   2.690   1.511  41.377  0.2083 -0.4339 -1.3339
  125OSM   H11G13361   2.810   1.511  41.521 -0.5677 -0.6826 -0.4690
  125OSM   C12F13362   2.843   1.637  41.354 -0.0933  0.3561  0.1074
  125OSM   H12F13363   2.917   1.701  41.407  2.9712 -2.0262 -1.0267
  125OSM   H12G13364   2.785   1.694  41.278  0.6771  2.0967  0.7739
  125OSM   C13F13365   2.936   1.551  41.266  0.3853 -0.7344  0.0278
  125OSM   H13F13366   2.872   1.469  41.227 -2.2917 -0.6426  3.6872
  125OSM   H13G13367   3.011   1.496  41.327 -0.1701 -0.2679  1.1560
  125OSM   C14F13368   3.011   1.629  41.162 -0.3603 -0.3219  0.6581
  125OSM   H14F13369   3.112   1.584  41.154 -0.2865  0.0667 -0.9635
  125OSM   H14G13370   3.027   1.730  41.207  2.1349 -1.1717  1.8525
  125OSM   C15F13371   2.957   1.630  41.018  1.3713 -0.0850 -0.2116
  125OSM   H15F13372   2.848   1.650  41.026  1.2363 -0.9818  0.2842
  125OSM   H15G13373   2.977   1.532  40.971 -3.4189 -1.1493 -0.5383
  125OSM   C16F13374   3.019   1.734  40.922  0.3854 -0.2774  0.5041
  125OSM   H16F13375   3.124   1.707  40.899  0.6399  1.2825 -0.2703
  125OSM   H16G13376   3.034   1.825  40.985 -0.4823 -0.1790  0.5801
  125OSM   C17F13377   2.945   1.735  40.793 -0.3122 -0.3949 -0.5752
  125OSM   H17F13378   2.843   1.777  40.797 -0.3345 -0.5051  0.1279
  125OSM   H17G13379   2.940   1.629  40.760 -1.8265 -0.1572 -1.1725
  125OSM   C18F13380   3.030   1.807  40.688 -0.0370 -1.1461 -0.1320
  125OSM   H18F13381   2.954   1.812  40.607 -1.6343 -4.2006  1.0384
  125OSM   H18G13382   3.120   1.751  40.653  0.7434 -0.3328  0.5172
  125OSM   H18H13383   3.048   1.910  40.725  0.9394 -1.4772  0.3525
  126OSM      N13384   0.350   1.571  51.884  0.4214 -0.5647 -0.9526
  126OSM    C1513385   0.209   1.542  51.846 -0.6277 -0.3441  0.2320
  126OSM   H15A13386   0.204   1.475  51.761 -1.1046 -0.8942  0.6870
  126OSM   H15B13387   0.166   1.635  51.811  0.4689  0.8403  1.8880
  126OSM   H15C13388   0.171   1.504  51.940  3.8588 -1.7512  1.7209
  126OSM    C1413389   0.335   1.658  52.006 -0.7836 -0.2036  0.1120
  126OSM   H14A13390   0.301   1.614  52.098 -0.1390 -0.6071  0.1543
  126OSM   H14B13391   0.278   1.744  51.973  0.1732  0.7058  0.7683
  126OSM   H14C13392   0.434   1.695  52.027 -0.6339  0.4501 -1.5776
  126OSM    C1313393   0.410   1.443  51.931 -0.1068 -0.2024  0.8655
  126OSM   H13A13394   0.330   1.383  51.969 -2.4303 -0.0752 -3.2025
  126OSM   H13B13395   0.498   1.457  51.993 -0.4305  0.5144  1.1733
  126OSM   H13C13396   0.444   1.391  51.842 -1.5374  1.6941 -0.8793
  126OSM    C1213397   0.439   1.639  51.780 -0.2836 -0.1899 -0.4452
  126OSM   H12A13398   0.461   1.564  51.706 -0.1124 -0.0757 -0.5089
  126OSM   H12B13399   0.532   1.672  51.823  0.8346  0.2730 -3.0215
  126OSM    C1113400   0.370   1.756  51.710 -0.4123 -0.6627  0.2916
  126OSM   H11A13401   0.277   1.719  51.662 -1.5792  1.4339  0.8007
  126OSM   H11B13402   0.430   1.789  51.623 -0.6724  0.4323  0.5088
  126OSM      P13403   0.439   1.990  51.806  0.1731  0.2532 -0.4424
  126OSM    O1313404   0.391   2.091  51.902 -0.4742 -0.4964 -0.1881
  126OSM    O1413405   0.579   1.943  51.830  0.5684 -0.3467 -0.5353
  126OSM    O1113406   0.421   2.047  51.654 -0.3885 -0.0601  0.0055
  126OSM    O1213407   0.343   1.860  51.808 -0.5078  0.3722  0.5690
  126OSM    C1S13408   0.293   2.083  51.601 -0.0248 -0.3820 -0.9064
  126OSM    H1S13409   0.213   2.087  51.678  1.0155 -3.1261  0.4337
  126OSM    H1T13410   0.266   1.993  51.542 -0.0796  0.9266 -2.9584
  126OSM     NF13411   0.177   2.253  51.495  0.0995 -0.5049 -0.4313
  126OSM    HNF13412   0.120   2.239  51.414  0.8146 -2.5552 -0.6485
  126OSM    C2S13413   0.312   2.201  51.512  0.6544 -1.0803 -0.0963
  126OSM    H2S13414   0.367   2.287  51.555 -1.1252  1.0319 -1.7718
  126OSM    C3S13415   0.376   2.157  51.377  0.2388 -0.4060 -0.5456
  126OSM    H3S13416   0.321   2.074  51.328 -1.6738  0.1665  0.4890
  126OSM     O313417   0.505   2.096  51.395  0.7659 -0.1212  0.2624
  126OSM    HO313418   0.506   2.063  51.485  3.9505 -0.2666  0.2760
  126OSM    C4S13419   0.387   2.279  51.277 -0.4346 -0.0005 -0.9562
  126OSM    H4S13420   0.437   2.367  51.320 -1.1334  1.0604 -2.2433
  126OSM    C5S13421   0.341   2.282  51.148  0.2468 -0.1380 -0.0018
  126OSM    H5S13422   0.284   2.197  51.107 -1.6377  0.2850  1.5639
  126OSM    C6S13423   0.394   2.392  51.052 -0.0705  0.6916  0.3468
  126OSM    H6S13424   0.445   2.470  51.110  0.8444  0.6383 -0.3676
  126OSM    H6T13425   0.308   2.441  51.001 -0.3170  0.8813  0.9413
  126OSM    C7S13426   0.504   2.324  50.957 -0.1630 -0.7724  0.5029
  126OSM    H7S13427   0.473   2.224  50.921  0.9739 -0.8580 -0.2858
  126OSM    H7T13428   0.595   2.314  51.019 -1.0410  0.4245  2.0735
  126OSM    C8S13429   0.545   2.416  50.840  0.8002  0.3848 -0.2657
  126OSM    H8S13430   0.651   2.396  50.812  1.5686  2.4012  0.9906
  126OSM    H8T13431   0.548   2.519  50.881 -3.5361  0.3578  0.5685
  126OSM    C9S13432   0.460   2.421  50.720 -1.0493 -0.4483  0.9109
  126OSM    H9S13433   0.513   2.476  50.640 -1.5384  0.5821  1.2668
  126OSM    H9T13434   0.364   2.477  50.725  0.6354  2.6184  1.0422
  126OSM   C10S13435   0.431   2.287  50.657  0.2427 -0.9333 -0.6162
  126OSM   H10S13436   0.361   2.233  50.725 -0.3698  1.8078  1.0911
  126OSM   H10T13437   0.512   2.213  50.672  0.8432  0.0369  1.3169
  126OSM   C11S13438   0.380   2.285  50.514 -0.1211  0.1378 -0.4184
  126OSM   H11S13439   0.466   2.287  50.444 -0.6071 -0.0047 -1.0388
  126OSM   H11T13440   0.320   2.378  50.504  1.7565  1.3897 -0.5802
  126OSM   C12S13441   0.286   2.167  50.490  0.2641 -0.2892  0.4550
  126OSM   H12S13442   0.206   2.181  50.414 -0.1142  0.5871  0.9872
  126OSM   H12T13443   0.230   2.129  50.578  0.4913  1.2388  1.2929
  126OSM   C13S13444   0.363   2.052  50.424  0.3853  0.0313  0.5639
  126OSM   H13S13445   0.460   2.044  50.477 -0.7867 -1.9174  2.5652
  126OSM   H13T13446   0.373   2.084  50.318 -0.2101  0.8188  0.7314
  126OSM   C14S13447   0.291   1.912  50.427 -0.0211 -0.4600 -0.3090
  126OSM   H14S13448   0.200   1.927  50.367  0.2212  0.3694 -0.4727
  126OSM   H14T13449   0.263   1.881  50.530 -0.2771 -0.3057 -0.3337
  126OSM   C15S13450   0.376   1.811  50.371 -0.8202 -0.4790  0.3949
  126OSM   H15S13451   0.474   1.830  50.420 -0.5932  2.5477 -1.0405
  126OSM   H15T13452   0.390   1.840  50.265 -0.1363  1.0804  0.8950
  126OSM   C16S13453   0.332   1.671  50.400  0.3323 -0.2421  0.4194
  126OSM   H16S13454   0.335   1.647  50.508  1.5622  0.5352  0.5789
  126OSM   H16T13455   0.402   1.594  50.362 -0.5084 -1.8850  2.0334
  126OSM   C17S13456   0.188   1.646  50.346  1.1649  0.2137 -0.3810
  126OSM   H17S13457   0.197   1.627  50.237  4.4845  1.1776 -0.3840
  126OSM   H17T13458   0.126   1.737  50.360  1.2574  0.2987 -0.5245
  126OSM   C18S13459   0.106   1.532  50.408  0.0506  0.9315  0.1174
  126OSM   H18S13460   0.148   1.437  50.368  2.0276  2.4933 -1.7969
  126OSM   H18T13461  -0.001   1.546  50.383 -0.5781  0.6808  2.4977
  126OSM   H18U13462   0.112   1.536  50.519 -1.0161 -1.4887  0.3261
  126OSM    C1F13463   0.120   2.319  51.592  0.9441 -0.4143 -1.0924
  126OSM     OF13464   0.170   2.337  51.701  0.1571 -0.2573  0.2649
  126OSM    C2F13465  -0.028   2.361  51.588  0.9016 -0.1582 -0.2725
  126OSM    H2F13466  -0.046   2.451  51.650 -1.8893  0.0132 -1.2044
  126OSM    H2G13467  -0.084   2.275  51.630  2.9909 -0.6263  1.7969
  126OSM    C3F13468  -0.077   2.403  51.445  0.2999  1.0429  0.4961
  126OSM    H3F13469  -0.014   2.474  51.388 -0.6924  0.9425 -0.7994
  126OSM    H3G13470  -0.179   2.447  51.442 -0.2285 -0.0302 -3.8839
  126OSM    C4F13471  -0.084   2.279  51.352  0.1459 -0.1109  0.2016
  126OSM    H4F13472  -0.086   2.182  51.406 -2.1533  0.1934  0.7202
  126OSM    H4G13473  -0.003   2.270  51.276  2.2767  0.2132  2.2962
  126OSM    C5F13474  -0.209   2.284  51.265  0.8525 -0.1043 -0.3738
  126OSM    H5F13475  -0.220   2.383  51.215 -1.4791  0.2082  0.6549
  126OSM    H5G13476  -0.296   2.277  51.333  0.1735  2.0330 -0.9412
  126OSM    C6F13477  -0.206   2.169  51.166 -0.8684 -0.2362 -0.5546
  126OSM    H6F13478  -0.102   2.167  51.128 -0.6521  0.4379 -0.0206
  126OSM    H6G13479  -0.286   2.185  51.091 -1.5621 -1.0289 -0.0105
  126OSM    C7F13480  -0.240   2.039  51.224 -0.3966  0.3596 -0.8604
  126OSM    H7F13481  -0.325   2.031  51.294  1.0355 -0.4966  0.8416
  126OSM    H7G13482  -0.147   2.014  51.278 -0.0135 -1.2513 -2.1655
  126OSM    C8F13483  -0.256   1.932  51.122  0.1047 -0.7890 -0.0330
  126OSM    H8F13484  -0.179   1.953  51.046 -0.7031  1.2841 -0.3537
  126OSM    H8G13485  -0.359   1.954  51.085 -0.5111 -0.3838  1.8048
  126OSM    C9F13486  -0.261   1.787  51.174  0.2496  1.0156  0.6343
  126OSM    H9F13487  -0.247   1.778  51.283  1.3996 -1.8487  0.3341
  126OSM   C10F13488  -0.280   1.675  51.094  0.5161 -0.3407 -0.5114
  126OSM   H10F13489  -0.282   1.573  51.133  0.1401 -1.2871 -2.8573
  126OSM   C11F13490  -0.296   1.684  50.945 -0.1755 -0.0098  0.4187
  126OSM   H11F13491  -0.222   1.751  50.898  1.2658 -2.5604 -1.1813
  126OSM   H11G13492  -0.397   1.715  50.911 -0.7454 -2.8965 -0.8344
  126OSM   C12F13493  -0.277   1.538  50.885  0.2753  0.1488  1.3123
  126OSM   H12F13494  -0.332   1.537  50.789  2.1250  0.4079  0.1976
  126OSM   H12G13495  -0.324   1.458  50.946  1.9240 -2.5718 -0.7634
  126OSM   C13F13496  -0.137   1.487  50.854 -0.7471  0.6550  0.4902
  126OSM   H13F13497  -0.083   1.486  50.951  0.5885 -0.6687 -0.2211
  126OSM   H13G13498  -0.093   1.550  50.774 -1.9469  1.6728  0.6099
  126OSM   C14F13499  -0.116   1.344  50.792  0.3390 -0.4984 -0.2473
  126OSM   H14F13500  -0.180   1.271  50.845  0.1016  0.8968  1.4449
  126OSM   H14G13501  -0.011   1.322  50.822  0.2302 -1.2380 -0.3867
  126OSM   C15F13502  -0.127   1.331  50.642 -0.3727  0.2703 -0.4424
  126OSM   H15F13503  -0.060   1.403  50.589 -1.8201  2.6659  0.7781
  126OSM   H15G13504  -0.230   1.348  50.603 -0.2808 -1.1603 -1.3938
  126OSM   C16F13505  -0.090   1.196  50.577  0.2264  0.6378  0.4912
  126OSM   H16F13506  -0.149   1.121  50.633  2.0042 -1.2827 -0.0706
  126OSM   H16G13507   0.017   1.170  50.593 -0.3373 -3.5446 -1.2015
  126OSM   C17F13508  -0.136   1.192  50.433 -0.2636  0.1713  0.4166
  126OSM   H17F13509  -0.087   1.278  50.383  2.3784  0.4856  3.2173
  126OSM   H17G13510  -0.245   1.212  50.434 -0.2304  0.6521 -1.4071
  126OSM   C18F13511  -0.121   1.054  50.362 -0.2840  0.4917 -0.1798
  126OSM   H18F13512  -0.018   1.016  50.381 -1.9324 -3.2555  2.4175
  126OSM   H18G13513  -0.141   1.071  50.254  0.8191  1.9845 -0.1867
  126OSM   H18H13514  -0.192   0.978  50.402  1.1106 -1.0630 -0.5166
  127OSM      N13515   2.315   2.445  47.289  0.0777  0.5062 -0.1611
  127OSM    C1513516   2.438   2.522  47.249  0.0302 -0.7567  0.4548
  127OSM   H15A13517   2.431   2.556  47.147 -2.6891  1.9810  1.4059
  127OSM   H15B13518   2.523   2.459  47.272 -0.1646 -1.1931 -0.0157
  127OSM   H15C13519   2.451   2.606  47.316  2.2231 -0.6481 -0.0366
  127OSM    C1413520   2.325   2.306  47.223  0.8457 -0.0864 -0.5711
  127OSM   H14A13521   2.247   2.241  47.260  0.2116 -0.0356 -1.7640
  127OSM   H14B13522   2.417   2.255  47.245  0.6951  0.6287  2.0948
  127OSM   H14C13523   2.316   2.315  47.116 -1.0063  0.5446 -0.4018
  127OSM    C1313524   2.317   2.433  47.440  0.1526  0.6696  0.0532
  127OSM   H13A13525   2.227   2.387  47.477 -0.8629  3.1921  0.9813
  127OSM   H13B13526   2.320   2.532  47.482 -1.0949  0.7943 -0.1066
  127OSM   H13C13527   2.408   2.389  47.476  0.8474  1.5746 -0.5263
  127OSM    C1213528   2.185   2.521  47.250 -0.6149  0.4674 -0.0542
  127OSM   H12A13529   2.175   2.609  47.311 -1.0067 -0.2720  0.9941
  127OSM   H12B13530   2.095   2.463  47.270  0.5032 -1.4140 -0.2804
  127OSM    C1113531   2.168   2.560  47.112 -0.4064  0.9045  0.4034
  127OSM   H11A13532   2.168   2.459  47.065  0.5344  1.5617 -1.0685
  127OSM   H11B13533   2.255   2.615  47.071  0.1165 -0.7707 -0.8445
  127OSM      P13534   1.920   2.587  47.079  0.7343 -0.6197 -0.3049
  127OSM    O1313535   1.914   2.448  47.131 -0.2641 -0.0280 -0.0490
  127OSM    O1413536   1.811   2.682  47.111  0.1063 -0.3115 -0.7003
  127OSM    O1113537   1.937   2.594  46.927  0.3069 -0.3579 -1.0171
  127OSM    O1213538   2.058   2.646  47.111  0.7984  0.4345 -0.3696
  127OSM    C1S13539   1.843   2.611  46.823 -1.0107  0.4281  0.3043
  127OSM    H1S13540   1.804   2.715  46.827 -3.0821 -0.3380  1.9727
  127OSM    H1T13541   1.764   2.533  46.820  0.2563 -0.8768 -0.7861
  127OSM     NF13542   1.818   2.624  46.572 -0.8047 -0.4559  0.0114
  127OSM    HNF13543   1.809   2.538  46.524 -1.1944 -2.5902  3.5425
  127OSM    C2S13544   1.915   2.607  46.685 -0.4897  0.1924  0.0669
  127OSM    H2S13545   1.982   2.696  46.688  0.4033 -0.4627  0.0250
  127OSM    C3S13546   2.013   2.476  46.667  0.5312 -0.1922 -0.6812
  127OSM    H3S13547   1.936   2.397  46.676 -2.1007  2.2062 -0.9112
  127OSM     O313548   2.103   2.451  46.770  0.3223  0.1249  0.0702
  127OSM    HO313549   2.075   2.521  46.830 -2.3340 -0.6848 -0.0862
  127OSM    C4S13550   2.082   2.459  46.532 -0.4550 -0.0621  0.0825
  127OSM    H4S13551   2.041   2.382  46.465 -0.6551 -0.4646  0.6607
  127OSM    C5S13552   2.153   2.557  46.478 -0.6024  0.3653 -0.3523
  127OSM    H5S13553   2.166   2.655  46.526 -1.3211  0.3957 -0.2178
  127OSM    C6S13554   2.205   2.551  46.336  0.1966  0.4347  0.8254
  127OSM    H6S13555   2.220   2.448  46.298 -0.0263 -0.2580  2.5743
  127OSM    H6T13556   2.302   2.607  46.339 -0.5967  1.9959 -0.7609
  127OSM    C7S13557   2.113   2.619  46.237  0.6048 -0.8065  0.9457
  127OSM    H7S13558   2.160   2.636  46.138 -1.1028 -0.7258  0.1153
  127OSM    H7T13559   2.076   2.717  46.275  1.0616  0.0161 -0.6349
  127OSM    C8S13560   1.994   2.536  46.200  0.0262 -1.0114  0.0327
  127OSM    H8S13561   1.959   2.492  46.296 -1.6400 -1.9440 -0.9689
  127OSM    H8T13562   2.021   2.456  46.128  0.0483  0.5167 -1.7191
  127OSM    C9S13563   1.879   2.623  46.140  0.1802  0.1288  0.3983
  127OSM    H9S13564   1.899   2.676  46.044 -3.3810 -2.6594 -2.1404
  127OSM    H9T13565   1.862   2.703  46.215  2.1622  1.3632 -0.3782
  127OSM   C10S13566   1.754   2.551  46.099 -0.4270  0.4791 -0.9248
  127OSM   H10S13567   1.697   2.537  46.193  1.7999 -2.6015  0.1369
  127OSM   H10T13568   1.785   2.453  46.056 -1.2282  1.0906 -3.0026
  127OSM   C11S13569   1.674   2.627  45.995  0.7556 -0.3400  0.4625
  127OSM   H11S13570   1.735   2.682  45.921  1.6189 -1.9145 -0.0444
  127OSM   H11T13571   1.607   2.699  46.046 -1.2784 -1.4390 -0.5140
  127OSM   C12S13572   1.574   2.541  45.920 -0.9178 -0.6381 -0.2857
  127OSM   H12S13573   1.630   2.471  45.855 -0.9435  0.0215 -1.0451
  127OSM   H12T13574   1.522   2.599  45.840  0.8458 -3.4369 -3.7766
  127OSM   C13S13575   1.466   2.460  45.994  0.5333 -0.5543 -0.3032
  127OSM   H13S13576   1.393   2.530  46.041  1.7080  0.8019 -0.4114
  127OSM   H13T13577   1.507   2.388  46.068 -4.0799 -1.9385  1.2238
  127OSM   C14S13578   1.384   2.361  45.910  0.1288 -0.7181  0.5173
  127OSM   H14S13579   1.313   2.310  45.978 -1.1347 -0.0336 -0.2526
  127OSM   H14T13580   1.466   2.293  45.878  1.3665  1.3644 -1.0154
  127OSM   C15S13581   1.312   2.425  45.793 -0.5616  0.4911 -0.8709
  127OSM   H15S13582   1.283   2.336  45.735  0.6365  0.7565 -1.9230
  127OSM   H15T13583   1.381   2.479  45.725 -2.3129  1.2100 -2.1388
  127OSM   C16S13584   1.194   2.507  45.825 -0.4079 -0.3570 -0.4484
  127OSM   H16S13585   1.233   2.609  45.844 -2.4249  0.1925  1.1588
  127OSM   H16T13586   1.157   2.487  45.928  0.8547  1.7532  0.4913
  127OSM   C17S13587   1.076   2.525  45.719  0.5509 -0.1210 -0.5138
  127OSM   H17S13588   1.035   2.424  45.697 -0.0113 -0.1786  0.6935
  127OSM   H17T13589   1.118   2.560  45.623  1.0029  0.4128 -0.1275
  127OSM   C18S13590   0.973   2.625  45.771 -0.4417 -0.6417  0.4902
  127OSM   H18S13591   0.897   2.656  45.696 -0.2521  1.7775  1.1989
  127OSM   H18T13592   1.019   2.726  45.781 -1.3150 -0.3792  2.2124
  127OSM   H18U13593   0.923   2.581  45.859 -2.5875 -0.6501 -0.6703
  127OSM    C1F13594   1.750   2.730  46.559  0.2541 -0.5617 -0.1536
  127OSM     OF13595   1.761   2.824  46.633  0.5999 -0.0519  0.2022
  127OSM    C2F13596   1.634   2.710  46.465 -0.6237  0.0377 -0.7928
  127OSM    H2F13597   1.539   2.695  46.522 -0.8045  2.2146 -0.4267
  127OSM    H2G13598   1.650   2.620  46.402  0.1831  0.4766 -1.2329
  127OSM    C3F13599   1.615   2.837  46.377  0.6605 -0.2253  0.2802
  127OSM    H3F13600   1.698   2.843  46.303 -0.6102 -0.9791 -1.2675
  127OSM    H3G13601   1.623   2.922  46.447  0.9520 -0.7364  0.8795
  127OSM    C4F13602   1.479   2.842  46.309 -0.2202 -0.0490 -0.6981
  127OSM    H4F13603   1.410   2.829  46.396  0.5550 -2.5145 -0.3714
  127OSM    H4G13604   1.477   2.760  46.235 -1.4255  0.3228 -1.1009
  127OSM    C5F13605   1.446   2.971  46.241 -1.2789  0.5559 -0.1915
  127OSM    H5F13606   1.442   3.059  46.309  2.3883 -0.4342  1.5470
  127OSM    H5G13607   1.345   2.954  46.199 -1.0919 -0.3213 -0.2976
  127OSM    C6F13608   1.546   3.016  46.124  0.7356 -0.5943  0.1979
  127OSM    H6F13609   1.565   2.938  46.047 -5.3860 -0.1283 -2.3341
  127OSM    H6G13610   1.641   3.035  46.178 -0.1819 -1.3246  2.1871
  127OSM    C7F13611   1.498   3.136  46.046  0.0341 -0.2929  0.0648
  127OSM    H7F13612   1.577   3.159  45.971  0.3885  1.7223  1.0057
  127OSM    H7G13613   1.507   3.227  46.108 -1.2317  1.9810 -2.8814
  127OSM    C8F13614   1.354   3.133  45.982 -0.4093  0.2131 -0.6546
  127OSM    H8F13615   1.348   3.227  45.923  1.4887  0.0309 -1.1915
  127OSM    H8G13616   1.281   3.144  46.065 -0.2955 -2.1910 -0.1889
  127OSM    C9F13617   1.323   3.016  45.890 -0.0039 -0.0016  0.7091
  127OSM    H9F13618   1.395   2.935  45.872  0.4391  0.2643  1.2712
  127OSM   C10F13619   1.193   2.998  45.852  0.8330 -0.1375  0.1992
  127OSM   H10F13620   1.161   2.915  45.787 -2.8253  1.5732 -0.4617
  127OSM   C11F13621   1.078   3.086  45.880  0.7375 -1.4201 -0.1160
  127OSM   H11F13622   1.097   3.165  45.955 -0.6712 -1.2405  0.0856
  127OSM   H11G13623   0.997   3.026  45.927 -0.3090 -0.9141 -1.2054
  127OSM   C12F13624   1.000   3.153  45.764  0.0113 -0.0996  0.3256
  127OSM   H12F13625   0.913   3.216  45.795 -0.1665 -0.7353  1.1675
  127OSM   H12G13626   0.965   3.073  45.696  1.2641  0.1597 -0.6527
  127OSM   C13F13627   1.076   3.240  45.661 -0.6050  0.4921 -0.8748
  127OSM   H13F13628   1.173   3.188  45.645  0.0016  1.2467  0.2611
  127OSM   H13G13629   1.083   3.344  45.698 -2.9603  0.4499 -0.1687
  127OSM   C14F13630   1.015   3.252  45.525 -0.0600 -0.2797 -0.9342
  127OSM   H14F13631   0.930   3.322  45.534 -0.9251 -0.7486 -4.1327
  127OSM   H14G13632   0.977   3.152  45.493  1.9046 -1.4203  0.0957
  127OSM   C15F13633   1.112   3.287  45.410 -0.0574 -0.2440 -0.5526
  127OSM   H15F13634   1.190   3.208  45.415  0.2505  0.0826 -0.1821
  127OSM   H15G13635   1.165   3.382  45.433  1.5866 -1.2812  0.1227
  127OSM   C16F13636   1.042   3.318  45.273  0.1044  0.7019 -0.4922
  127OSM   H16F13637   0.945   3.366  45.296  0.2699  1.0871 -0.5808
  127OSM   H16G13638   1.019   3.218  45.231 -0.0894 -0.1058  1.4299
  127OSM   C17F13639   1.102   3.410  45.172  0.6209 -0.0860  0.3475
  127OSM   H17F13640   1.107   3.511  45.218 -0.6343  1.1396 -1.9784
  127OSM   H17G13641   1.033   3.409  45.084 -0.3224 -4.6346  0.8804
  127OSM   C18F13642   1.235   3.365  45.126  0.4218  0.9744 -0.2093
  127OSM   H18F13643   1.302   3.359  45.214 -0.4551 -0.3423  0.4043
  127OSM   H18G13644   1.286   3.432  45.054  2.1357  0.5822  0.6041
  127OSM   H18H13645   1.223   3.270  45.069  3.4306 -1.1032  2.3006
  128OSM      N13646   1.314   0.795  51.930  0.8637  0.0644  0.3253
  128OSM    C1513647   1.241   0.926  51.941 -0.5381 -0.6641 -0.4849
  128OSM   H15A13648   1.279   0.984  51.858  1.2501 -0.2309  0.5771
  128OSM   H15B13649   1.274   0.976  52.031 -1.8555  1.0727 -0.9124
  128OSM   H15C13650   1.133   0.916  51.938 -0.6679  0.5489 -0.3489
  128OSM    C1413651   1.307   0.741  51.791 -0.2545  0.0196  0.0916
  128OSM   H14A13652   1.303   0.824  51.722 -0.4035  0.6767  0.8708
  128OSM   H14B13653   1.215   0.687  51.776 -0.6574 -0.2292  2.8603
  128OSM   H14C13654   1.394   0.679  51.770 -0.6767 -0.4514 -0.2745
  128OSM    C1313655   1.453   0.822  51.969  0.7432  0.3456 -0.1988
  128OSM   H13A13656   1.466   0.867  52.067  1.7047 -0.2106 -0.0533
  128OSM   H13B13657   1.500   0.900  51.911  1.6020 -0.1998 -0.2507
  128OSM   H13C13658   1.509   0.729  51.962  0.2324  0.1594 -2.6547
  128OSM    C1213659   1.268   0.680  52.027  0.2860 -0.8890  0.0182
  128OSM   H12A13660   1.294   0.690  52.131  0.1990 -0.9842  0.0497
  128OSM   H12B13661   1.322   0.590  52.001  0.0324 -0.3657 -2.6563
  128OSM    C1113662   1.106   0.660  52.041 -0.5200 -0.2749  0.6202
  128OSM   H11A13663   1.056   0.645  51.943 -3.1404  2.7549  1.3227
  128OSM   H11B13664   1.041   0.747  52.066  0.9158  0.6685  1.1602
  128OSM      P13665   1.096   0.569  52.282 -0.1507 -0.4372  0.3936
  128OSM    O1313666   1.101   0.717  52.314 -0.3709  0.0616  0.1081
  128OSM    O1413667   0.986   0.494  52.336 -0.5138 -0.2294 -0.6206
  128OSM    O1113668   1.231   0.504  52.311  0.2751 -0.4129  0.4832
  128OSM    O1213669   1.074   0.561  52.131  0.2107  0.2071 -0.3610
  128OSM    C1S13670   1.307   0.522  52.431  0.7635 -1.6658 -0.5065
  128OSM    H1S13671   1.260   0.466  52.514 -0.8617  0.5194  0.1527
  128OSM    H1T13672   1.320   0.632  52.446  1.2549 -1.8588  0.5198
  128OSM     NF13673   1.513   0.494  52.548  0.3691 -0.0397  0.8173
  128OSM    HNF13674   1.554   0.584  52.561  2.8684 -1.1876  1.4726
  128OSM    C2S13675   1.455   0.458  52.416 -0.0033 -0.0261 -0.6399
  128OSM    H2S13676   1.453   0.348  52.406  2.8126 -0.3542  1.3186
  128OSM    C3S13677   1.521   0.529  52.299 -0.1122  0.1789 -0.0157
  128OSM    H3S13678   1.525   0.639  52.315  1.5401 -0.0825  1.8249
  128OSM     O313679   1.453   0.510  52.175  0.2082 -0.3111 -0.9260
  128OSM    HO313680   1.367   0.498  52.216  1.0774 -1.4770  0.7042
  128OSM    C4S13681   1.665   0.484  52.274 -0.2253 -0.4188 -0.0581
  128OSM    H4S13682   1.686   0.376  52.285  1.6313 -0.1043 -0.2231
  128OSM    C5S13683   1.784   0.554  52.251  0.2288  0.4241 -0.1948
  128OSM    H5S13684   1.786   0.664  52.245 -0.1593  0.4603  0.2984
  128OSM    C6S13685   1.914   0.476  52.251  0.3632  0.0149  0.6780
  128OSM    H6S13686   1.898   0.366  52.255 -0.5947  0.1697  1.5824
  128OSM    H6T13687   1.965   0.498  52.347 -1.9724  1.7210  1.6245
  128OSM    C7S13688   1.982   0.523  52.122  0.1974 -0.0036 -0.5098
  128OSM    H7S13689   1.924   0.520  52.027  0.2710  0.7854 -0.5854
  128OSM    H7T13690   2.058   0.446  52.095 -3.2206 -2.6387 -3.7941
  128OSM    C8S13691   2.055   0.656  52.153 -0.9490 -0.6725 -0.4789
  128OSM    H8S13692   2.118   0.639  52.242 -2.6900 -1.8811  0.5875
  128OSM    H8T13693   1.988   0.740  52.182  1.0702  1.3526 -1.3460
  128OSM    C9S13694   2.145   0.703  52.045 -0.8084  0.5557  0.4248
  128OSM    H9S13695   2.079   0.738  51.962  2.4614  0.8747 -2.2667
  128OSM    H9T13696   2.207   0.619  52.007 -3.3206 -2.0334  1.6830
  128OSM   C10S13697   2.249   0.810  52.073  0.2283  0.0336  1.3501
  128OSM   H10S13698   2.338   0.760  52.117  0.0115 -1.6827 -0.0904
  128OSM   H10T13699   2.210   0.894  52.134 -0.4279 -0.2149  1.2780
  128OSM   C11S13700   2.300   0.887  51.942  1.0939  0.0476  0.0685
  128OSM   H11S13701   2.387   0.945  51.979 -1.0589  2.9410  0.9260
  128OSM   H11T13702   2.231   0.964  51.901  0.2816 -0.3852  0.6028
  128OSM   C12S13703   2.351   0.795  51.841 -0.8939  1.0360 -0.0293
  128OSM   H12S13704   2.279   0.729  51.789  0.8834  0.7858 -2.3602
  128OSM   H12T13705   2.439   0.738  51.879 -2.1168  0.5137  2.1552
  128OSM   C13S13706   2.403   0.866  51.719  0.3476 -0.5225  0.2878
  128OSM   H13S13707   2.324   0.910  51.655  1.7023  0.6999 -0.6208
  128OSM   H13T13708   2.457   0.786  51.665 -1.4438 -1.2152 -0.5376
  128OSM   C14S13709   2.510   0.968  51.750 -0.0684 -0.6482 -0.4537
  128OSM   H14S13710   2.570   0.934  51.838  4.0264 -1.5197 -3.2656
  128OSM   H14T13711   2.456   1.064  51.765  0.1440  0.4419 -5.2320
  128OSM   C15S13712   2.618   0.962  51.634  0.5406 -0.6043 -0.5164
  128OSM   H15S13713   2.670   1.060  51.642 -1.3849  0.3404  1.1684
  128OSM   H15T13714   2.556   0.962  51.542 -2.5744 -2.0044  1.4278
  128OSM   C16S13715   2.711   0.845  51.649 -0.5239 -0.2220  1.0234
  128OSM   H16S13716   2.681   0.752  51.702  1.2629 -0.7869  1.1024
  128OSM   H16T13717   2.798   0.888  51.703  1.5760 -2.7841 -0.1079
  128OSM   C17S13718   2.762   0.794  51.510  0.7023 -0.5436 -0.9206
  128OSM   H17S13719   2.845   0.723  51.529 -0.1486 -1.3395 -0.1315
  128OSM   H17T13720   2.813   0.870  51.448  1.1031 -1.0443 -1.2088
  128OSM   C18S13721   2.662   0.718  51.428  0.0984  0.2962 -0.0790
  128OSM   H18S13722   2.630   0.630  51.489  0.7744  0.2965  0.2821
  128OSM   H18T13723   2.710   0.684  51.333  0.8955 -1.5067  0.9174
  128OSM   H18U13724   2.580   0.785  51.394  1.8788  1.0570 -3.2652
  128OSM    C1F13725   1.488   0.420  52.659 -0.2966 -0.4452 -0.5586
  128OSM     OF13726   1.432   0.311  52.654 -0.0806 -0.1099  0.9684
  128OSM    C2F13727   1.530   0.472  52.795 -0.5239  0.4472  0.1841
  128OSM    H2F13728   1.444   0.483  52.865 -1.2911 -0.5796 -0.5479
  128OSM    H2G13729   1.581   0.570  52.788 -1.1198  0.7584  0.1165
  128OSM    C3F13730   1.632   0.366  52.848 -0.4394  0.2415 -0.4105
  128OSM    H3F13731   1.716   0.357  52.776 -1.4802  0.6215 -1.7068
  128OSM    H3G13732   1.582   0.269  52.869  0.7674  0.2179  2.9729
  128OSM    C4F13733   1.683   0.393  52.993  0.8427 -0.6647  0.9713
  128OSM    H4F13734   1.589   0.397  53.053 -1.5723  1.7588 -2.6358
  128OSM    H4G13735   1.731   0.492  52.992  1.0011 -0.7390  1.2132
  128OSM    C5F13736   1.784   0.303  53.063 -0.8639 -1.0735 -0.1784
  128OSM    H5F13737   1.822   0.369  53.144  0.5259 -0.0796 -1.5877
  128OSM    H5G13738   1.859   0.282  52.983  0.3723 -3.6724  1.5233
  128OSM    C6F13739   1.718   0.181  53.122  0.1140 -0.2504  0.2283
  128OSM    H6F13740   1.693   0.109  53.041  0.5044  2.6357 -2.6836
  128OSM    H6G13741   1.627   0.220  53.172 -0.3938  0.5154 -1.2332
  128OSM    C7F13742   1.816   0.110  53.216  0.3008  0.4930  0.0231
  128OSM    H7F13743   1.853   0.185  53.290  2.4024 -0.1506 -0.3053
  128OSM    H7G13744   1.914   0.083  53.172  0.6692  0.4954  0.8237
  128OSM    C8F13745   1.753  -0.004  53.297  0.2864  0.9860  0.5157
  128OSM    H8F13746   1.727  -0.085  53.226  1.2643  0.8026  0.3557
  128OSM    H8G13747   1.661   0.039  53.342  0.5513  2.4079 -0.2538
  128OSM    C9F13748   1.842  -0.077  53.384 -0.2964  0.7012 -0.6217
  128OSM    H9F13749   1.871  -0.176  53.347 -0.0326  0.8473 -0.8044
  128OSM   C10F13750   1.863  -0.044  53.514 -0.6218  0.7484  1.4123
  128OSM   H10F13751   1.930  -0.100  53.581  2.1111  2.3766  0.2078
  128OSM   C11F13752   1.813   0.084  53.582  0.0054 -0.1590 -0.7940
  128OSM   H11F13753   1.752   0.141  53.509  0.6034 -0.1013 -1.2612
  128OSM   H11G13754   1.900   0.153  53.593 -0.7736  0.7942 -0.4076
  128OSM   C12F13755   1.750   0.044  53.721  0.4693 -0.1006  0.3110
  128OSM   H12F13756   1.739  -0.067  53.724  1.8352 -0.3409 -1.6578
  128OSM   H12G13757   1.652   0.095  53.732  1.7859  2.5038  0.6645
  128OSM   C13F13758   1.825   0.102  53.840  0.3366  1.0564 -0.5992
  128OSM   H13F13759   1.899   0.180  53.811 -0.2295  2.0003  0.4260
  128OSM   H13G13760   1.878   0.016  53.885 -2.8591 -0.4597  0.5193
  128OSM   C14F13761   1.733   0.167  53.948 -0.9080 -1.3939  0.0327
  128OSM   H14F13762   1.672   0.249  53.904  0.4993 -0.9084 -1.1026
  128OSM   H14G13763   1.794   0.214  54.028 -1.6968 -1.7850  0.8761
  128OSM   C15F13764   1.619   0.071  53.992 -0.1944  0.4056  0.5148
  128OSM   H15F13765   1.661  -0.032  53.990 -2.0711 -0.4848  2.6269
  128OSM   H15G13766   1.540   0.063  53.914  0.0158  1.6910  0.1470
  128OSM   C16F13767   1.539   0.089  54.126  0.3669  0.1284  0.9411
  128OSM   H16F13768   1.619   0.123  54.195  1.6252  1.9128 -1.2848
  128OSM   H16G13769   1.484  -0.002  54.158 -2.4089  1.0818 -0.7488
  128OSM   C17F13770   1.429   0.203  54.121  0.0986  0.2584 -0.8558
  128OSM   H17F13771   1.410   0.239  54.018  0.2445  0.0636 -0.9528
  128OSM   H17G13772   1.458   0.290  54.184  3.5852 -0.3604 -1.3882
  128OSM   C18F13773   1.290   0.150  54.167 -0.1724 -0.1943 -0.2654
  128OSM   H18F13774   1.245   0.109  54.074  0.2945  0.0703 -0.6156
  128OSM   H18G13775   1.232   0.238  54.203  2.1512  1.3636 -0.0825
  128OSM   H18H13776   1.303   0.069  54.242 -0.2060 -1.4379 -1.5611
  129OSM      N13777   2.332   2.285  42.133  0.7513 -0.1726 -0.1444
  129OSM    C1513778   2.366   2.427  42.116  0.1447 -0.1395  0.4307
  129OSM   H15A13779   2.460   2.453  42.163  0.4431 -1.7782  0.7878
  129OSM   H15B13780   2.289   2.494  42.151 -0.8663 -1.4207  0.7442
  129OSM   H15C13781   2.383   2.444  42.011  0.3404  0.0357  0.4899
  129OSM    C1413782   2.431   2.208  42.051  0.2551 -0.5609 -0.4943
  129OSM   H14A13783   2.528   2.240  42.085  0.9659 -2.3886 -0.6764
  129OSM   H14B13784   2.422   2.223  41.945  1.8297  0.6282 -0.4819
  129OSM   H14C13785   2.434   2.101  42.069  0.2997 -1.2900 -4.1756
  129OSM    C1313786   2.343   2.239  42.271  0.4566  0.2401  0.2104
  129OSM   H13A13787   2.251   2.261  42.324  0.3384 -1.3940  0.7330
  129OSM   H13B13788   2.423   2.294  42.318  0.1065  1.8684 -0.9818
  129OSM   H13C13789   2.362   2.133  42.279 -0.3338 -0.0866 -1.7261
  129OSM    C1213790   2.184   2.261  42.085 -0.4182 -0.0732 -0.3736
  129OSM   H12A13791   2.165   2.163  42.127 -1.5183 -0.8927 -2.5807
  129OSM   H12B13792   2.178   2.254  41.977  1.7896  0.4895 -0.5822
  129OSM    C1113793   2.073   2.352  42.129 -0.8613 -0.0316  0.1985
  129OSM   H11A13794   1.977   2.310  42.090  0.1641 -1.3587 -0.9915
  129OSM   H11B13795   2.092   2.449  42.079  0.5918 -1.3572 -1.9950
  129OSM      P13796   2.026   2.480  42.358  0.5461  0.4593 -0.1235
  129OSM    O1313797   2.098   2.456  42.483 -0.7749  0.2998  0.3148
  129OSM    O1413798   2.052   2.609  42.293 -0.4445  0.5135 -0.0798
  129OSM    O1113799   1.871   2.458  42.378 -0.5184  0.0994 -0.0377
  129OSM    O1213800   2.065   2.360  42.273 -0.1658  0.3605 -0.1783
  129OSM    C1S13801   1.824   2.352  42.453  0.2982 -0.0072  0.6724
  129OSM    H1S13802   1.890   2.264  42.438 -0.7336 -0.5341 -1.1492
  129OSM    H1T13803   1.723   2.324  42.415  0.2604  0.4542  0.4304
  129OSM     NF13804   1.779   2.255  42.674 -0.1309 -1.0630  0.2236
  129OSM    HNF13805   1.687   2.217  42.680 -0.6741  0.4458  2.6215
  129OSM    C2S13806   1.803   2.382  42.606 -0.7843  0.5932  0.3241
  129OSM    H2S13807   1.902   2.426  42.634  0.7721 -1.5946 -1.4157
  129OSM    C3S13808   1.696   2.488  42.630 -0.0476 -0.7265  0.4244
  129OSM    H3S13809   1.594   2.445  42.633  0.1582 -1.2914 -0.4518
  129OSM     O313810   1.709   2.595  42.539  0.3573  0.8660 -0.7490
  129OSM    HO313811   1.778   2.573  42.476 -0.0578 -0.4253 -0.7855
  129OSM    C4S13812   1.725   2.546  42.768 -0.4669  0.1161  0.6366
  129OSM    H4S13813   1.830   2.571  42.789 -0.6274 -0.1288  1.7644
  129OSM    C5S13814   1.641   2.557  42.866  0.1389 -0.5193 -0.3684
  129OSM    H5S13815   1.537   2.521  42.865 -1.0612  2.5606  0.3959
  129OSM    C6S13816   1.692   2.577  43.004 -0.1651 -0.6794  1.2401
  129OSM    H6S13817   1.611   2.595  43.078  1.5827  0.5179  2.9475
  129OSM    H6T13818   1.747   2.673  43.011 -1.2405  0.2030 -1.2114
  129OSM    C7S13819   1.781   2.457  43.051 -0.2070 -0.1100  0.5262
  129OSM    H7S13820   1.838   2.495  43.138  0.5509  1.3151 -0.5509
  129OSM    H7T13821   1.856   2.437  42.972 -0.6612 -0.7280  0.2356
  129OSM    C8S13822   1.699   2.329  43.085 -0.1816  0.0627 -0.0199
  129OSM    H8S13823   1.647   2.306  42.989 -0.3787 -0.5605  0.2373
  129OSM    H8T13824   1.615   2.360  43.150  0.4952  0.7454  0.5592
  129OSM    C9S13825   1.780   2.208  43.123 -0.0377  0.0974 -0.3467
  129OSM    H9S13826   1.847   2.169  43.044 -0.5319 -2.5124  0.4318
  129OSM    H9T13827   1.707   2.127  43.143  0.7004 -0.5573 -0.2641
  129OSM   C10S13828   1.864   2.237  43.246 -0.9300  0.6364 -0.0011
  129OSM   H10S13829   1.809   2.284  43.331 -0.5240 -0.0507  0.6489
  129OSM   H10T13830   1.946   2.300  43.207 -0.9006  0.8339  0.3702
  129OSM   C11S13831   1.928   2.111  43.317  0.2161  0.1417  0.9103
  129OSM   H11S13832   2.009   2.143  43.385  0.4356 -1.6940  1.5603
  129OSM   H11T13833   1.964   2.045  43.235 -0.0912  0.9358  0.1218
  129OSM   C12S13834   1.830   2.026  43.400 -1.2257  0.3118  0.4678
  129OSM   H12S13835   1.741   1.995  43.341 -0.1709 -0.7383 -0.6278
  129OSM   H12T13836   1.810   2.073  43.499 -1.0604  0.1014  0.5974
  129OSM   C13S13837   1.890   1.884  43.450  0.5566  0.2721 -0.0974
  129OSM   H13S13838   1.977   1.899  43.517  1.3784 -2.7863 -0.3508
  129OSM   H13T13839   1.920   1.824  43.361  0.5916 -0.0972  0.1677
  129OSM   C14S13840   1.786   1.797  43.524 -0.1019 -0.3669 -0.4710
  129OSM   H14S13841   1.715   1.748  43.455 -1.0126  0.3852 -0.0975
  129OSM   H14T13842   1.729   1.854  43.601 -0.0352 -0.0480 -0.6587
  129OSM   C15S13843   1.858   1.691  43.612  0.0754 -0.2513 -0.4537
  129OSM   H15S13844   1.949   1.739  43.654 -1.8577  3.0100  0.3540
  129OSM   H15T13845   1.903   1.609  43.551  2.1599 -2.1151  3.2609
  129OSM   C16S13846   1.779   1.618  43.730  1.2196 -0.7184  0.7577
  129OSM   H16S13847   1.670   1.641  43.717  1.3752 -0.2560  0.1828
  129OSM   H16T13848   1.808   1.667  43.825  1.0723  0.9016  0.0018
  129OSM   C17S13849   1.799   1.466  43.733 -0.3905 -0.0067 -0.1476
  129OSM   H17S13850   1.908   1.459  43.754 -0.2307 -0.7905 -1.1671
  129OSM   H17T13851   1.761   1.418  43.641  0.8646  0.2443 -0.8291
  129OSM   C18S13852   1.732   1.393  43.846 -0.2190 -1.0004 -0.5062
  129OSM   H18S13853   1.621   1.387  43.835 -0.5876  1.5180  1.0720
  129OSM   H18T13854   1.738   1.449  43.942 -0.3438 -0.7715 -0.6278
  129OSM   H18U13855   1.773   1.293  43.869  1.3585 -0.2574  0.0389
  129OSM    C1F13856   1.874   2.169  42.694 -0.2863 -0.1815 -0.1671
  129OSM     OF13857   1.990   2.207  42.676 -0.2440  0.1962 -0.5848
  129OSM    C2F13858   1.839   2.033  42.753 -0.2789 -0.0497  0.2820
  129OSM    H2F13859   1.789   1.972  42.675  2.5734 -2.0770 -0.1209
  129OSM    H2G13860   1.769   2.053  42.837 -0.5655 -2.9589  0.8560
  129OSM    C3F13861   1.973   1.963  42.799 -0.1240  0.4711  0.0063
  129OSM    H3F13862   2.040   2.030  42.857  0.8629 -0.1632 -0.3782
  129OSM    H3G13863   2.029   1.936  42.706 -2.2742  1.5982 -1.7152
  129OSM    C4F13864   1.948   1.836  42.878 -0.0166  0.9860  0.0928
  129OSM    H4F13865   1.907   1.756  42.813  2.4941 -0.8322  0.5939
  129OSM    H4G13866   1.881   1.868  42.960  0.1009  1.4254  0.0233
  129OSM    C5F13867   2.069   1.775  42.945 -0.1326 -0.0734 -0.5174
  129OSM    H5F13868   2.099   1.852  43.019 -1.0489 -0.0491 -0.1542
  129OSM    H5G13869   2.156   1.762  42.878  1.1434 -2.5575  1.4746
  129OSM    C6F13870   2.042   1.642  43.021 -0.4111  0.3247  0.1586
  129OSM    H6F13871   2.029   1.566  42.940 -2.5464  1.2352 -0.4445
  129OSM    H6G13872   1.943   1.638  43.072 -1.2814 -0.0001 -1.4564
  129OSM    C7F13873   2.146   1.601  43.131 -0.6712 -0.2412  0.2259
  129OSM    H7F13874   2.170   1.695  43.185  2.0399 -0.2630 -0.7932
  129OSM    H7G13875   2.235   1.563  43.076 -0.0809  0.6887  0.5291
  129OSM    C8F13876   2.085   1.489  43.222 -0.5104 -0.2169 -1.4400
  129OSM    H8F13877   2.040   1.412  43.155  0.8545 -0.0481 -2.6030
  129OSM    H8G13878   2.016   1.538  43.294  1.5761  0.3156  0.3167
  129OSM    C9F13879   2.191   1.421  43.298 -0.4796  0.1270 -0.5872
  129OSM    H9F13880   2.293   1.460  43.283 -1.1383  1.2202 -2.5653
  129OSM   C10F13881   2.172   1.314  43.379  0.4163  0.0842  0.1303
  129OSM   H10F13882   2.253   1.276  43.442  2.7789  0.7465 -2.3215
  129OSM   C11F13883   2.038   1.255  43.418  0.2911  0.0270  0.4077
  129OSM   H11F13884   2.039   1.148  43.389  0.6449  0.4704 -1.3177
  129OSM   H11G13885   1.953   1.315  43.379 -1.2335 -0.7518  2.3708
  129OSM   C12F13886   2.025   1.258  43.574  0.0061 -0.6414 -0.2923
  129OSM   H12F13887   1.922   1.219  43.592 -0.1006 -1.0874 -1.6973
  129OSM   H12G13888   2.046   1.363  43.603  2.1061 -1.2552  0.5150
  129OSM   C13F13889   2.121   1.165  43.643 -0.9364  0.0182  0.0027
  129OSM   H13F13890   2.214   1.224  43.631 -1.1891  0.0763 -2.1400
  129OSM   H13G13891   2.123   1.073  43.581  1.5062  1.7543 -2.7570
  129OSM   C14F13892   2.103   1.141  43.787 -0.0826  0.2225  0.0407
  129OSM   H14F13893   1.998   1.109  43.799  0.4397 -3.2439 -3.0611
  129OSM   H14G13894   2.126   1.236  43.841 -1.1384 -0.7184  2.3029
  129OSM   C15F13895   2.186   1.030  43.840 -0.1238  0.9229  0.1823
  129OSM   H15F13896   2.292   1.061  43.828  0.0443  0.1449 -0.4308
  129OSM   H15G13897   2.157   0.940  43.782 -0.8646  1.1358  0.2170
  129OSM   C16F13898   2.149   1.001  43.986 -0.5501  0.1494 -0.2672
  129OSM   H16F13899   2.039   1.006  43.998 -0.4444  0.2747  0.7391
  129OSM   H16G13900   2.188   1.082  44.050  0.3915  0.2263 -0.9173
  129OSM   C17F13901   2.217   0.871  44.030  0.1304 -0.0102 -0.2164
  129OSM   H17F13902   2.325   0.878  44.005  1.3186 -4.9024  2.2354
  129OSM   H17G13903   2.165   0.782  43.987  0.6146 -0.7215  0.6284
  129OSM   C18F13904   2.196   0.849  44.184  0.5162 -0.5157 -0.5247
  129OSM   H18F13905   2.188   0.942  44.245 -0.6499  0.4383 -2.0660
  129OSM   H18G13906   2.253   0.763  44.224 -0.5266 -1.6595 -1.4242
  129OSM   H18H13907   2.088   0.823  44.182 -0.4295  2.9644 -2.3621
  130OSM      N13908   0.507   1.080  52.066  0.7849 -0.0437  0.3715
  130OSM    C1513909   0.357   1.078  52.090  0.2400  0.0851 -0.4164
  130OSM   H15A13910   0.297   1.156  52.046  1.7067  0.8990 -1.0350
  130OSM   H15B13911   0.338   1.082  52.196 -0.5194  0.6482 -0.5688
  130OSM   H15C13912   0.306   0.991  52.051 -0.6781  0.7047 -0.6265
  130OSM    C1413913   0.549   1.202  52.136  0.0093 -0.7371 -0.0212
  130OSM   H14A13914   0.632   1.242  52.080 -0.0077  0.1526  0.5672
  130OSM   H14B13915   0.591   1.187  52.234  0.5437  1.7258  0.1756
  130OSM   H14C13916   0.469   1.275  52.134  0.2099 -0.4013 -3.7494
  130OSM    C1313917   0.563   0.952  52.133 -0.3611 -0.3061  0.9662
  130OSM   H13A13918   0.670   0.960  52.119 -0.3033  3.4222  2.2919
  130OSM   H13B13919   0.533   0.856  52.095  1.0769 -1.6381  2.9819
  130OSM   H13C13920   0.544   0.960  52.239  1.8387 -0.1332  1.4035
  130OSM    C1213921   0.547   1.093  51.913 -0.7495  0.1262  0.5808
  130OSM   H12A13922   0.467   1.140  51.857 -0.5661 -0.2420 -0.0069
  130OSM   H12B13923   0.550   0.995  51.869 -0.3215  1.2855 -2.2503
  130OSM    C1113924   0.681   1.161  51.890 -1.0067 -0.5070  0.2406
  130OSM   H11A13925   0.669   1.266  51.924 -0.6110 -1.6495  4.5419
  130OSM   H11B13926   0.718   1.165  51.785  1.7226 -0.3473  1.1174
  130OSM      P13927   0.890   1.000  51.943 -0.1178  0.0711 -0.3989
  130OSM    O1313928   0.988   1.016  52.051 -0.3547  0.0389  0.0809
  130OSM    O1413929   0.828   0.868  51.922 -0.1604 -0.4484  0.1723
  130OSM    O1113930   0.938   1.051  51.807 -0.0375  0.6719  0.1506
  130OSM    O1213931   0.777   1.109  51.979  0.1580 -0.1597 -0.0274
  130OSM    C1S13932   0.911   1.005  51.678 -1.2960  0.1808  0.4016
  130OSM    H1S13933   0.811   0.957  51.674 -1.2508 -0.0950  2.0784
  130OSM    H1T13934   0.982   0.926  51.646 -1.2353  1.5762 -3.4641
  130OSM     NF13935   0.863   1.111  51.448 -0.7087  0.4920 -1.0795
  130OSM    HNF13936   0.918   1.077  51.372  1.1542  1.7920 -0.4128
  130OSM    C2S13937   0.940   1.125  51.573 -0.3620 -0.6489  0.3890
  130OSM    H2S13938   0.891   1.211  51.625 -0.0232 -1.0121  1.3286
  130OSM    C3S13939   1.089   1.153  51.558  0.1826  0.4385 -0.3191
  130OSM    H3S13940   1.123   1.054  51.521  2.4713  0.5685  1.1702
  130OSM     O313941   1.164   1.143  51.683  0.3747  0.2476  0.6546
  130OSM    HO313942   1.106   1.084  51.732  0.3458 -0.9160 -0.7047
  130OSM    C4S13943   1.135   1.271  51.472 -0.0914  0.2322  0.1594
  130OSM    H4S13944   1.078   1.361  51.499 -2.3727  0.1190 -3.5593
  130OSM    C5S13945   1.214   1.274  51.360 -0.9903 -0.1472  0.7538
  130OSM    H5S13946   1.260   1.180  51.326  0.0612  0.9957 -1.1410
  130OSM    C6S13947   1.253   1.397  51.287  0.5026  0.4585 -0.1919
  130OSM    H6S13948   1.363   1.412  51.297  0.7005 -1.9982  3.4395
  130OSM    H6T13949   1.201   1.481  51.338 -0.7178  0.2219 -1.0049
  130OSM    C7S13950   1.231   1.406  51.135  0.4692  0.5494 -0.5139
  130OSM    H7S13951   1.124   1.434  51.127 -0.1393  1.3780  5.7646
  130OSM    H7T13952   1.264   1.312  51.084 -2.9512 -0.5749 -0.8802
  130OSM    C8S13953   1.316   1.527  51.084 -1.1539 -0.8107 -0.7017
  130OSM    H8S13954   1.398   1.558  51.152  0.1785  0.9455 -2.9682
  130OSM    H8T13955   1.260   1.622  51.069  2.6473  1.8548  0.4397
  130OSM    C9S13956   1.393   1.510  50.951  1.1074  0.0284  0.0106
  130OSM    H9S13957   1.381   1.404  50.919 -2.6755 -0.5630  2.6470
  130OSM    H9T13958   1.502   1.530  50.957  0.9868  0.5834  0.4120
  130OSM   C10S13959   1.327   1.595  50.841 -0.9402 -0.6336  0.6878
  130OSM   H10S13960   1.341   1.701  50.872 -0.9354  0.3740 -2.3400
  130OSM   H10T13961   1.219   1.589  50.817 -1.2032  1.3239  1.1744
  130OSM   C11S13962   1.420   1.588  50.718 -0.6770 -0.0051  1.0759
  130OSM   H11S13963   1.402   1.494  50.661 -2.7240  1.0029 -0.0512
  130OSM   H11T13964   1.523   1.591  50.759  0.0018  2.5987 -0.6131
  130OSM   C12S13965   1.416   1.717  50.616 -1.0221  0.2166 -0.3757
  130OSM   H12S13966   1.411   1.806  50.683  0.7890 -0.6111  0.9277
  130OSM   H12T13967   1.333   1.706  50.543 -0.2155  0.1557 -1.3084
  130OSM   C13S13968   1.551   1.715  50.529  0.4412  0.4695  0.8133
  130OSM   H13S13969   1.630   1.711  50.607  0.5338 -2.7022  0.6764
  130OSM   H13T13970   1.573   1.813  50.481  3.8294  0.0542  1.2479
  130OSM   C14S13971   1.572   1.599  50.432  0.0253 -0.4111 -0.1149
  130OSM   H14S13972   1.480   1.587  50.371 -1.9048  2.1112  2.0489
  130OSM   H14T13973   1.597   1.509  50.492 -0.3799  0.4044  1.3234
  130OSM   C15S13974   1.691   1.615  50.336 -0.0526  0.1226 -0.2788
  130OSM   H15S13975   1.709   1.511  50.299 -1.2109  0.0609 -0.6804
  130OSM   H15T13976   1.778   1.633  50.403  0.2384  0.7964 -0.8257
  130OSM   C16S13977   1.692   1.720  50.230  0.5182  0.5461 -0.5096
  130OSM   H16S13978   1.711   1.814  50.286 -1.4953  1.3785 -1.1209
  130OSM   H16T13979   1.591   1.731  50.184 -0.6898 -0.8033  1.6508
  130OSM   C17S13980   1.788   1.685  50.117 -0.5312  1.0161 -1.1970
  130OSM   H17S13981   1.749   1.723  50.021  2.7817  0.6222 -2.8490
  130OSM   H17T13982   1.824   1.581  50.101 -2.9143 -0.2170  0.7742
  130OSM   C18S13983   1.910   1.777  50.128 -0.8853  0.3072  0.5235
  130OSM   H18S13984   1.884   1.883  50.147 -0.6193  1.3070 -3.5981
  130OSM   H18T13985   1.974   1.779  50.037  1.4514 -1.0804  2.0193
  130OSM   H18U13986   1.979   1.744  50.208 -0.6088 -0.4317  0.0050
  130OSM    C1F13987   0.730   1.098  51.449  0.0092  0.2414 -0.1500
  130OSM     OF13988   0.652   1.093  51.548  0.1186 -0.1688  0.6436
  130OSM    C2F13989   0.671   1.065  51.311  0.0899 -0.7284 -0.7982
  130OSM    H2F13990   0.721   0.974  51.272 -0.2113 -0.4080 -1.9804
  130OSM    H2G13991   0.676   1.144  51.233 -0.4368 -2.7841 -3.0498
  130OSM    C3F13992   0.526   1.014  51.313  0.3922 -0.1717 -0.8776
  130OSM    H3F13993   0.458   1.095  51.345 -1.8081 -0.8059 -3.5951
  130OSM    H3G13994   0.525   0.924  51.378 -1.8778 -0.4516 -1.2330
  130OSM    C4F13995   0.482   0.966  51.178 -1.2498 -0.5998 -0.7244
  130OSM    H4F13996   0.559   0.904  51.127 -0.4657 -3.0380  2.9787
  130OSM    H4G13997   0.482   1.046  51.101  2.8151 -1.5996 -1.9730
  130OSM    C5F13998   0.348   0.892  51.193 -0.5467 -0.1990 -0.1770
  130OSM    H5F13999   0.281   0.945  51.265  0.7817 -1.7115  2.3202
  130OSM    H5G14000   0.375   0.791  51.230  0.3119  0.0123 -0.2134
  130OSM    C6F14001   0.282   0.887  51.053  0.1201 -0.3065 -0.0770
  130OSM    H6F14002   0.284   0.992  51.017 -1.0690 -0.2241  0.0511
  130OSM    H6G14003   0.172   0.868  51.059 -0.6983  2.6231 -2.8182
  130OSM    C7F14004   0.349   0.788  50.959  0.0338  0.4778 -0.5466
  130OSM    H7F14005   0.321   0.685  50.990  2.5129  0.6762  3.0432
  130OSM    H7G14006   0.459   0.799  50.970  0.0461 -0.4590  0.4460
  130OSM    C8F14007   0.319   0.825  50.810  0.2296  0.5935  0.4121
  130OSM    H8F14008   0.209   0.839  50.811  0.0310 -0.3230 -1.7061
  130OSM    H8G14009   0.349   0.731  50.757 -1.7573 -1.1734  2.2344
  130OSM    C9F14010   0.391   0.939  50.744  0.7489  0.9101  0.0526
  130OSM    H9F14011   0.461   0.989  50.813  0.3776 -0.2981  1.3395
  130OSM   C10F14012   0.398   0.947  50.610  0.3957 -0.0635 -0.1841
  130OSM   H10F14013   0.432   1.042  50.566  1.7690  0.2490  1.4584
  130OSM   C11F14014   0.332   0.852  50.512 -0.3958  0.2211  0.1646
  130OSM   H11F14015   0.268   0.900  50.434 -1.9412 -3.6689 -1.2112
  130OSM   H11G14016   0.245   0.792  50.547 -1.8159  1.9022 -0.2946
  130OSM   C12F14017   0.428   0.768  50.420  0.0028 -0.3147  0.1812
  130OSM   H12F14018   0.468   0.689  50.487  0.9196  0.3360  0.4168
  130OSM   H12G14019   0.511   0.836  50.392  0.2220 -0.7354 -0.2141
  130OSM   C13F14020   0.366   0.686  50.312  0.1561 -0.1684  0.3165
  130OSM   H13F14021   0.273   0.638  50.348  0.2481 -1.2553 -0.8077
  130OSM   H13G14022   0.444   0.609  50.291  1.3145  0.1368  3.1123
  130OSM   C14F14023   0.346   0.751  50.171 -0.2879  0.5216 -0.2874
  130OSM   H14F14024   0.431   0.822  50.157 -1.9556  3.2395  2.2369
  130OSM   H14G14025   0.254   0.812  50.181 -1.6510 -1.1210 -2.1302
  130OSM   C15F14026   0.328   0.660  50.044 -0.7121 -0.3221 -0.1373
  130OSM   H15F14027   0.256   0.581  50.074 -1.0004  0.5334  1.5218
  130OSM   H15G14028   0.423   0.606  50.024 -0.0514  0.8804 -0.3959
  130OSM   C16F14029   0.275   0.755  49.924  0.8525 -0.4618  0.4098
  130OSM   H16F14030   0.352   0.835  49.912  2.3923 -2.0725 -1.3093
  130OSM   H16G14031   0.182   0.800  49.965 -2.0132 -5.9121  0.7899
  130OSM   C17F14032   0.235   0.700  49.787  0.6111  0.1581 -0.1606
  130OSM   H17F14033   0.321   0.639  49.753 -0.6276 -2.1811  0.7141
  130OSM   H17G14034   0.197   0.769  49.708 -1.3901 -1.3203 -0.5654
  130OSM   C18F14035   0.117   0.594  49.785  0.0565 -0.9290 -0.3150
  130OSM   H18F14036   0.146   0.512  49.854  2.4557  0.0492 -0.0869
  130OSM   H18G14037   0.091   0.552  49.685 -0.8266  0.5240 -0.7235
  130OSM   H18H14038   0.027   0.641  49.830 -0.1852 -0.2584 -1.4493
  131OSM      N14039   2.322   2.459  37.812  0.3119 -0.0800  0.4162
  131OSM    C1514040   2.248   2.509  37.686  0.6312 -0.1886  0.1099
  131OSM   H15A14041   2.194   2.433  37.632  1.7506 -1.2012  0.3897
  131OSM   H15B14042   2.321   2.557  37.622  2.0640 -0.7287  1.2896
  131OSM   H15C14043   2.182   2.588  37.718  0.1133 -1.0855  1.3041
  131OSM    C1414044   2.372   2.577  37.887  0.2491  0.1181 -0.2513
  131OSM   H14A14045   2.294   2.647  37.910  0.0679  0.2205 -1.1352
  131OSM   H14B14046   2.461   2.625  37.849  0.4565 -0.1149 -0.0619
  131OSM   H14C14047   2.400   2.554  37.989  0.5049 -1.9112 -0.7350
  131OSM    C1314048   2.225   2.387  37.897 -0.2835  0.0855 -0.0301
  131OSM   H13A14049   2.147   2.459  37.914 -1.5636  0.0075 -4.2515
  131OSM   H13B14050   2.269   2.354  37.990  1.7575  1.3619 -0.4844
  131OSM   H13C14051   2.174   2.303  37.851  3.3705 -1.0764 -2.4988
  131OSM    C1214052   2.437   2.364  37.785 -0.1704 -0.3713 -0.6804
  131OSM   H12A14053   2.510   2.424  37.732 -2.4853  2.4693 -0.9405
  131OSM   H12B14054   2.406   2.282  37.721 -0.3362 -0.6162 -0.2894
  131OSM    C1114055   2.508   2.299  37.904 -0.3017  0.1007 -0.2070
  131OSM   H11A14056   2.549   2.379  37.971  3.6416  0.0511 -2.2775
  131OSM   H11B14057   2.605   2.251  37.879 -0.1226  0.8582 -1.0399
  131OSM      P14058   2.404   2.071  37.930  0.5818  0.4476 -0.1072
  131OSM    O1314059   2.263   2.030  37.930  0.7362 -0.1958 -0.0732
  131OSM    O1414060   2.490   2.028  37.814  0.0900  0.3106  0.6099
  131OSM    O1114061   2.462   1.997  38.059  0.1361 -0.5173 -0.0820
  131OSM    O1214062   2.419   2.214  37.980 -0.5198 -0.6265 -0.0745
  131OSM    C1S14063   2.598   2.009  38.098 -0.1858 -0.3493 -0.1152
  131OSM    H1S14064   2.618   2.117  38.080 -0.3622 -0.1910  0.5852
  131OSM    H1T14065   2.675   1.951  38.043 -0.1321 -1.0209  0.6560
  131OSM     NF14066   2.751   2.044  38.288  0.2403  0.4295  0.0734
  131OSM    HNF14067   2.818   1.977  38.320 -0.3177  1.6116  4.4607
  131OSM    C2S14068   2.616   1.997  38.254  0.2885 -0.6385  0.4618
  131OSM    H2S14069   2.543   2.069  38.297  0.9997  0.1747  0.3429
  131OSM    C3S14070   2.581   1.852  38.292  0.9873 -0.0510  0.1619
  131OSM    H3S14071   2.659   1.790  38.242  0.4725 -0.4793 -0.1164
  131OSM     O314072   2.463   1.798  38.238  0.0442 -0.3862 -0.1417
  131OSM    HO314073   2.439   1.873  38.183  1.6233  1.5449  1.6449
  131OSM    C4S14074   2.595   1.819  38.438  0.4536 -0.3735  0.2380
  131OSM    H4S14075   2.698   1.833  38.472  0.3802 -0.1301  0.3655
  131OSM    C5S14076   2.495   1.799  38.523  0.4698 -0.3022 -0.3661
  131OSM    H5S14077   2.391   1.806  38.489  0.9575 -1.3741 -2.2992
  131OSM    C6S14078   2.517   1.791  38.670 -0.1224  0.6187 -0.0296
  131OSM    H6S14079   2.555   1.890  38.704  1.7020  0.4331 -1.3305
  131OSM    H6T14080   2.596   1.715  38.690 -0.6859  0.3672  1.3518
  131OSM    C7S14081   2.391   1.733  38.742 -0.1926  0.2571 -0.6260
  131OSM    H7S14082   2.379   1.623  38.734  1.9722 -0.2253  1.6378
  131OSM    H7T14083   2.300   1.781  38.699  0.5678  0.8457 -1.6372
  131OSM    C8S14084   2.401   1.759  38.894  0.1582 -0.5991  0.0781
  131OSM    H8S14085   2.305   1.736  38.944 -0.4890  3.1207  0.8755
  131OSM    H8T14086   2.415   1.868  38.914  1.6459 -0.6797 -0.3895
  131OSM    C9S14087   2.504   1.661  38.954  0.0553 -0.3649  0.5212
  131OSM    H9S14088   2.609   1.697  38.945  0.7890 -2.1364  1.5484
  131OSM    H9T14089   2.493   1.557  38.916 -2.0046 -0.0226  0.0228
  131OSM   C10S14090   2.494   1.652  39.112 -0.0870 -0.8103  0.0717
  131OSM   H10S14091   2.389   1.667  39.144  0.2991 -2.6399  2.4623
  131OSM   H10T14092   2.547   1.744  39.144 -0.3962 -0.7359  0.3720
  131OSM   C11S14093   2.546   1.525  39.166 -0.1132  0.1939 -1.1133
  131OSM   H11S14094   2.649   1.503  39.130 -0.9899 -3.4771 -1.7038
  131OSM   H11T14095   2.491   1.440  39.121  1.3498 -1.4828  0.1092
  131OSM   C12S14096   2.535   1.521  39.320  0.4197  0.4172 -0.4026
  131OSM   H12S14097   2.425   1.526  39.338  0.2319 -0.4786 -1.2106
  131OSM   H12T14098   2.589   1.606  39.368  3.1540 -1.1566 -0.4841
  131OSM   C13S14099   2.597   1.402  39.387  0.3254  0.3761  0.0141
  131OSM   H13S14100   2.690   1.364  39.339 -1.3134 -0.6658 -2.5962
  131OSM   H13T14101   2.536   1.310  39.373  1.5628 -0.3852 -0.5940
  131OSM   C14S14102   2.619   1.405  39.544  0.0292 -0.1967  0.6341
  131OSM   H14S14103   2.523   1.427  39.596 -0.6839 -0.7459 -0.4308
  131OSM   H14T14104   2.678   1.498  39.557 -0.1181  0.2229 -1.4537
  131OSM   C15S14105   2.713   1.298  39.597  0.9421 -0.0052  0.5467
  131OSM   H15S14106   2.812   1.314  39.548  0.5926 -0.8681 -0.4921
  131OSM   H15T14107   2.674   1.199  39.565  0.2155  0.7008 -0.8575
  131OSM   C16S14108   2.742   1.296  39.752 -0.4078 -0.5229  0.0654
  131OSM   H16S14109   2.770   1.394  39.796  1.4454 -0.5537 -0.9634
  131OSM   H16T14110   2.823   1.222  39.764  0.2561 -0.3829 -2.8498
  131OSM   C17S14111   2.631   1.227  39.833  0.4334  0.5955  0.1665
  131OSM   H17S14112   2.620   1.120  39.806  0.6888 -0.0794  2.5174
  131OSM   H17T14113   2.534   1.279  39.813  0.6494  0.3616 -1.6432
  131OSM   C18S14114   2.648   1.230  39.992  0.9691 -0.2131  0.3553
  131OSM   H18S14115   2.548   1.226  40.041  1.4317 -0.6747  1.2812
  131OSM   H18T14116   2.694   1.327  40.020 -1.6831  1.4275 -0.5433
  131OSM   H18U14117   2.707   1.144  40.030  1.0055 -0.4087 -0.1307
  131OSM    C1F14118   2.787   2.170  38.292 -0.0111  0.4624  0.3309
  131OSM     OF14119   2.719   2.255  38.234  0.8847 -0.0152  0.3097
  131OSM    C2F14120   2.905   2.210  38.366  0.1989 -0.0979  0.4485
  131OSM    H2F14121   2.927   2.313  38.332  2.3414  0.0452  2.0473
  131OSM    H2G14122   2.987   2.144  38.330  0.9532  0.9014  0.3110
  131OSM    C3F14123   2.889   2.206  38.522  0.1299  0.1533 -0.4233
  131OSM    H3F14124   2.985   2.251  38.556 -0.7318  1.3283  0.5339
  131OSM    H3G14125   2.899   2.102  38.562  0.3102  0.3532  0.0499
  131OSM    C4F14126   2.774   2.294  38.576 -0.3204  0.8032 -0.6311
  131OSM    H4F14127   2.686   2.239  38.538  0.5500 -1.8367  0.8946
  131OSM    H4G14128   2.790   2.395  38.533  0.1826  2.3139  2.7670
  131OSM    C5F14129   2.764   2.277  38.734 -0.0605  0.1208  0.4161
  131OSM    H5F14130   2.764   2.373  38.790  2.6469  0.2960  0.2328
  131OSM    H5G14131   2.846   2.203  38.750  0.2090 -0.3668 -2.5472
  131OSM    C6F14132   2.630   2.206  38.780  0.2529 -0.6723 -0.4548
  131OSM    H6F14133   2.619   2.112  38.722 -1.1204 -1.4893  1.0687
  131OSM    H6G14134   2.545   2.270  38.750 -0.2593 -1.0556  0.1669
  131OSM    C7F14135   2.615   2.188  38.935 -0.9666 -0.0605 -0.5508
  131OSM    H7F14136   2.517   2.140  38.956 -1.0012  0.1630 -0.2005
  131OSM    H7G14137   2.601   2.288  38.980  1.8596  0.0093  0.3271
  131OSM    C8F14138   2.734   2.138  39.023 -0.1549 -0.7028  0.3831
  131OSM    H8F14139   2.707   2.172  39.125 -2.0273 -1.6163  0.2401
  131OSM    H8G14140   2.833   2.170  38.983  0.6428 -1.6243  1.5553
  131OSM    C9F14141   2.738   1.989  39.011  0.5740 -1.3387 -0.2990
  131OSM    H9F14142   2.686   1.953  38.921  2.0408 -0.2145 -1.6560
  131OSM   C10F14143   2.789   1.902  39.099  0.0967 -0.6035 -0.5450
  131OSM   H10F14144   2.765   1.796  39.082 -2.4430 -0.2643  0.4253
  131OSM   C11F14145   2.839   1.941  39.232 -0.0199 -0.3846 -0.1141
  131OSM   H11F14146   2.849   2.052  39.229  0.5841 -0.4401 -0.1964
  131OSM   H11G14147   2.934   1.888  39.252 -0.1885 -0.5853  0.1557
  131OSM   C12F14148   2.729   1.911  39.343  0.0212 -0.4414  0.0299
  131OSM   H12F14149   2.715   1.803  39.362  2.8970 -1.0903 -1.1387
  131OSM   H12G14150   2.635   1.955  39.305  1.2178  3.6650  1.2902
  131OSM   C13F14151   2.767   1.972  39.478 -0.1612 -0.1640 -0.1476
  131OSM   H13F14152   2.675   2.006  39.531  0.0698 -0.3636  0.3842
  131OSM   H13G14153   2.830   2.061  39.456  0.0924 -0.3001  0.0229
  131OSM   C14F14154   2.832   1.875  39.580 -0.2616 -0.3398  0.2066
  131OSM   H14F14155   2.928   1.856  39.526 -0.5329 -0.1396 -0.3530
  131OSM   H14G14156   2.775   1.780  39.590 -2.8860  1.1218 -0.2049
  131OSM   C15F14157   2.852   1.942  39.714 -0.2802  0.2135 -0.6591
  131OSM   H15F14158   2.752   1.980  39.747 -0.9831 -0.4483 -1.9620
  131OSM   H15G14159   2.917   2.031  39.701 -0.4223  0.4409  0.1120
  131OSM   C16F14160   2.919   1.849  39.815  0.3772  0.4515 -0.5200
  131OSM   H16F14161   2.934   1.914  39.904 -0.1866  0.2236 -0.2522
  131OSM   H16G14162   3.009   1.814  39.761  0.0887 -0.1611 -0.6085
  131OSM   C17F14163   2.826   1.731  39.858  0.1506  0.9456 -0.5896
  131OSM   H17F14164   2.809   1.672  39.766  3.2295 -0.7855 -0.1721
  131OSM   H17G14165   2.730   1.771  39.897 -0.2229  1.4836 -1.9988
  131OSM   C18F14166   2.902   1.636  39.953  0.2311 -0.4816  0.4043
  131OSM   H18F14167   2.920   1.701  40.041 -1.6638  2.2528 -1.0510
  131OSM   H18G14168   3.009   1.624  39.924  0.7050  0.1540  1.8234
  131OSM   H18H14169   2.856   1.540  39.982 -3.1264  1.0968  0.7781
  132OSM      N14170   1.039   2.262  52.477 -0.0312  0.5628 -0.3923
  132OSM    C1514171   0.929   2.363  52.445  0.5724 -0.3046  0.5389
  132OSM   H15A14172   0.853   2.349  52.521  0.0360 -0.1115  0.0420
  132OSM   H15B14173   0.895   2.343  52.345  2.5456 -0.1789 -0.2014
  132OSM   H15C14174   0.946   2.469  52.439 -0.9810 -0.1186 -1.9928
  132OSM    C1414175   1.143   2.274  52.378  0.3549  1.1639  0.4330
  132OSM   H14A14176   1.205   2.186  52.389 -0.0586  0.8381  0.2040
  132OSM   H14B14177   1.211   2.357  52.394 -0.3574  1.6743  0.8554
  132OSM   H14C14178   1.116   2.268  52.274  0.0492  0.4929  0.5512
  132OSM    C1314179   1.076   2.314  52.616 -0.6040 -0.0546 -0.1066
  132OSM   H13A14180   1.151   2.244  52.650 -0.7440 -0.2328 -0.1616
  132OSM   H13B14181   0.989   2.315  52.680  0.3814  0.2355  1.2791
  132OSM   H13C14182   1.114   2.415  52.612 -0.0713 -0.1965  1.1040
  132OSM    C1214183   0.975   2.124  52.474 -0.5318  0.0721  0.2173
  132OSM   H12A14184   0.953   2.100  52.371  0.7295  0.3239 -0.1209
  132OSM   H12B14185   0.882   2.123  52.529 -1.4344 -1.4690 -1.2156
  132OSM    C1114186   1.064   2.006  52.523 -0.6551  0.2105 -0.0858
  132OSM   H11A14187   1.004   1.914  52.538  0.4750 -1.0544 -2.7563
  132OSM   H11B14188   1.097   2.028  52.627 -2.2594  0.6241  0.3574
  132OSM      P14189   1.186   1.907  52.305 -0.1269 -0.0931  0.1513
  132OSM    O1314190   1.200   1.763  52.335  0.2239  0.1032 -0.3789
  132OSM    O1414191   1.071   1.952  52.219 -0.0206  0.5577 -0.3154
  132OSM    O1114192   1.312   1.963  52.235  0.2097 -0.6972  0.0662
  132OSM    O1214193   1.180   1.979  52.448  0.1123 -0.6469  0.3888
  132OSM    C1S14194   1.413   2.036  52.302 -0.0611 -0.3150  0.0035
  132OSM    H1S14195   1.444   1.983  52.395  0.0786 -1.6795 -0.7951
  132OSM    H1T14196   1.380   2.137  52.334 -1.4527 -0.0769 -2.0126
  132OSM     NF14197   1.632   2.133  52.302 -0.1646  0.5383  0.8201
  132OSM    HNF14198   1.645   2.230  52.285 -2.7930  0.7728 -0.4011
  132OSM    C2S14199   1.541   2.056  52.217 -0.3164 -0.7812 -0.6472
  132OSM    H2S14200   1.595   1.961  52.193  2.7178  0.6665 -0.0756
  132OSM    C3S14201   1.520   2.127  52.075  0.1787 -0.3181 -0.3806
  132OSM    H3S14202   1.482   2.228  52.103  2.4856  0.4025  0.4180
  132OSM     O314203   1.424   2.062  51.988 -0.3543  0.1062  0.3234
  132OSM    HO314204   1.357   2.033  52.051 -0.1588 -3.0617 -0.7600
  132OSM    C4S14205   1.648   2.144  52.006  0.2972 -1.1300 -0.1179
  132OSM    H4S14206   1.665   2.245  51.966  0.6409 -0.5920  1.3593
  132OSM    C5S14207   1.732   2.053  51.963  0.3717  0.8518  0.6330
  132OSM    H5S14208   1.710   1.949  51.995 -0.5319  0.4791 -1.0948
  132OSM    C6S14209   1.848   2.063  51.872  0.3026 -0.0871 -0.3588
  132OSM    H6S14210   1.807   2.037  51.772 -2.8683  0.2915  0.7628
  132OSM    H6T14211   1.927   1.995  51.911  1.4236  2.1940  1.6170
  132OSM    C7S14212   1.929   2.200  51.867 -0.7231 -0.4574 -0.1376
  132OSM    H7S14213   1.932   2.237  51.972  3.0370  0.4273 -0.4048
  132OSM    H7T14214   1.875   2.280  51.813 -2.1351 -0.3185  1.3848
  132OSM    C8S14215   2.074   2.182  51.805 -0.4001 -0.0085 -0.7111
  132OSM    H8S14216   2.125   2.100  51.861  0.7266 -2.5981 -5.0954
  132OSM    H8T14217   2.126   2.278  51.820 -1.7661  0.4768  1.3178
  132OSM    C9S14218   2.076   2.151  51.657 -0.1117 -0.3902 -0.8191
  132OSM    H9S14219   2.021   2.233  51.606  1.2732  1.8063  1.0377
  132OSM    H9T14220   2.032   2.050  51.648  1.2675 -1.7401  4.2857
  132OSM   C10S14221   2.212   2.152  51.583 -0.3841 -0.3765 -0.5263
  132OSM   H10S14222   2.250   2.254  51.602 -1.0166 -0.4434  1.3708
  132OSM   H10T14223   2.192   2.134  51.475 -0.9875  3.9194 -1.3241
  132OSM   C11S14224   2.316   2.047  51.623  0.2844  0.3600 -0.6318
  132OSM   H11S14225   2.337   2.045  51.732  3.0031 -2.6694 -1.0459
  132OSM   H11T14226   2.409   2.059  51.563 -0.7624 -1.3245 -2.7116
  132OSM   C12S14227   2.277   1.903  51.580 -0.0048 -0.6213 -0.0551
  132OSM   H12S14228   2.263   1.897  51.470 -1.4130  1.6336 -0.0646
  132OSM   H12T14229   2.183   1.867  51.627 -0.4678 -0.9596 -1.1915
  132OSM   C13S14230   2.388   1.809  51.623 -0.7207 -0.0134 -0.1235
  132OSM   H13S14231   2.401   1.801  51.733  1.0022  3.4628  0.0792
  132OSM   H13T14232   2.490   1.842  51.593 -0.0732 -0.4274  1.5036
  132OSM   C14S14233   2.377   1.667  51.571 -0.6284 -0.5307  0.2800
  132OSM   H14S14234   2.433   1.642  51.478 -1.7643  0.2086 -0.6280
  132OSM   H14T14235   2.274   1.655  51.533 -0.1627 -3.4493 -0.3012
  132OSM   C15S14236   2.390   1.567  51.685 -0.2689  0.9873  0.1316
  132OSM   H15S14237   2.469   1.595  51.757 -1.9502  3.8718  1.0150
  132OSM   H15T14238   2.396   1.475  51.623 -2.3827  1.9335 -1.6528
  132OSM   C16S14239   2.267   1.539  51.766  0.3118  0.2237  0.3206
  132OSM   H16S14240   2.178   1.558  51.703 -1.0634 -0.1503  2.0599
  132OSM   H16T14241   2.255   1.623  51.838  2.1725  0.0165  0.9226
  132OSM   C17S14242   2.274   1.399  51.825 -0.4384 -0.1443  0.2061
  132OSM   H17S14243   2.353   1.414  51.901 -1.2027 -2.8354  1.6766
  132OSM   H17T14244   2.308   1.331  51.744 -0.4250  0.9898 -0.7657
  132OSM   C18S14245   2.147   1.350  51.893  0.0559 -0.1912 -0.3745
  132OSM   H18S14246   2.121   1.421  51.975 -2.1438 -0.2112 -0.9863
  132OSM   H18T14247   2.176   1.255  51.943 -0.8736 -0.6015 -0.5921
  132OSM   H18U14248   2.057   1.344  51.829 -1.2853  0.7829  1.3374
  132OSM    C1F14249   1.691   2.087  52.418  0.2776  0.5957 -0.4247
  132OSM     OF14250   1.684   1.961  52.427  0.6581  0.2378  0.6970
  132OSM    C2F14251   1.761   2.176  52.516 -0.4936  0.5483  0.0070
  132OSM    H2F14252   1.723   2.280  52.508 -2.7474 -0.1719  0.6171
  132OSM    H2G14253   1.867   2.174  52.485 -0.6263 -0.2923 -0.4159
  132OSM    C3F14254   1.753   2.112  52.654 -0.5978 -0.1336 -0.2956
  132OSM    H3F14255   1.824   2.027  52.646 -0.6260 -0.2012  0.1226
  132OSM    H3G14256   1.660   2.065  52.692 -1.7956  1.7225 -0.7712
  132OSM    C4F14257   1.800   2.218  52.759 -0.5096 -0.3191  0.2700
  132OSM    H4F14258   1.760   2.191  52.858 -1.3344  2.7015  0.8840
  132OSM    H4G14259   1.756   2.316  52.728 -1.8693 -0.6321  1.1253
  132OSM    C5F14260   1.955   2.210  52.766 -0.1008  0.0682  0.2331
  132OSM    H5F14261   2.013   2.239  52.676 -0.6963 -3.1096 -1.2910
  132OSM    H5G14262   1.973   2.101  52.774  2.7031  0.1970 -2.4179
  132OSM    C6F14263   2.024   2.256  52.896  0.3927 -0.2168 -0.6606
  132OSM    H6F14264   1.940   2.279  52.965  1.8200 -2.4237  2.0085
  132OSM    H6G14265   2.086   2.348  52.885  0.8285 -0.6466 -2.0063
  132OSM    C7F14266   2.119   2.158  52.965 -0.2583  0.4529  0.1566
  132OSM    H7F14267   2.054   2.072  52.992  0.4171 -0.6206 -1.4759
  132OSM    H7G14268   2.160   2.214  53.052  0.5130  0.8675 -0.4656
  132OSM    C8F14269   2.236   2.118  52.872  0.4034 -0.3029  0.1652
  132OSM    H8F14270   2.298   2.210  52.866  0.5845 -0.5188 -1.8900
  132OSM    H8G14271   2.205   2.096  52.768  4.3321 -2.6499 -0.6989
  132OSM    C9F14272   2.305   1.996  52.924 -1.1288  0.6618 -0.5834
  132OSM    H9F14273   2.402   2.006  52.976 -1.6404  0.7689  0.3692
  132OSM   C10F14274   2.283   1.862  52.891 -0.1071 -0.5040  0.1590
  132OSM   H10F14275   2.343   1.790  52.948  0.5221  0.4294  0.6820
  132OSM   C11F14276   2.154   1.814  52.818 -0.3779 -0.5818  0.5030
  132OSM   H11F14277   2.100   1.881  52.749  1.0545 -0.1325 -0.2122
  132OSM   H11G14278   2.077   1.804  52.897 -4.1272  1.4301 -2.5796
  132OSM   C12F14279   2.173   1.667  52.759  0.0909  0.0747 -0.2452
  132OSM   H12F14280   2.071   1.622  52.751 -0.0991  0.5466 -0.4875
  132OSM   H12G14281   2.214   1.601  52.837 -1.7363 -3.4224 -1.9844
  132OSM   C13F14282   2.236   1.661  52.618 -0.0636 -0.2096  1.0526
  132OSM   H13F14283   2.243   1.553  52.591 -2.8494  0.0110 -0.9639
  132OSM   H13G14284   2.345   1.684  52.616  0.7838 -3.5603  1.2583
  132OSM   C14F14285   2.157   1.728  52.505 -0.0587  0.1795  0.6399
  132OSM   H14F14286   2.146   1.834  52.537 -0.6776  0.8246 -1.5132
  132OSM   H14G14287   2.056   1.683  52.508  0.2188 -0.6844 -1.2415
  132OSM   C15F14288   2.230   1.703  52.368  0.0296 -0.5363  0.6199
  132OSM   H15F14289   2.244   1.595  52.344  0.7124 -0.3471  0.1052
  132OSM   H15G14290   2.331   1.748  52.360 -0.8611  1.2542 -1.4943
  132OSM   C16F14291   2.165   1.780  52.251 -0.3170  0.7692 -0.0938
  132OSM   H16F14292   2.174   1.889  52.272 -0.4245  0.5684  1.0874
  132OSM   H16G14293   2.057   1.753  52.239  0.3671 -3.7808  1.8578
  132OSM   C17F14294   2.232   1.751  52.122 -0.5138 -0.2674  0.1753
  132OSM   H17F14295   2.178   1.808  52.043  0.6623  1.9415  0.8764
  132OSM   H17G14296   2.233   1.644  52.095  2.5047 -0.5079  0.9663
  132OSM   C18F14297   2.384   1.775  52.096  0.5004 -0.0261 -0.4483
  132OSM   H18F14298   2.406   1.878  52.130 -1.4811  0.3378 -0.1710
  132OSM   H18G14299   2.401   1.776  51.986  1.4792  1.6858 -0.3197
  132OSM   H18H14300   2.448   1.711  52.162  0.5841  0.5284  0.0131
  133SAPE     N14301   0.019   1.543  67.911  0.2126  0.2225 -0.4440
  133SAPE   HN114302   0.040   1.448  67.875  0.3281  0.3351 -0.6743
  133SAPE   HN214303  -0.071   1.563  67.863 -0.4080 -1.8737 -0.2700
  133SAPE   HN314304   0.091   1.609  67.876  1.9300 -2.5898 -2.6359
  133SAPE   C1214305   0.010   1.551  68.058  0.0622 -0.2979  0.4338
  133SAPE  H12A14306   0.022   1.655  68.096  0.4717 -0.5602  1.0350
  133SAPE  H12B14307   0.094   1.493  68.103  1.6561  1.0776 -0.6422
  133SAPE   C1114308  -0.127   1.509  68.110  0.9102  0.8024 -0.6060
  133SAPE  H11A14309  -0.119   1.493  68.220 -0.7864 -0.9391 -0.6715
  133SAPE  H11B14310  -0.159   1.408  68.074  5.0071 -1.0845  0.4161
  133SAPE     P14311  -0.249   1.744  68.132 -0.3301 -0.7347  0.1502
  133SAPE   O1314312  -0.173   1.759  68.254 -0.2494 -0.4876 -0.2619
  133SAPE   O1414313  -0.210   1.836  68.020 -0.1210 -0.5964  0.4527
  133SAPE   O1214314  -0.237   1.593  68.074  0.0470 -0.1086 -0.5569
  133SAPE   O1114315  -0.398   1.771  68.158 -0.0003 -0.9153  0.8991
  133SAPE    C114316  -0.507   1.692  68.120  0.3101 -0.5480 -0.1025
  133SAPE    HA14317  -0.585   1.761  68.079  1.6858  3.0029  2.7125
  133SAPE    HB14318  -0.485   1.618  68.041  0.4692  0.9287 -1.4832
  133SAPE    C214319  -0.559   1.592  68.224  0.3106  0.0178 -0.4750
  133SAPE    HS14320  -0.586   1.646  68.317  0.6311 -0.3613 -0.1601
  133SAPE   O2114321  -0.462   1.482  68.248 -0.1624 -0.4770  0.3956
  133SAPE   C2114322  -0.463   1.424  68.366 -0.9748 -0.1325  0.8720
  133SAPE   O2214323  -0.538   1.458  68.457 -0.7442  0.9814  0.0971
  133SAPE   C2214324  -0.360   1.313  68.383  0.4664  0.5922 -0.6979
  133SAPE   H2R14325  -0.388   1.228  68.318 -1.0027  0.9840 -0.6142
  133SAPE   H2S14326  -0.261   1.348  68.346  0.9421 -0.5119 -0.5055
  133SAPE    C314327  -0.705   1.537  68.168 -0.4840  0.6951  0.6752
  133SAPE    HX14328  -0.752   1.471  68.244 -1.3616  1.9625  1.2882
  133SAPE    HY14329  -0.673   1.470  68.086 -2.5838 -1.4361  1.4860
  133SAPE   O3114330  -0.785   1.641  68.120  0.6513 -0.4005  0.0060
  133SAPE   C3114331  -0.891   1.592  68.044 -1.2510 -0.3961 -0.9027
  133SAPE   O3214332  -0.911   1.474  68.023 -0.0857 -0.5538  0.9155
  133SAPE   C3214333  -0.991   1.698  68.010 -0.6879  0.1075  0.1943
  133SAPE   H2X14334  -1.007   1.758  68.102 -2.4879 -0.6440  0.4128
  133SAPE   H2Y14335  -1.087   1.643  68.002 -0.6010 -0.2617  1.5455
  133SAPE   C2314336  -0.323   1.288  68.531  0.3332  0.1118  0.9041
  133SAPE   H3R14337  -0.311   1.384  68.585  0.7561 -0.2340  1.4301
  133SAPE   H3S14338  -0.225   1.238  68.539  1.2404  1.7649  0.5718
  133SAPE   C2414339  -0.426   1.200  68.596  0.5005 -0.0514  0.2215
  133SAPE   H4R14340  -0.529   1.234  68.573  0.3781  0.6710  1.7504
  133SAPE   H4S14341  -0.390   1.188  68.700  2.1972  1.3446 -0.1435
  133SAPE   C2514342  -0.425   1.058  68.542  0.2412 -0.4358 -0.4882
  133SAPE   H5R14343  -0.366   1.041  68.451  1.1471 -3.0099  0.4750
  133SAPE   C2614344  -0.491   0.956  68.599 -0.5309  0.0546 -0.0521
  133SAPE   H6R14345  -0.480   0.851  68.571  1.4010  0.0289  0.6860
  133SAPE   C2714346  -0.575   0.976  68.726  0.1987 -0.9270 -0.1553
  133SAPE   H7R14347  -0.680   0.961  68.693 -0.4630  1.8177  0.4526
  133SAPE   H7S14348  -0.569   1.075  68.777 -2.6790 -0.8557  0.2555
  133SAPE   C2814349  -0.536   0.869  68.831 -0.1173 -0.1026  0.7884
  133SAPE   H8R14350  -0.464   0.793  68.798  1.2957  0.9620  1.3113
  133SAPE   C2914351  -0.605   0.846  68.945 -0.3550  1.3978  0.5873
  133SAPE   H9R14352  -0.562   0.773  69.014  2.0309  0.0267 -2.1103
  133SAPE  C21014353  -0.717   0.933  68.993 -0.4023 -0.5685  0.6550
  133SAPE  H10R14354  -0.766   0.988  68.910 -0.8974 -0.7800  0.8061
  133SAPE  H10S14355  -0.679   1.010  69.063  0.2774  0.8417 -1.1756
  133SAPE  C21114356  -0.818   0.831  69.045 -0.3218 -0.0433  0.0580
  133SAPE  H11R14357  -0.867   0.774  68.964 -0.6797 -0.3344  0.4774
  133SAPE  C21214358  -0.849   0.803  69.175 -0.1113 -0.6720 -0.0986
  133SAPE  H12R14359  -0.917   0.721  69.202  0.4713 -1.0008  0.3769
  133SAPE  C21314360  -0.800   0.885  69.293 -0.1877 -0.2985 -0.1058
  133SAPE  H13R14361  -0.867   0.861  69.379 -0.4865  0.3897 -0.1382
  133SAPE  H13S14362  -0.807   0.994  69.270  0.3197 -0.7713 -2.8247
  133SAPE  C21414363  -0.656   0.854  69.324  0.0889  1.3433 -0.3321
  133SAPE  H14R14364  -0.595   0.897  69.243  0.2196 -2.3606 -2.3766
  133SAPE  C21514365  -0.593   0.798  69.435 -0.1482 -0.1598  0.3060
  133SAPE  H15R14366  -0.484   0.787  69.433 -0.3108 -1.9841 -1.1229
  133SAPE  C21614367  -0.646   0.724  69.558 -0.1923 -0.8747 -0.3727
  133SAPE  H16R14368  -0.638   0.614  69.548 -0.0750 -0.6425 -4.4843
  133SAPE  H16S14369  -0.755   0.747  69.560 -0.2345 -1.0774 -0.4035
  133SAPE  C21714370  -0.580   0.761  69.691 -0.3627  0.4954 -0.4156
  133SAPE  H17R14371  -0.470   0.773  69.683 -0.1728 -0.3643  0.5864
  133SAPE  H17S14372  -0.590   0.674  69.760  1.0992  0.3809 -0.3257
  133SAPE  C21814373  -0.643   0.883  69.765  0.0559  0.6423  0.8809
  133SAPE  H18R14374  -0.753   0.876  69.769  0.1198 -0.3669  1.1630
  133SAPE  H18S14375  -0.610   0.957  69.689  1.7965 -0.6298  0.3254
  133SAPE  C21914376  -0.581   0.906  69.907 -0.1283 -0.3120 -0.0923
  133SAPE  H19R14377  -0.470   0.906  69.908 -0.0955  1.4553 -0.6467
  133SAPE  H19S14378  -0.608   0.817  69.968 -0.8102 -1.5734 -2.1123
  133SAPE  C22014379  -0.631   1.035  69.970  0.1006  0.2136  0.6839
  133SAPE  H20R14380  -0.622   1.107  69.886  2.6784 -2.2895 -1.3732
  133SAPE  H20S14381  -0.567   1.067  70.055  2.0347 -1.0277 -0.2560
  133SAPE  H20T14382  -0.732   1.018  70.015 -0.3867  0.9778 -0.0821
  133SAPE   C3314383  -0.959   1.776  67.886  0.4942 -0.2209  0.4589
  133SAPE   H3X14384  -1.035   1.857  67.891 -1.2740 -1.7270 -0.6853
  133SAPE   H3Y14385  -0.966   1.733  67.784 -1.5118  1.2118 -0.0659
  133SAPE   C3414386  -0.825   1.859  67.899  1.4462  0.4084  0.0515
  133SAPE   H4X14387  -0.807   1.931  67.817 -1.9685  0.9741 -0.3379
  133SAPE   H4Y14388  -0.739   1.790  67.888  2.2472  1.6084 -1.6619
  133SAPE   C3514389  -0.803   1.929  68.030 -0.2510  0.1304 -0.0421
  133SAPE   H5X14390  -0.767   1.855  68.105  1.6118  1.1005  0.0911
  133SAPE   H5Y14391  -0.898   1.976  68.063 -0.3040  0.1378 -0.2074
  133SAPE   C3614392  -0.698   2.049  68.020  0.4593  0.8643 -0.1972
  133SAPE   H6X14393  -0.609   1.991  67.988 -2.7250 -3.3877 -2.2432
  133SAPE   H6Y14394  -0.684   2.091  68.123  3.4157 -0.5803  0.0945
  133SAPE   C3714395  -0.741   2.164  67.934  0.9047  0.6103  0.5072
  133SAPE   H7X14396  -0.830   2.216  67.976  0.8707  0.6585  0.3718
  133SAPE   H7Y14397  -0.761   2.134  67.829 -0.1850 -0.4478  0.9891
  133SAPE   C3814398  -0.642   2.287  67.922  0.6126 -0.3210 -0.1662
  133SAPE   H8X14399  -0.672   2.342  67.830  2.3425  1.8186  0.4608
  133SAPE   H8Y14400  -0.539   2.251  67.903  0.1911 -1.2324 -0.7851
  133SAPE   C3914401  -0.633   2.370  68.054 -0.2425 -0.3906  0.1472
  133SAPE   H9X14402  -0.529   2.392  68.086 -0.7379 -2.5116  3.8403
  133SAPE   H9Y14403  -0.682   2.300  68.126 -3.1930 -0.4572 -1.7616
  133SAPE  C31014404  -0.708   2.507  68.054  0.5583  0.2239 -0.6076
  133SAPE  H10X14405  -0.816   2.489  68.034 -0.0468  0.8838  1.7048
  133SAPE  H10Y14406  -0.670   2.565  67.967  1.4684  2.5492  1.2022
  133SAPE  C31114407  -0.696   2.566  68.201  0.4058 -0.0630  0.1951
  133SAPE  H11X14408  -0.588   2.568  68.224  0.0956 -1.3322  1.9605
  133SAPE  H11Y14409  -0.742   2.490  68.267  0.4484 -2.0790 -1.9467
  133SAPE  C31214410  -0.751   2.711  68.196 -0.4273 -0.5136 -0.8278
  133SAPE  H12X14411  -0.860   2.713  68.178 -0.2566  1.0666 -1.8195
  133SAPE  H12Y14412  -0.706   2.770  68.113 -0.7720  0.6934 -0.1790
  133SAPE  C31314413  -0.728   2.788  68.334  0.5013  0.2088  0.1199
  133SAPE  H13X14414  -0.736   2.731  68.430  1.3827 -0.8583 -0.4039
  133SAPE  H13Y14415  -0.803   2.869  68.327  1.6353  1.2607 -0.0801
  133SAPE  C31414416  -0.583   2.841  68.333  0.1535 -0.6689  0.1433
  133SAPE  H14X14417  -0.597   2.918  68.254  0.0991 -1.0403 -0.2142
  133SAPE  H14Y14418  -0.511   2.762  68.301  1.5338 -0.3934  2.3748
  133SAPE  C31514419  -0.527   2.882  68.465  0.5652  0.0260  0.6344
  133SAPE  H15X14420  -0.498   2.797  68.531 -0.4490  0.7169  2.0044
  133SAPE  H15Y14421  -0.611   2.924  68.523 -2.4695 -1.9677 -1.9377
  133SAPE  C31614422  -0.398   2.976  68.450  0.8884  0.2238  0.4205
  133SAPE  H16X14423  -0.328   2.930  68.377 -3.0724  0.7370 -4.2248
  133SAPE  H16Y14424  -0.354   2.967  68.551 -0.2576 -2.7460  0.7290
  133SAPE  C31714425  -0.435   3.112  68.414 -0.4519 -0.0062  0.5485
  133SAPE  H17X14426  -0.482   3.112  68.314  3.8406 -3.2779 -1.7952
  133SAPE  H17Y14427  -0.339   3.163  68.395 -0.3628  0.1665  1.3948
  133SAPE  C31814428  -0.502   3.193  68.522  0.0396  0.1969 -0.1651
  133SAPE  H18X14429  -0.436   3.225  68.606  1.1942  0.4958 -1.1591
  133SAPE  H18Y14430  -0.600   3.158  68.563  0.1779 -1.5070 -1.1592
  133SAPE  H18Z14431  -0.511   3.295  68.479 -2.1037  0.6991  1.3094
  134SAPE     N14432   2.225   0.781  56.732  0.4363 -0.9437 -0.7256
  134SAPE   HN114433   2.202   0.742  56.825 -1.0792 -2.1027 -1.5264
  134SAPE   HN214434   2.318   0.828  56.733  0.7186 -1.4813 -1.4101
  134SAPE   HN314435   2.157   0.859  56.719  0.9913 -0.1078  1.0925
  134SAPE   C1214436   2.208   0.669  56.638 -0.8168 -0.2174 -0.6841
  134SAPE  H12A14437   2.297   0.601  56.639 -1.1675 -0.6962  0.6577
  134SAPE  H12B14438   2.214   0.708  56.535 -0.7155 -0.2982 -0.7086
  134SAPE   C1114439   2.082   0.597  56.673  0.0853 -0.5665 -0.8976
  134SAPE  H11A14440   2.086   0.511  56.603  0.8750 -0.0526 -1.5179
  134SAPE  H11B14441   1.988   0.654  56.656  1.3873  2.4605  1.0811
  134SAPE     P14442   1.976   0.482  56.891 -0.5890 -0.4066  0.1587
  134SAPE   O1314443   1.957   0.353  56.820  0.1510 -0.1138  0.1768
  134SAPE   O1414444   1.999   0.463  57.036  0.7736 -0.1669  0.3032
  134SAPE   O1214445   2.091   0.570  56.815 -0.3580 -0.7728 -0.8144
  134SAPE   O1114446   1.844   0.575  56.864 -0.1040 -0.0505  0.4724
  134SAPE    C114447   1.726   0.521  56.918  0.2611  0.6911  0.6289
  134SAPE    HA14448   1.695   0.430  56.862  0.0459  0.1884  1.5423
  134SAPE    HB14449   1.719   0.500  57.027 -1.4780 -2.7187 -0.0011
  134SAPE    C214450   1.615   0.627  56.889  0.2240 -0.3867 -0.0535
  134SAPE    HS14451   1.527   0.572  56.927 -0.4505  1.6246  1.5009
  134SAPE   O2114452   1.592   0.667  56.749 -0.0453  1.1957  0.1185
  134SAPE   C2114453   1.549   0.578  56.659 -0.6784  0.1729 -0.5672
  134SAPE   O2214454   1.518   0.461  56.681  0.0007  0.5621  0.3134
  134SAPE   C2214455   1.576   0.644  56.522  0.2867 -0.3126  0.7589
  134SAPE   H2R14456   1.617   0.746  56.534 -2.2907  1.0165 -0.9528
  134SAPE   H2S14457   1.655   0.577  56.481 -0.7494  0.1097 -2.1871
  134SAPE    C314458   1.635   0.749  56.978 -0.0459 -0.2218 -0.4583
  134SAPE    HX14459   1.745   0.756  56.992  0.3697 -3.0438 -1.5119
  134SAPE    HY14460   1.594   0.731  57.080  0.7992 -0.5675 -0.1608
  134SAPE   O3114461   1.582   0.865  56.913  0.6100 -0.5868  0.0780
  134SAPE   C3114462   1.443   0.878  56.909  0.5334  0.6156 -0.1644
  134SAPE   O3214463   1.368   0.812  56.981 -0.3692 -0.3460  0.5332
  134SAPE   C3214464   1.398   0.976  56.804 -0.5823 -0.4864  0.2560
  134SAPE   H2X14465   1.415   0.927  56.706 -3.4477 -1.7536  0.2991
  134SAPE   H2Y14466   1.471   1.061  56.803 -0.2443 -0.7547 -1.4708
  134SAPE   C2314467   1.473   0.618  56.408  0.1549 -0.4861 -0.4431
  134SAPE   H3R14468   1.399   0.699  56.425  0.1606 -0.6048  0.1480
  134SAPE   H3S14469   1.432   0.515  56.401  2.0406 -1.4185  1.2643
  134SAPE   C2414470   1.557   0.624  56.271  0.6751  0.2831  0.0100
  134SAPE   H4R14471   1.582   0.517  56.256 -0.9415 -0.1175  0.0352
  134SAPE   H4S14472   1.648   0.684  56.291  0.9342 -0.5854  1.6407
  134SAPE   C2514473   1.474   0.676  56.151  0.1426  0.4901  0.0316
  134SAPE   H5R14474   1.365   0.682  56.163 -0.2670 -3.4620 -0.4678
  134SAPE   C2614475   1.514   0.689  56.024 -0.4358  0.0071  0.9861
  134SAPE   H6R14476   1.444   0.696  55.940  2.2625 -0.2706 -1.4435
  134SAPE   C2714477   1.650   0.659  55.965  0.2213 -0.7345 -0.1969
  134SAPE   H7R14478   1.731   0.692  56.034 -3.3510  3.1962  2.6641
  134SAPE   H7S14479   1.667   0.714  55.870 -1.2412 -1.2327 -0.7757
  134SAPE   C2814480   1.667   0.516  55.944 -0.1936  1.1923 -0.0695
  134SAPE   H8R14481   1.604   0.445  55.999  0.8243 -0.1226 -0.5575
  134SAPE   C2914482   1.771   0.468  55.861  0.5974  1.2740  0.5695
  134SAPE   H9R14483   1.799   0.363  55.844  2.9865  1.8414  0.5518
  134SAPE  C21014484   1.872   0.550  55.777 -0.8796 -0.1360  0.5759
  134SAPE  H10R14485   1.814   0.636  55.738  0.9131  1.8148  2.0442
  134SAPE  H10S14486   1.908   0.496  55.687  3.2816  0.3120  1.7853
  134SAPE  C21114487   1.986   0.595  55.863  0.0123  0.6152  1.1859
  134SAPE  H11R14488   1.970   0.630  55.966 -0.2240  0.8847  1.0630
  134SAPE  C21214489   2.115   0.585  55.828  0.4208  0.3685 -0.2089
  134SAPE  H12R14490   2.186   0.600  55.911  1.0079  2.1605 -0.9968
  134SAPE  C21314491   2.186   0.525  55.708  0.3298 -0.5076 -0.1941
  134SAPE  H13R14492   2.233   0.617  55.666 -0.8097  0.2098  0.0427
  134SAPE  H13S14493   2.110   0.506  55.628  0.5533  1.4461 -0.9345
  134SAPE  C21414494   2.275   0.404  55.725 -0.7936 -0.0544 -0.1793
  134SAPE  H14R14495   2.363   0.428  55.786 -1.7019  1.6551  0.5097
  134SAPE  C21514496   2.247   0.282  55.687 -0.4074 -0.5998  0.4199
  134SAPE  H15R14497   2.334   0.217  55.704  1.2441  2.2114  4.5157
  134SAPE  C21614498   2.139   0.225  55.613  0.5627 -0.0894  0.2456
  134SAPE  H16R14499   2.041   0.275  55.626  0.2100 -0.5773 -0.4675
  134SAPE  H16S14500   2.107   0.124  55.648  2.0151 -0.5393  0.3473
  134SAPE  C21714501   2.165   0.225  55.460  0.3357  0.0260  0.0509
  134SAPE  H17R14502   2.183   0.331  55.432 -1.5473  0.3397 -0.1160
  134SAPE  H17S14503   2.062   0.198  55.426 -0.2159  0.6380  1.1712
  134SAPE  C21814504   2.246   0.115  55.406 -0.1424 -1.0477 -0.2771
  134SAPE  H18R14505   2.212   0.015  55.440  2.3921 -0.9815  2.9253
  134SAPE  H18S14506   2.350   0.131  55.444  0.6273  0.3407 -2.7558
  134SAPE  C21914507   2.246   0.112  55.250 -0.7838 -0.8819 -0.0916
  134SAPE  H19R14508   2.316   0.032  55.216 -0.1428 -0.2869 -0.1785
  134SAPE  H19S14509   2.280   0.207  55.206  0.2217 -1.4018 -0.4766
  134SAPE  C22014510   2.109   0.068  55.203 -0.7716 -0.4215  1.1302
  134SAPE  H20R14511   2.062  -0.010  55.267  1.0591  0.2976  3.4827
  134SAPE  H20S14512   2.118   0.021  55.102  1.8019  1.9461  0.1443
  134SAPE  H20T14513   2.035   0.149  55.188  0.1634  0.5185  1.5085
  134SAPE   C3314514   1.257   1.037  56.816  1.2781  0.8190  0.0605
  134SAPE   H3X14515   1.260   1.062  56.924  3.0104 -1.8973  0.7453
  134SAPE   H3Y14516   1.174   0.964  56.801  2.0305  0.0894 -0.5874
  134SAPE   C3414517   1.231   1.165  56.735 -0.5692  0.9690  0.0265
  134SAPE   H4X14518   1.319   1.232  56.745 -0.9260  1.5183 -0.4910
  134SAPE   H4Y14519   1.137   1.217  56.763 -0.5183  0.8524  0.4169
  134SAPE   C3514520   1.212   1.131  56.585  0.0253  0.0654  0.0801
  134SAPE   H5X14521   1.128   1.060  56.600  1.3105 -1.6180 -0.2832
  134SAPE   H5Y14522   1.304   1.078  56.553 -0.3294 -0.2099 -0.4907
  134SAPE   C3614523   1.170   1.245  56.502 -0.4896 -0.8547 -0.2855
  134SAPE   H6X14524   1.251   1.318  56.526 -0.5700 -0.9585  0.3110
  134SAPE   H6Y14525   1.076   1.281  56.547  1.2099  0.7811  2.1834
  134SAPE   C3714526   1.151   1.206  56.361 -0.8113  0.0942  0.7129
  134SAPE   H7X14527   1.069   1.133  56.344 -0.1771 -0.1479 -1.6592
  134SAPE   H7Y14528   1.237   1.146  56.324  0.0877  0.1588  2.6113
  134SAPE   C3814529   1.145   1.339  56.287  0.3118 -0.6628 -0.6083
  134SAPE   H8X14530   1.250   1.370  56.270  0.3409  0.4065  1.3303
  134SAPE   H8Y14531   1.089   1.410  56.351 -1.3050 -0.0967 -2.5108
  134SAPE   C3914532   1.073   1.330  56.151  0.2086  0.1651 -1.3359
  134SAPE   H9X14533   0.982   1.267  56.142  0.4096 -0.3554  0.0455
  134SAPE   H9Y14534   1.153   1.266  56.107  1.2037 -0.6686  1.4444
  134SAPE  C31014535   1.053   1.454  56.074  0.1720 -0.2865  0.1341
  134SAPE  H10X14536   1.138   1.525  56.086 -0.8607  1.8309 -3.5187
  134SAPE  H10Y14537   0.963   1.514  56.101  1.4062  1.2727  0.9369
  134SAPE  C31114538   1.039   1.427  55.922  0.1101  0.2672 -0.5537
  134SAPE  H11X14539   0.964   1.346  55.911  0.0861 -0.0683  1.7205
  134SAPE  H11Y14540   1.134   1.384  55.883  0.0049  0.9711 -1.6511
  134SAPE  C31214541   0.988   1.553  55.845 -0.3401 -0.3269  0.5605
  134SAPE  H12X14542   1.074   1.617  55.817 -2.7870  2.4331 -1.1224
  134SAPE  H12Y14543   0.909   1.607  55.901 -0.6499  2.8381 -2.6385
  134SAPE  C31314544   0.930   1.513  55.710  0.2181  0.2069 -0.2002
  134SAPE  H13X14545   0.832   1.459  55.712 -1.2265  2.5670 -1.4491
  134SAPE  H13Y14546   1.010   1.454  55.659 -0.9909 -2.2878  0.6062
  134SAPE  C31414547   0.909   1.622  55.615 -0.1354 -0.2326  0.7823
  134SAPE  H14X14548   0.843   1.707  55.643 -0.8327 -0.2703 -0.6469
  134SAPE  H14Y14549   0.880   1.576  55.518 -1.1354 -0.4846  1.1846
  134SAPE  C31514550   1.043   1.697  55.562  0.9403  0.4083 -0.0625
  134SAPE  H15X14551   1.128   1.680  55.631 -0.5219 -1.8622  1.2952
  134SAPE  H15Y14552   1.006   1.801  55.544 -1.3348 -0.0512  1.5348
  134SAPE  C31614553   1.095   1.650  55.423  0.1117  0.1970  0.2593
  134SAPE  H16X14554   1.014   1.619  55.353 -0.7566  0.2346  1.2083
  134SAPE  H16Y14555   1.157   1.563  55.454  0.4947  1.0994  2.1748
  134SAPE  C31714556   1.166   1.773  55.351 -0.4700 -0.0558 -0.6678
  134SAPE  H17X14557   1.259   1.794  55.409 -0.5420  1.0039 -0.9109
  134SAPE  H17Y14558   1.108   1.868  55.360  1.4235  1.0564  0.4142
  134SAPE  C31814559   1.198   1.758  55.200  0.6246 -0.4616 -0.0909
  134SAPE  H18X14560   1.205   1.649  55.176 -2.7715 -1.2734  1.9410
  134SAPE  H18Y14561   1.298   1.796  55.168  0.0450 -2.2579 -4.9144
  134SAPE  H18Z14562   1.128   1.813  55.134  1.0625 -1.7700 -1.7204
  135SAPE     N14563   0.826   2.489  62.980 -0.7397  0.1949  0.2464
  135SAPE   HN114564   0.907   2.434  63.015  0.9165  3.5940  2.3091
  135SAPE   HN214565   0.762   2.500  63.061 -1.6764  1.5352 -0.6425
  135SAPE   HN314566   0.777   2.447  62.899  1.8407  0.5911 -1.6450
  135SAPE   C1214567   0.888   2.621  62.932 -0.2038 -0.5542  0.4846
  135SAPE  H12A14568   0.942   2.651  63.025  2.2984  0.2879 -1.1158
  135SAPE  H12B14569   0.811   2.694  62.900  2.5685  1.8507 -1.1855
  135SAPE   C1114570   0.996   2.594  62.825 -0.1974  0.5786 -0.3432
  135SAPE  H11A14571   1.032   2.689  62.780  2.9258 -0.1600  0.3435
  135SAPE  H11B14572   0.949   2.525  62.752 -4.1185  0.5745  1.9115
  135SAPE     P14573   1.240   2.589  62.937  0.3208  0.1188  0.5140
  135SAPE   O1314574   1.216   2.727  62.984 -0.4647  0.1472  0.0371
  135SAPE   O1414575   1.314   2.499  63.036  0.8631  1.0939  0.4597
  135SAPE   O1214576   1.101   2.531  62.906 -0.3612  0.2217  0.2222
  135SAPE   O1114577   1.304   2.601  62.790 -0.4671  0.0118  0.4516
  135SAPE    C114578   1.302   2.475  62.713 -0.0105 -0.1634 -0.6050
  135SAPE    HA14579   1.316   2.384  62.776 -0.2651 -1.1385 -1.9169
  135SAPE    HB14580   1.197   2.455  62.685 -1.2550  3.3480  0.9054
  135SAPE    C214581   1.390   2.479  62.585 -1.1065  0.0154 -0.1712
  135SAPE    HS14582   1.440   2.382  62.564 -0.0852  0.1079  1.6864
  135SAPE   O2114583   1.492   2.583  62.590  0.2726 -0.0630  0.1221
  135SAPE   C2114584   1.582   2.577  62.687  0.0454  0.2661  0.9363
  135SAPE   O2214585   1.596   2.481  62.763 -0.5774  0.3219 -0.3800
  135SAPE   C2214586   1.659   2.704  62.668 -0.1753  0.0022 -0.6300
  135SAPE   H2R14587   1.600   2.798  62.662  0.0947  0.2174 -0.0521
  135SAPE   H2S14588   1.720   2.716  62.760 -0.3216 -0.3449 -0.4851
  135SAPE    C314589   1.308   2.500  62.466 -0.0390  0.1916  1.2625
  135SAPE    HX14590   1.248   2.594  62.461  1.2052  0.9548 -2.6944
  135SAPE    HY14591   1.232   2.419  62.469 -1.0188  1.0624  0.6857
  135SAPE   O3114592   1.372   2.469  62.343  0.0035 -0.4805 -0.2630
  135SAPE   C3114593   1.423   2.575  62.285 -0.2248 -0.9866  0.1595
  135SAPE   O3214594   1.381   2.689  62.311 -0.1552  0.4170  0.5637
  135SAPE   C3214595   1.516   2.547  62.171  0.6454  0.1058 -1.0762
  135SAPE   H2X14596   1.617   2.534  62.214  0.3330 -2.9234 -1.0615
  135SAPE   H2Y14597   1.495   2.639  62.112 -3.5078 -0.9908 -1.6081
  135SAPE   C2314598   1.764   2.697  62.549 -1.0955  0.2157 -0.4846
  135SAPE   H3R14599   1.706   2.676  62.456  2.7014  0.1091 -3.0509
  135SAPE   H3S14600   1.841   2.617  62.562 -1.5200  0.2051  2.7358
  135SAPE   C2414601   1.849   2.823  62.528 -0.5475  0.1928 -0.1318
  135SAPE   H4R14602   1.923   2.786  62.454  0.7732  1.3682  0.5668
  135SAPE   H4S14603   1.914   2.837  62.616 -0.4950 -0.0135 -0.1385
  135SAPE   C2514604   1.770   2.941  62.472  0.1504 -0.3169 -0.4494
  135SAPE   H5R14605   1.732   3.012  62.546  3.1806  1.0261 -0.0422
  135SAPE   C2614606   1.773   2.983  62.336 -0.6272  0.4228 -0.1100
  135SAPE   H6R14607   1.707   3.059  62.291 -1.4789 -2.3092 -4.0058
  135SAPE   C2714608   1.842   2.926  62.222  0.7168 -0.1992  0.4462
  135SAPE   H7R14609   1.802   2.978  62.133 -1.8534 -2.2605  0.2795
  135SAPE   H7S14610   1.806   2.821  62.219 -1.7712  0.6188 -1.1996
  135SAPE   C2814611   1.989   2.912  62.217 -0.6511  0.5232 -0.3416
  135SAPE   H8R14612   2.046   2.952  62.302 -0.9390  2.0048 -0.8175
  135SAPE   C2914613   2.065   2.854  62.116 -0.3000  0.0245  0.2350
  135SAPE   H9R14614   2.174   2.866  62.117 -0.1262 -1.3474  1.2876
  135SAPE  C21014615   2.008   2.788  61.993 -0.7551  0.6496  0.2553
  135SAPE  H10R14616   1.929   2.717  62.028  0.6335 -0.6273  0.8937
  135SAPE  H10S14617   2.087   2.726  61.946  1.6191  3.1604  0.6965
  135SAPE  C21114618   1.943   2.871  61.881  0.6803  0.8615 -0.2224
  135SAPE  H11R14619   1.987   2.972  61.875  1.9813  0.5026  2.2621
  135SAPE  C21214620   1.849   2.829  61.789 -0.8820  0.8783 -0.4559
  135SAPE  H12R14621   1.824   2.889  61.700  2.2580  0.0926 -2.0385
  135SAPE  C21314622   1.790   2.694  61.805  0.8141  0.3269  0.4166
  135SAPE  H13R14623   1.695   2.691  61.747  0.6302 -1.1061  0.7412
  135SAPE  H13S14624   1.756   2.684  61.910  3.2525 -0.2236  1.2033
  135SAPE  C21414625   1.849   2.564  61.750  0.2427 -0.3674 -0.4474
  135SAPE  H14R14626   1.922   2.512  61.813  1.5709  1.1094 -0.6877
  135SAPE  C21514627   1.842   2.508  61.636  0.8521  0.1068  0.6074
  135SAPE  H15R14628   1.902   2.419  61.609  0.6959  0.2803 -0.3435
  135SAPE  C21614629   1.736   2.552  61.531 -0.0034  0.5656 -0.8072
  135SAPE  H16R14630   1.647   2.590  61.586  0.7215 -1.1162  1.6885
  135SAPE  H16S14631   1.698   2.471  61.464  2.4028  2.0345 -4.2509
  135SAPE  C21714632   1.807   2.641  61.431  1.2862 -0.1318 -0.8419
  135SAPE  H17R14633   1.856   2.728  61.480 -0.4835  0.9666 -0.9249
  135SAPE  H17S14634   1.739   2.687  61.356 -0.1405 -0.0822  0.4367
  135SAPE  C21814635   1.921   2.577  61.353  0.6940 -0.0314  0.5853
  135SAPE  H18R14636   2.000   2.530  61.414  1.4125 -1.7334 -1.5050
  135SAPE  H18S14637   1.968   2.665  61.303 -4.7227  2.3749 -1.1114
  135SAPE  C21914638   1.865   2.472  61.253  0.3151  0.0003  0.5810
  135SAPE  H19R14639   1.914   2.474  61.154 -1.0907 -2.7611 -0.2649
  135SAPE  H19S14640   1.755   2.485  61.242  0.4539  1.7538  0.9233
  135SAPE  C22014641   1.892   2.331  61.317  0.1276 -0.4736 -0.1443
  135SAPE  H20R14642   1.832   2.251  61.268 -2.0218  1.4663 -0.8678
  135SAPE  H20S14643   1.882   2.329  61.428  4.8481 -3.4340  0.4938
  135SAPE  H20T14644   1.997   2.314  61.285  1.1095  0.3817  2.3576
  135SAPE   C3314645   1.482   2.420  62.088  0.3695 -0.6183 -0.1954
  135SAPE   H3X14646   1.378   2.421  62.049  0.6763 -0.6159 -1.0345
  135SAPE   H3Y14647   1.498   2.334  62.156  1.8787 -1.2524 -1.3057
  135SAPE   C3414648   1.581   2.401  61.964  0.2932  0.2304 -0.4667
  135SAPE   H4X14649   1.686   2.402  62.000 -0.7759 -2.0767  3.4084
  135SAPE   H4Y14650   1.571   2.475  61.882 -0.2211  0.8521  0.1476
  135SAPE   C3514651   1.580   2.259  61.908 -0.4286  0.1513 -0.4334
  135SAPE   H5X14652   1.564   2.202  62.002 -1.7656 -4.4201 -3.1232
  135SAPE   H5Y14653   1.685   2.250  61.874  0.8215  4.5333  1.5497
  135SAPE   C3614654   1.479   2.216  61.809  0.3226 -0.8145  0.9069
  135SAPE   H6X14655   1.386   2.274  61.824 -0.1989 -1.3446 -0.1899
  135SAPE   H6Y14656   1.445   2.112  61.829 -2.0345 -0.6662 -1.7525
  135SAPE   C3714657   1.530   2.240  61.662  1.0117  0.0562 -0.2074
  135SAPE   H7X14658   1.637   2.212  61.656  0.7630 -0.6622 -3.5756
  135SAPE   H7Y14659   1.526   2.348  61.634  3.4913  0.4943  0.8375
  135SAPE   C3814660   1.457   2.167  61.550 -0.2556 -0.2338 -0.6081
  135SAPE   H8X14661   1.477   2.059  61.568 -3.6365 -1.0606 -1.1277
  135SAPE   H8Y14662   1.482   2.201  61.448 -1.6978  1.4997 -0.4411
  135SAPE   C3914663   1.308   2.195  61.555 -0.4723  0.1385  0.1616
  135SAPE   H9X14664   1.296   2.292  61.607  1.3062  0.7735 -0.5416
  135SAPE   H9Y14665   1.248   2.127  61.620 -3.4540  1.5618 -0.9267
  135SAPE  C31014666   1.233   2.204  61.420  0.9985  0.3303  0.4917
  135SAPE  H10X14667   1.274   2.283  61.353 -3.1906  0.8858 -1.7979
  135SAPE  H10Y14668   1.138   2.251  61.453  0.7278 -0.4619  0.8623
  135SAPE  C31114669   1.210   2.070  61.350  0.3335  0.1532 -0.1407
  135SAPE  H11X14670   1.101   2.053  61.342  0.4437 -1.0856  0.6297
  135SAPE  H11Y14671   1.247   1.980  61.404  0.6598 -0.4516 -1.3413
  135SAPE  C31214672   1.276   2.078  61.213 -0.6573 -0.3674 -0.0690
  135SAPE  H12X14673   1.251   2.180  61.177 -2.6293 -0.9564 -0.4895
  135SAPE  H12Y14674   1.239   2.000  61.143 -1.4065  0.3833 -0.5352
  135SAPE  C31314675   1.432   2.053  61.221 -0.1237 -1.1262 -0.8385
  135SAPE  H13X14676   1.436   2.010  61.323 -4.3062  1.3135  0.6225
  135SAPE  H13Y14677   1.490   2.148  61.230 -1.3772 -0.3568 -0.4834
  135SAPE  C31414678   1.504   1.961  61.116 -0.1852  0.2063  0.2667
  135SAPE  H14X14679   1.477   1.997  61.015  0.4028 -0.5438 -0.1720
  135SAPE  H14Y14680   1.436   1.873  61.123 -0.2188  0.1463 -0.6870
  135SAPE  C31514681   1.657   1.923  61.146  0.6078 -0.3400 -0.4468
  135SAPE  H15X14682   1.683   1.828  61.096  0.3876 -0.6877  0.0858
  135SAPE  H15Y14683   1.669   1.923  61.256  2.3241 -2.0218 -0.6036
  135SAPE  C31614684   1.757   2.037  61.095 -0.3634  1.3301 -1.1329
  135SAPE  H16X14685   1.734   2.127  61.156 -1.1032  1.6195 -1.8117
  135SAPE  H16Y14686   1.737   2.056  60.987  0.9474 -1.9724 -2.0764
  135SAPE  C31714687   1.904   1.999  61.125  0.8828 -0.1729  0.0078
  135SAPE  H17X14688   1.908   1.987  61.235 -1.8263  1.0511  0.3255
  135SAPE  H17Y14689   1.965   2.090  61.106 -1.1004  0.9490 -1.2536
  135SAPE  C31814690   1.961   1.880  61.051 -0.5919  0.8539  0.8110
  135SAPE  H18X14691   1.961   1.893  60.941 -1.1631  1.8818  0.9236
  135SAPE  H18Y14692   1.903   1.789  61.077  1.0910 -0.5325 -0.0853
  135SAPE  H18Z14693   2.070   1.862  61.064 -0.6167 -0.6255 -0.7220
  136SAPE     N14694   2.565   0.730  59.500  0.0280  0.5523 -0.0996
  136SAPE   HN114695   2.463   0.714  59.511 -0.1509  0.5123 -1.6130
  136SAPE   HN214696   2.581   0.772  59.406 -2.9582  0.6899 -0.6222
  136SAPE   HN314697   2.595   0.631  59.482 -1.4083  0.5606 -3.2094
  136SAPE   C1214698   2.620   0.804  59.619 -0.9272  0.4831 -0.6351
  136SAPE  H12A14699   2.547   0.886  59.636 -0.0500  0.9121  1.4142
  136SAPE  H12B14700   2.719   0.844  59.589 -1.2855  1.2603 -0.8143
  136SAPE   C1114701   2.637   0.728  59.757 -0.5495  0.1802  0.4977
  136SAPE  H11A14702   2.558   0.743  59.834 -0.1537 -2.9946  1.6795
  136SAPE  H11B14703   2.733   0.761  59.803  0.1147 -2.1037  0.9134
  136SAPE     P14704   2.756   0.498  59.737 -0.0821 -0.1891  0.4639
  136SAPE   O1314705   2.712   0.371  59.683  0.2365 -0.3043 -1.0236
  136SAPE   O1414706   2.856   0.571  59.650  0.5230 -0.8352 -0.2883
  136SAPE   O1214707   2.626   0.585  59.743 -0.3708 -0.7339 -0.2155
  136SAPE   O1114708   2.815   0.475  59.874  0.2896  0.3387 -0.1207
  136SAPE    C114709   2.837   0.341  59.928  0.2989  0.3393 -0.0655
  136SAPE    HA14710   2.862   0.269  59.847  0.7158  0.7897 -0.3411
  136SAPE    HB14711   2.925   0.351  59.995 -2.1086  1.4665  3.1475
  136SAPE    C214712   2.721   0.297  60.019 -0.6482  1.3651 -0.1351
  136SAPE    HS14713   2.627   0.332  59.971 -0.2331  3.0719  0.2432
  136SAPE   O2114714   2.739   0.343  60.149 -0.3654  0.0950 -0.4849
  136SAPE   C2114715   2.638   0.415  60.195 -0.1601  0.6439 -0.5270
  136SAPE   O2214716   2.525   0.412  60.143  0.1228 -0.0682 -0.5722
  136SAPE   C2214717   2.687   0.504  60.314  0.7223 -0.8102 -0.0334
  136SAPE   H2R14718   2.742   0.443  60.388  1.4599 -0.0749  0.0358
  136SAPE   H2S14719   2.763   0.574  60.273  0.5483 -0.8109 -0.3631
  136SAPE    C314720   2.708   0.144  60.023 -0.7609  0.5201  0.9098
  136SAPE    HX14721   2.698   0.111  59.917  1.4091  2.0431  0.1681
  136SAPE    HY14722   2.620   0.114  60.084 -0.2543 -1.1551  0.8689
  136SAPE   O3114723   2.838   0.097  60.082  0.1460 -0.9257  0.4539
  136SAPE   C3114724   2.847  -0.029  60.104 -0.4643  0.4413 -0.8524
  136SAPE   O3214725   2.756  -0.108  60.083  0.6895 -0.8102 -0.0434
  136SAPE   C3214726   2.973  -0.062  60.189 -0.1941  0.9168 -1.0318
  136SAPE   H2X14727   2.989  -0.172  60.192 -3.6319  0.3272 -0.3251
  136SAPE   H2Y14728   2.920  -0.048  60.286 -0.2754 -2.7376 -0.3995
  136SAPE   C2314729   2.568   0.563  60.394 -1.1168  0.6079  0.3104
  136SAPE   H3R14730   2.507   0.473  60.419 -3.3381  1.1727 -2.4420
  136SAPE   H3S14731   2.509   0.638  60.336  0.8545  1.8859 -0.1142
  136SAPE   C2414732   2.612   0.637  60.515 -0.2548  0.1675 -0.2506
  136SAPE   H4R14733   2.676   0.571  60.577 -0.0392  0.5552 -0.0498
  136SAPE   H4S14734   2.526   0.655  60.584 -3.3541 -2.9057 -2.9770
  136SAPE   C2514735   2.669   0.768  60.477  0.3223 -0.4637  0.5876
  136SAPE   H5R14736   2.697   0.777  60.371 -1.3804  0.5030  0.1867
  136SAPE   C2614737   2.701   0.867  60.563 -0.4391 -0.3838  0.5158
  136SAPE   H6R14738   2.745   0.957  60.518 -1.4289 -1.9461 -4.0396
  136SAPE   C2714739   2.661   0.865  60.704  0.8553  0.1863 -0.3607
  136SAPE   H7R14740   2.727   0.784  60.741  2.2443  0.8472 -1.3100
  136SAPE   H7S14741   2.563   0.815  60.718  1.0505  0.5189  2.9782
  136SAPE   C2814742   2.675   0.998  60.777 -0.0172  0.3001 -0.0701
  136SAPE   H8R14743   2.590   1.059  60.807 -0.9244 -2.0483  2.5780
  136SAPE   C2914744   2.784   1.031  60.846 -0.9333 -0.4439 -0.4261
  136SAPE   H9R14745   2.775   1.122  60.908  1.5975 -1.5117  1.7325
  136SAPE  C21014746   2.902   0.945  60.887 -0.2789  0.5443 -0.4177
  136SAPE  H10R14747   2.910   0.853  60.825  1.5516  2.0443 -2.5717
  136SAPE  H10S14748   2.886   0.899  60.987 -0.5406  0.1362 -0.6420
  136SAPE  C21114749   3.026   1.031  60.891  0.1652  0.0264  0.6055
  136SAPE  H11R14750   3.032   1.116  60.821  1.7800  1.1889  2.0729
  136SAPE  C21214751   3.138   1.017  60.963  0.5439 -0.1790  0.4008
  136SAPE  H12R14752   3.208   1.102  60.966  1.9047 -1.0373 -2.7387
  136SAPE  C21314753   3.163   0.902  61.064 -0.2167  0.1807  0.6946
  136SAPE  H13R14754   3.099   0.817  61.030  0.9926 -0.3670 -0.2817
  136SAPE  H13S14755   3.118   0.927  61.163 -1.9496 -1.5796  0.4198
  136SAPE  C21414756   3.312   0.871  61.065 -0.0512 -0.7627 -0.6639
  136SAPE  H14R14757   3.384   0.928  61.005  0.9319 -3.1185 -1.8766
  136SAPE  C21514758   3.372   0.777  61.144 -0.8482  0.7385 -0.7889
  136SAPE  H15R14759   3.480   0.772  61.122 -0.1097 -1.9795  2.5380
  136SAPE  C21614760   3.310   0.677  61.234 -0.0281  0.2840 -0.1881
  136SAPE  H16R14761   3.365   0.583  61.211  2.2452  0.7003  2.9187
  136SAPE  H16S14762   3.204   0.669  61.200 -0.1635  1.6062 -0.1149
  136SAPE  C21714763   3.296   0.713  61.383  0.5656  0.1047 -0.1613
  136SAPE  H17R14764   3.246   0.812  61.387  1.1651  0.4077 -0.0292
  136SAPE  H17S14765   3.391   0.737  61.436  2.0117 -2.0390 -1.6405
  136SAPE  C21814766   3.228   0.605  61.466 -0.1601 -0.3710 -0.7636
  136SAPE  H18R14767   3.282   0.510  61.448  0.5431 -0.2271  0.4838
  136SAPE  H18S14768   3.125   0.589  61.427 -1.1904  4.2399 -0.4638
  136SAPE  C21914769   3.219   0.641  61.613  0.6812  0.7395 -0.0074
  136SAPE  H19R14770   3.156   0.732  61.624  2.3948  1.7911  1.8038
  136SAPE  H19S14771   3.319   0.670  61.652  0.0935  0.9859  1.3796
  136SAPE  C22014772   3.163   0.537  61.709 -0.4915  1.1172 -0.7104
  136SAPE  H20R14773   3.125   0.568  61.808 -0.5336  0.2395 -0.4379
  136SAPE  H20S14774   3.228   0.450  61.732 -3.3615 -0.4792  2.0950
  136SAPE  H20T14775   3.082   0.492  61.647 -0.9979 -0.3945  0.9674
  136SAPE   C3314776   3.108   0.020  60.168  0.8389 -0.4188  0.8767
  136SAPE   H3X14777   3.085   0.126  60.141  2.5800 -0.0250  0.8423
  136SAPE   H3Y14778   3.148  -0.025  60.075  0.3659 -1.6586  1.2527
  136SAPE   C3414779   3.202   0.018  60.286  0.3282  0.1260 -0.2714
  136SAPE   H4X14780   3.166   0.042  60.388  2.0403 -1.2044  0.7070
  136SAPE   H4Y14781   3.265   0.105  60.256  0.1611  0.1436 -0.5723
  136SAPE   C3514782   3.295  -0.101  60.313 -0.2324 -0.1031 -0.0906
  136SAPE   H5X14783   3.365  -0.118  60.228  0.9572  2.5232  0.2528
  136SAPE   H5Y14784   3.229  -0.191  60.309 -1.7328  0.9215  0.3955
  136SAPE   C3614785   3.373  -0.100  60.444 -0.2700 -0.2144  0.4544
  136SAPE   H6X14786   3.295  -0.079  60.520 -2.3954  1.2524 -1.9530
  136SAPE   H6Y14787   3.447  -0.017  60.451  2.4579 -2.6160  2.7945
  136SAPE   C3714788   3.439  -0.230  60.473  0.5561 -0.6625  0.5222
  136SAPE   H7X14789   3.531  -0.242  60.411  2.3443  2.1460  2.4233
  136SAPE   H7Y14790   3.376  -0.316  60.442  0.5877 -0.7378  0.6686
  136SAPE   C3814791   3.455  -0.259  60.625 -0.4172 -1.8224  0.6539
  136SAPE   H8X14792   3.359  -0.270  60.680 -1.4071 -1.2011 -0.8795
  136SAPE   H8Y14793   3.495  -0.176  60.686 -1.0129 -1.3636  0.4224
  136SAPE   C3914794   3.504  -0.403  60.658 -0.6610 -0.1120  0.2651
  136SAPE   H9X14795   3.435  -0.463  60.595 -1.1032  1.0387 -0.3705
  136SAPE   H9Y14796   3.499  -0.427  60.767  3.0350 -1.4811  0.2931
  136SAPE  C31014797   3.642  -0.443  60.606 -0.2283 -0.1188  0.5667
  136SAPE  H10X14798   3.725  -0.376  60.636  1.6078 -2.1963  0.4467
  136SAPE  H10Y14799   3.642  -0.447  60.495  0.8388 -2.0195  0.5872
  136SAPE  C31114800   3.694  -0.579  60.653  0.1274  0.5048 -0.7086
  136SAPE  H11X14801   3.610  -0.650  60.673 -1.3333  2.9046  2.6807
  136SAPE  H11Y14802   3.736  -0.571  60.755  0.3753 -0.5129 -0.7139
  136SAPE  C31214803   3.802  -0.631  60.549  0.0733 -0.9614 -0.8778
  136SAPE  H12X14804   3.879  -0.552  60.557 -1.7470  1.1537 -3.0661
  136SAPE  H12Y14805   3.757  -0.619  60.448  1.5607  1.6592 -1.2876
  136SAPE  C31314806   3.864  -0.771  60.557  0.0543 -0.3264  1.1223
  136SAPE  H13X14807   3.881  -0.805  60.661 -1.1158 -3.0784  0.5008
  136SAPE  H13Y14808   3.968  -0.766  60.516 -0.6243  1.6384 -0.5171
  136SAPE  C31414809   3.812  -0.877  60.460 -0.0638  0.1944 -0.1178
  136SAPE  H14X14810   3.708  -0.912  60.480  0.7426 -0.2243  4.4431
  136SAPE  H14Y14811   3.866  -0.970  60.485 -3.6734 -1.2116  3.4292
  136SAPE  C31514812   3.827  -0.856  60.309  0.0571  0.0299  0.6216
  136SAPE  H15X14813   3.931  -0.824  60.291  0.3732 -1.6635 -0.8783
  136SAPE  H15Y14814   3.752  -0.784  60.269  0.2987 -0.4980 -0.8337
  136SAPE  C31614815   3.797  -0.980  60.218  0.1441  0.0780 -0.0552
  136SAPE  H16X14816   3.883  -1.050  60.221  0.2205  0.1983  0.9576
  136SAPE  H16Y14817   3.803  -0.931  60.118 -2.1230  3.5922  1.3446
  136SAPE  C31714818   3.668  -1.053  60.245 -0.4306  0.6452  0.1159
  136SAPE  H17X14819   3.591  -0.977  60.267 -1.0316 -0.3576  1.6671
  136SAPE  H17Y14820   3.676  -1.115  60.337 -2.7390 -0.4167 -0.3261
  136SAPE  C31814821   3.603  -1.124  60.116 -0.3212 -1.0254  0.8118
  136SAPE  H18X14822   3.674  -1.176  60.049 -1.5098 -2.2101  0.4288
  136SAPE  H18Y14823   3.555  -1.041  60.061  1.9385 -1.3304 -1.8300
  136SAPE  H18Z14824   3.520  -1.192  60.145 -1.8643  0.4424  0.0163
  137SAPE     N14825   1.284   0.843  57.374 -0.0708 -0.9176  0.0846
  137SAPE   HN114826   1.201   0.887  57.418 -0.3135  0.8632 -1.9958
  137SAPE   HN214827   1.247   0.757  57.328 -2.7394  0.8691 -1.3829
  137SAPE   HN314828   1.339   0.806  57.455 -0.5342  0.7497  1.2009
  137SAPE   C1214829   1.372   0.923  57.284 -0.1912  0.3818 -0.4315
  137SAPE  H12A14830   1.438   0.870  57.213  0.9789  4.4296 -2.6896
  137SAPE  H12B14831   1.451   0.970  57.347  0.8381 -0.4493 -1.0740
  137SAPE   C1114832   1.285   1.019  57.195 -1.0013  0.0615 -0.4033
  137SAPE  H11A14833   1.215   0.959  57.134 -2.2493  0.3136  0.7254
  137SAPE  H11B14834   1.368   1.075  57.146 -0.3964  1.1115  1.6580
  137SAPE     P14835   1.069   1.137  57.271  0.1045  0.1796 -0.2628
  137SAPE   O1314836   1.001   1.017  57.321  0.2808  0.6581  0.1957
  137SAPE   O1414837   1.029   1.252  57.351 -0.1674  0.0230 -0.3112
  137SAPE   O1214838   1.226   1.113  57.286  0.6799 -0.7705  0.5671
  137SAPE   O1114839   1.030   1.159  57.125 -0.0729 -1.0815  0.5407
  137SAPE    C114840   1.010   1.297  57.073 -0.0758 -0.2050 -0.0021
  137SAPE    HA14841   0.962   1.290  56.973  2.2014  0.1011 -1.1723
  137SAPE    HB14842   0.949   1.363  57.138  0.3099 -4.2515  5.1612
  137SAPE    C214843   1.156   1.351  57.042  0.0163 -0.0811  1.0440
  137SAPE    HS14844   1.186   1.269  56.974 -0.1839  0.0534  0.7888
  137SAPE   O2114845   1.231   1.374  57.161 -0.1725  0.3716  0.5598
  137SAPE   C2114846   1.359   1.387  57.157 -0.6440 -0.1210  0.0444
  137SAPE   O2214847   1.431   1.361  57.064  0.0651 -0.1941  0.4936
  137SAPE   C2214848   1.410   1.413  57.300 -0.2355  0.7624  0.8219
  137SAPE   H2R14849   1.460   1.512  57.301  0.6406  0.3715 -0.5519
  137SAPE   H2S14850   1.321   1.409  57.365 -0.8688  1.0378 -0.0142
  137SAPE    C314851   1.163   1.486  56.960 -0.8402  0.1137 -0.7183
  137SAPE    HX14852   1.265   1.525  56.940 -0.4464 -1.0786 -1.1069
  137SAPE    HY14853   1.115   1.549  57.038  0.0210 -1.2977  1.0225
  137SAPE   O3114854   1.105   1.472  56.834 -0.2125  0.3173  0.7006
  137SAPE   C3114855   1.063   1.589  56.786 -0.6553  0.2917  0.3205
  137SAPE   O3214856   1.066   1.699  56.839 -0.1413 -0.4448 -0.3054
  137SAPE   C3214857   1.032   1.563  56.641 -0.4518 -0.0996 -0.5478
  137SAPE   H2X14858   0.984   1.463  56.633  0.5483 -0.4024 -4.2152
  137SAPE   H2Y14859   1.125   1.563  56.581  0.7844 -0.6837  1.2641
  137SAPE   C2314860   1.518   1.316  57.352 -0.1696  0.0525  0.6710
  137SAPE   H3R14861   1.496   1.210  57.329 -1.8276  0.3310  0.8186
  137SAPE   H3S14862   1.530   1.332  57.461  4.5590 -0.9985  0.5227
  137SAPE   C2414863   1.652   1.343  57.283 -0.1959 -0.0534 -0.4747
  137SAPE   H4R14864   1.718   1.400  57.352 -3.5686  2.0994  1.2450
  137SAPE   H4S14865   1.645   1.404  57.191  3.6046  0.2006 -0.7178
  137SAPE   C2514866   1.728   1.221  57.231 -0.2250 -0.3093 -0.7067
  137SAPE   H5R14867   1.695   1.128  57.280  0.2675  0.5987  1.4479
  137SAPE   C2614868   1.808   1.219  57.128  0.2488 -0.5982  1.1179
  137SAPE   H6R14869   1.831   1.117  57.095  0.5225  0.4950 -2.4637
  137SAPE   C2714870   1.849   1.334  57.037 -0.3283 -0.0030  0.4791
  137SAPE   H7R14871   1.941   1.311  56.978 -0.5888  1.5166 -0.5827
  137SAPE   H7S14872   1.877   1.415  57.107 -2.9244  1.2615  0.1721
  137SAPE   C2814873   1.739   1.396  56.950 -0.0684 -1.0957 -0.6736
  137SAPE   H8R14874   1.656   1.331  56.920  0.4258 -0.4990 -3.6154
  137SAPE   C2914875   1.749   1.519  56.902 -0.7342 -0.6825 -0.5017
  137SAPE   H9R14876   1.669   1.555  56.835 -1.6829 -1.8455 -0.0144
  137SAPE  C21014877   1.868   1.607  56.940  0.0694  0.6531 -0.1338
  137SAPE  H10R14878   1.964   1.552  56.934 -1.2099 -1.6126 -1.6038
  137SAPE  H10S14879   1.859   1.635  57.047  2.0933  0.9776 -0.0160
  137SAPE  C21114880   1.878   1.747  56.886  0.7859  0.6543 -0.1394
  137SAPE  H11R14881   1.793   1.795  56.936  1.7720  3.2359 -0.7993
  137SAPE  C21214882   1.973   1.814  56.822  0.2542 -0.0770 -0.9511
  137SAPE  H12R14883   1.964   1.923  56.828 -1.0521 -0.1979 -0.5883
  137SAPE  C21314884   2.111   1.749  56.800  1.1664 -0.4588  0.1414
  137SAPE  H13R14885   2.103   1.685  56.710 -6.0012 -0.3282  0.0910
  137SAPE  H13S14886   2.145   1.684  56.884  0.4245 -0.7028  0.2674
  137SAPE  C21414887   2.222   1.847  56.758  0.5202  0.5396  0.1698
  137SAPE  H14R14888   2.311   1.859  56.821  2.2218 -0.3322 -1.9400
  137SAPE  C21514889   2.215   1.927  56.645  0.3243  0.6958 -0.0327
  137SAPE  H15R14890   2.290   2.005  56.631  0.3203  0.3354 -2.4033
  137SAPE  C21614891   2.116   1.938  56.532  0.2225 -0.1141  0.0627
  137SAPE  H16R14892   2.023   1.971  56.583 -0.2263 -0.5221 -0.4775
  137SAPE  H16S14893   2.095   1.833  56.502 -1.5807  0.1394  0.3247
  137SAPE  C21714894   2.154   2.032  56.415 -0.4663 -0.0605 -0.3062
  137SAPE  H17R14895   2.076   2.015  56.338 -1.8877 -1.8656  1.4345
  137SAPE  H17S14896   2.256   2.007  56.377  1.7176  0.5649  4.3337
  137SAPE  C21814897   2.173   2.177  56.468 -0.2821 -0.2443  0.4431
  137SAPE  H18R14898   2.257   2.182  56.540 -0.7161  1.2764  0.8744
  137SAPE  H18S14899   2.077   2.214  56.510 -1.4453  0.6371 -2.6798
  137SAPE  C21914900   2.223   2.275  56.354  0.1436 -0.4982  0.3107
  137SAPE  H19R14901   2.147   2.276  56.273  2.2764  3.0740 -1.8950
  137SAPE  H19S14902   2.325   2.249  56.321  0.4326  0.8534  0.0807
  137SAPE  C22014903   2.228   2.416  56.410  0.7765 -0.5430  0.3007
  137SAPE  H20R14904   2.312   2.433  56.480  2.4598 -1.6593 -1.3607
  137SAPE  H20S14905   2.133   2.428  56.467  2.1659  1.2040  2.4033
  137SAPE  H20T14906   2.248   2.501  56.341  1.2719 -0.1450  0.9151
  137SAPE   C3314907   0.939   1.680  56.598 -0.5791  0.6158  0.5426
  137SAPE   H3X14908   0.967   1.784  56.624 -3.0519  1.1734  1.3134
  137SAPE   H3Y14909   0.842   1.663  56.651 -2.2420 -0.9595 -2.6922
  137SAPE   C3414910   0.916   1.670  56.453 -0.7656 -0.2681  0.8862
  137SAPE   H4X14911   0.915   1.564  56.420  0.3279 -1.4651  4.2585
  137SAPE   H4Y14912   1.009   1.701  56.400 -1.4306 -2.7362 -2.0627
  137SAPE   C3514913   0.786   1.742  56.408  0.5708  0.3632  0.6681
  137SAPE   H5X14914   0.764   1.831  56.471  0.3993  0.0637  1.0323
  137SAPE   H5Y14915   0.704   1.669  56.425 -1.3390  1.9779 -1.0084
  137SAPE   C3614916   0.783   1.790  56.262  0.2070  0.5605 -0.3158
  137SAPE   H6X14917   0.869   1.740  56.213  0.3818  2.1484 -1.7341
  137SAPE   H6Y14918   0.822   1.893  56.249 -0.6308  1.0069  0.6048
  137SAPE   C3714919   0.640   1.771  56.199  0.4555 -0.0120 -0.0281
  137SAPE   H7X14920   0.583   1.866  56.205  2.7200  1.3874  0.8315
  137SAPE   H7Y14921   0.579   1.693  56.249 -1.1369  0.8975 -0.5123
  137SAPE   C3814922   0.645   1.741  56.048 -0.3764  0.3735 -0.0606
  137SAPE   H8X14923   0.712   1.653  56.037 -2.4190 -1.0914 -1.4245
  137SAPE   H8Y14924   0.701   1.824  55.999  2.1231  0.1570  2.2265
  137SAPE   C3914925   0.505   1.726  56.001  0.1849 -0.2072  0.6603
  137SAPE   H9X14926   0.427   1.800  56.028  0.9047  0.4938  0.8357
  137SAPE   H9Y14927   0.479   1.643  56.070 -2.3750  0.5825  0.7527
  137SAPE  C31014928   0.483   1.664  55.860 -0.5420 -0.7510  0.3253
  137SAPE  H10X14929   0.390   1.603  55.858 -3.0547  2.7152  0.8054
  137SAPE  H10Y14930   0.562   1.591  55.831 -0.2188 -0.9867  1.7481
  137SAPE  C31114931   0.489   1.771  55.748 -0.1502  0.4941  0.0718
  137SAPE  H11X14932   0.593   1.811  55.756 -0.9395  2.2534  3.9882
  137SAPE  H11Y14933   0.423   1.858  55.769  0.5439  1.1799 -0.4776
  137SAPE  C31214934   0.455   1.726  55.598 -1.0577 -0.1263  0.6288
  137SAPE  H12X14935   0.372   1.653  55.609  1.0587 -2.5780  1.5610
  137SAPE  H12Y14936   0.542   1.671  55.555 -0.9915 -0.4766  1.1995
  137SAPE  C31314937   0.423   1.839  55.498 -0.1512 -1.7623  0.0419
  137SAPE  H13X14938   0.432   1.802  55.394  1.6766 -0.6434 -0.2580
  137SAPE  H13Y14939   0.496   1.919  55.524 -0.3999 -2.3755  2.9981
  137SAPE  C31414940   0.288   1.918  55.526  0.6543 -0.2226 -0.2665
  137SAPE  H14X14941   0.272   1.923  55.636 -0.1081 -3.7282 -0.0968
  137SAPE  H14Y14942   0.199   1.857  55.500  1.6216 -2.3410  1.0784
  137SAPE  C31514943   0.293   2.061  55.478 -0.5308 -0.7542  0.1544
  137SAPE  H15X14944   0.310   2.053  55.369 -1.4865  0.2320 -0.0801
  137SAPE  H15Y14945   0.387   2.107  55.515  0.5771 -1.9986 -1.0148
  137SAPE  C31614946   0.172   2.159  55.507 -0.2735  0.0065  0.0311
  137SAPE  H16X14947   0.216   2.260  55.496  0.2575  0.1026  2.3702
  137SAPE  H16Y14948   0.146   2.149  55.615 -2.7603  2.3515 -0.2547
  137SAPE  C31714949   0.050   2.128  55.417 -1.1526  0.2582  0.4463
  137SAPE  H17X14950   0.054   2.018  55.405  0.0759  0.0386  2.4456
  137SAPE  H17Y14951   0.084   2.180  55.325 -1.4181 -0.5434 -0.1221
  137SAPE  C31814952  -0.086   2.176  55.463 -0.2505 -1.2603  0.1385
  137SAPE  H18X14953  -0.162   2.188  55.383 -0.4211  2.3246  0.6842
  137SAPE  H18Y14954  -0.082   2.268  55.525 -3.6639 -1.3255  0.6727
  137SAPE  H18Z14955  -0.116   2.096  55.534  1.3217 -1.6339  0.4070
  138SAPE     N14956   2.095   1.042  73.679 -0.2407 -0.3955 -0.0576
  138SAPE   HN114957   2.198   1.048  73.691 -0.4273 -0.2485  1.7577
  138SAPE   HN214958   2.067   1.080  73.586  2.4290  0.3296 -0.6401
  138SAPE   HN314959   2.056   1.111  73.746  1.5083  1.8472 -1.2224
  138SAPE   C1214960   2.044   0.907  73.681  0.4442 -0.2179 -0.5860
  138SAPE  H12A14961   1.934   0.917  73.698  0.6069  1.6156 -0.4408
  138SAPE  H12B14962   2.089   0.850  73.765  0.9598  0.3791 -0.4526
  138SAPE   C1114963   2.065   0.826  73.555 -0.0034 -0.1356 -0.0146
  138SAPE  H11A14964   1.998   0.877  73.483  0.2332  0.3324  0.0956
  138SAPE  H11B14965   2.026   0.724  73.576 -0.9306  0.2706  0.2663
  138SAPE     P14966   2.316   0.751  73.564  0.0906 -0.3053  0.3253
  138SAPE   O1314967   2.432   0.841  73.591 -0.0457 -0.3195  0.0928
  138SAPE   O1414968   2.277   0.673  73.670  0.9266 -0.1790 -0.2263
  138SAPE   O1214969   2.201   0.842  73.511  0.7961  0.5217 -0.2425
  138SAPE   O1114970   2.333   0.661  73.431 -0.0489 -0.8139  0.0170
  138SAPE    C114971   2.340   0.729  73.296 -0.4967  1.2072 -0.1339
  138SAPE    HA14972   2.389   0.828  73.313 -0.0320  0.7678  1.2818
  138SAPE    HB14973   2.398   0.665  73.227  1.3529  2.0817  0.5379
  138SAPE    C214974   2.204   0.756  73.229 -0.2831  0.1854 -0.4700
  138SAPE    HS14975   2.136   0.826  73.281 -0.0866 -0.4998  0.7495
  138SAPE   O2114976   2.144   0.624  73.219  0.6191 -0.0215  0.2942
  138SAPE   C2114977   2.010   0.618  73.217 -0.1831  0.1697  1.2662
  138SAPE   O2214978   1.926   0.702  73.237  0.4691 -0.6358  0.1149
  138SAPE   C2214979   1.974   0.464  73.188 -0.6488  0.2259 -0.1058
  138SAPE   H2R14980   2.039   0.449  73.099 -0.3989  0.6461  0.0057
  138SAPE   H2S14981   2.006   0.395  73.269  1.5391  3.6500  2.1886
  138SAPE    C314982   2.242   0.807  73.085 -0.4671  0.1867  0.4076
  138SAPE    HX14983   2.309   0.738  73.029 -0.8725 -0.7874  1.0925
  138SAPE    HY14984   2.291   0.906  73.082  0.6708 -0.3800 -1.9337
  138SAPE   O3114985   2.115   0.819  73.019  0.3387 -0.3755  0.3520
  138SAPE   C3114986   2.117   0.893  72.902  0.1549  0.5343 -0.1423
  138SAPE   O3214987   2.222   0.925  72.849  0.0982 -0.0199  0.2668
  138SAPE   C3214988   1.966   0.933  72.871 -0.9265  0.7970 -0.0838
  138SAPE   H2X14989   1.913   0.948  72.967 -2.0302 -0.8768 -0.3850
  138SAPE   H2Y14990   1.920   0.842  72.828 -1.7242  0.5919  1.1460
  138SAPE   C2314991   1.818   0.451  73.164  0.0640 -0.6786  0.1729
  138SAPE   H3R14992   1.812   0.498  73.063 -0.2648  1.2513  1.0387
  138SAPE   H3S14993   1.765   0.515  73.238 -1.5142  0.1987 -1.6354
  138SAPE   C2414994   1.760   0.314  73.176 -0.0162 -0.9720 -0.3709
  138SAPE   H4R14995   1.659   0.319  73.130  0.3304 -0.6360 -1.1208
  138SAPE   H4S14996   1.747   0.287  73.283  0.1009 -0.7732 -0.3055
  138SAPE   C2514997   1.852   0.221  73.120 -0.0041  0.3670  0.0984
  138SAPE   H5R14998   1.942   0.200  73.180 -0.2853  2.2403  1.2371
  138SAPE   C2614999   1.830   0.142  73.017  0.0108  0.4314  0.2183
  138SAPE   H6R15000   1.917   0.084  72.981  2.9592  3.6732  1.5482
  138SAPE   C2715001   1.709   0.137  72.924 -0.6853 -0.0784  0.8854
  138SAPE   H7R15002   1.658   0.236  72.932  0.2430  0.5021 -0.1867
  138SAPE   H7S15003   1.636   0.069  72.974 -0.2272 -1.4529 -0.2535
  138SAPE   C2815004   1.725   0.077  72.785  0.1122  0.5390  0.3568
  138SAPE   H8R15005   1.775  -0.021  72.781  0.8741  0.7561  2.8104
  138SAPE   C2915006   1.682   0.140  72.673  0.4391  0.8219  0.2521
  138SAPE   H9R15007   1.687   0.086  72.578 -3.1996  0.3302  0.2045
  138SAPE  C21015008   1.621   0.285  72.671 -0.2470 -0.3942  0.2592
  138SAPE  H10R15009   1.654   0.349  72.586  1.7686 -0.9317  0.5849
  138SAPE  H10S15010   1.632   0.344  72.764  2.0275 -0.6506  0.2298
  138SAPE  C21115011   1.471   0.266  72.642 -0.2096 -0.2220 -0.2487
  138SAPE  H11R15012   1.417   0.273  72.738  2.2315  0.2615  1.1909
  138SAPE  C21215013   1.405   0.247  72.528  0.6128  0.5379 -0.4021
  138SAPE  H12R15014   1.296   0.236  72.536  0.7703 -0.9105  0.0320
  138SAPE  C21315015   1.448   0.251  72.384 -0.0451 -0.1793  0.7310
  138SAPE  H13R15016   1.490   0.350  72.358 -0.1261  0.4340  2.7768
  138SAPE  H13S15017   1.353   0.244  72.327 -0.6118  3.9157  0.8756
  138SAPE  C21415018   1.542   0.147  72.320 -0.5544 -0.3690  0.0462
  138SAPE  H14R15019   1.605   0.087  72.388  2.6704 -0.4193 -2.7066
  138SAPE  C21515020   1.564   0.118  72.193  0.4827 -0.4168  0.1449
  138SAPE  H15R15021   1.630   0.031  72.176  1.3372  0.3656 -0.6956
  138SAPE  C21615022   1.501   0.211  72.090 -0.6329  0.3577 -0.2313
  138SAPE  H16R15023   1.454   0.305  72.125  0.3159  1.4731 -1.7891
  138SAPE  H16S15024   1.421   0.148  72.046  0.3547 -0.5035 -0.8449
  138SAPE  C21715025   1.611   0.225  71.969  0.6611 -0.0458 -0.1187
  138SAPE  H17R15026   1.712   0.260  72.001  0.7094 -0.5079  0.2341
  138SAPE  H17S15027   1.591   0.312  71.902  2.6612  0.8530  0.3573
  138SAPE  C21815028   1.609   0.101  71.876 -0.2529 -0.4209 -0.5721
  138SAPE  H18R15029   1.504   0.065  71.868 -0.9748  1.4869 -0.3666
  138SAPE  H18S15030   1.649   0.013  71.931  0.6475  1.3258  1.7764
  138SAPE  C21915031   1.656   0.121  71.737  0.1370 -0.2863 -0.5691
  138SAPE  H19R15032   1.764   0.149  71.731 -0.3143  1.3045 -1.9092
  138SAPE  H19S15033   1.599   0.198  71.681  1.4704  1.6273  0.5975
  138SAPE  C22015034   1.646  -0.009  71.662 -0.4047 -0.1804 -0.4810
  138SAPE  H20R15035   1.731  -0.073  71.694 -0.8140 -0.3117  0.3781
  138SAPE  H20S15036   1.657  -0.001  71.552  2.3730 -0.9119 -0.3196
  138SAPE  H20T15037   1.546  -0.054  71.682 -1.3779  2.8485  2.3290
  138SAPE   C3315038   1.950   1.061  72.792 -0.0086  0.7713 -0.4113
  138SAPE   H3X15039   2.002   1.055  72.694 -0.4898 -1.8155 -0.5727
  138SAPE   H3Y15040   1.998   1.147  72.844  1.7856 -0.4335 -0.0012
  138SAPE   C3415041   1.803   1.109  72.772  0.0358  0.3479 -0.2780
  138SAPE   H4X15042   1.789   1.215  72.743  2.1616 -0.3622 -4.7228
  138SAPE   H4Y15043   1.745   1.085  72.864 -1.2718 -1.8210 -1.5930
  138SAPE   C3515044   1.738   1.044  72.646  0.2746 -0.4784  0.4253
  138SAPE   H5X15045   1.627   1.047  72.646  0.2795  0.1236 -0.5073
  138SAPE   H5Y15046   1.783   0.944  72.630  2.3688  0.6709 -1.5202
  138SAPE   C3615047   1.779   1.125  72.521  0.2677 -0.5488 -0.0353
  138SAPE   H6X15048   1.889   1.113  72.508  0.4524  0.5382  0.4115
  138SAPE   H6Y15049   1.755   1.230  72.547  2.2440 -0.2610  0.8642
  138SAPE   C3715050   1.702   1.074  72.400 -0.4267  0.3517 -0.0089
  138SAPE   H7X15051   1.599   1.050  72.435  0.5767 -3.9902  0.5737
  138SAPE   H7Y15052   1.737   0.974  72.364 -0.5753 -0.7841  2.7253
  138SAPE   C3815053   1.706   1.174  72.288 -0.2494  0.4790  0.1319
  138SAPE   H8X15054   1.812   1.188  72.256  0.1831 -1.7758  0.4165
  138SAPE   H8Y15055   1.676   1.268  72.339  1.6767  0.5696  1.2191
  138SAPE   C3915056   1.610   1.142  72.172 -0.1903 -0.2990 -0.8789
  138SAPE   H9X15057   1.515   1.102  72.213 -1.7859  0.4493 -3.6020
  138SAPE   H9Y15058   1.654   1.065  72.107 -1.4541 -1.6785 -0.1627
  138SAPE  C31015059   1.558   1.258  72.079  0.1061 -0.0489 -0.6462
  138SAPE  H10X15060   1.638   1.323  72.037 -1.6417  0.7057 -3.0340
  138SAPE  H10Y15061   1.493   1.315  72.148 -0.3113 -1.5897  0.2901
  138SAPE  C31115062   1.467   1.191  71.973 -0.2159 -0.8463 -1.2869
  138SAPE  H11X15063   1.385   1.263  71.952 -0.5305 -0.9158 -0.3213
  138SAPE  H11Y15064   1.425   1.094  72.007 -0.0450 -0.6068 -0.3720
  138SAPE  C31215065   1.548   1.170  71.845 -0.0251  0.0026 -0.5290
  138SAPE  H12X15066   1.627   1.099  71.877  2.2385  0.9968 -3.3745
  138SAPE  H12Y15067   1.599   1.260  71.803  2.7282 -0.4063  1.5856
  138SAPE  C31315068   1.447   1.116  71.736  0.2031 -0.3142  0.0102
  138SAPE  H13X15069   1.366   1.188  71.710  1.3462  0.7953 -0.5727
  138SAPE  H13Y15070   1.403   1.029  71.791  1.2020 -2.5402 -2.4980
  138SAPE  C31415071   1.511   1.065  71.606 -0.1973 -0.5893 -0.1568
  138SAPE  H14X15072   1.431   1.019  71.545  0.5969 -0.3503 -1.4143
  138SAPE  H14Y15073   1.575   0.978  71.631 -0.5021 -0.3433  1.6471
  138SAPE  C31515074   1.595   1.175  71.535 -0.0554 -0.5760 -0.2964
  138SAPE  H15X15075   1.686   1.193  71.596 -0.7980  0.9500  0.4247
  138SAPE  H15Y15076   1.548   1.275  71.536 -1.1409 -1.0418  1.8298
  138SAPE  C31615077   1.643   1.132  71.395 -0.2787  0.8822 -0.1330
  138SAPE  H16X15078   1.673   1.224  71.341  1.6820 -0.3362 -1.2319
  138SAPE  H16Y15079   1.551   1.091  71.346 -1.2812 -0.0541  2.3668
  138SAPE  C31715080   1.745   1.018  71.396  0.5032 -0.4579 -0.4546
  138SAPE  H17X15081   1.717   0.928  71.455  0.5105 -0.3205 -0.2405
  138SAPE  H17Y15082   1.839   1.052  71.445  0.6058 -2.1752  0.6263
  138SAPE  C31815083   1.765   0.966  71.247 -0.8067 -0.4515  0.1284
  138SAPE  H18X15084   1.847   0.891  71.249  0.9301  1.3707  0.4920
  138SAPE  H18Y15085   1.789   1.054  71.184 -0.2378  0.0188  0.9836
  138SAPE  H18Z15086   1.673   0.909  71.221  0.0103 -1.3013 -1.0356
  139SAPE     N15087   0.400   1.166  67.815 -0.4797  0.4182  0.1333
  139SAPE   HN115088   0.388   1.099  67.736 -0.4397  0.8653 -0.2548
  139SAPE   HN215089   0.312   1.177  67.868 -1.5707 -0.9660 -1.3167
  139SAPE   HN315090   0.423   1.252  67.759  0.6757 -1.1956 -2.0425
  139SAPE   C1215091   0.522   1.118  67.894 -0.2205  0.7065  0.0898
  139SAPE  H12A15092   0.497   1.050  67.978  1.1068  2.6438  2.1816
  139SAPE  H12B15093   0.573   1.207  67.936 -0.3687  2.8154 -3.7145
  139SAPE   C1115094   0.622   1.068  67.793 -0.4480  0.2457 -0.8696
  139SAPE  H11A15095   0.722   1.068  67.839 -1.5847  0.4217  1.7669
  139SAPE  H11B15096   0.636   1.144  67.713 -0.8244  1.1644 -0.0848
  139SAPE     P15097   0.512   0.890  67.624 -0.1391 -0.3303  0.5740
  139SAPE   O1315098   0.476   0.747  67.623 -0.0497 -0.3751 -0.2462
  139SAPE   O1415099   0.392   0.980  67.624  0.0207 -0.0694 -0.1180
  139SAPE   O1215100   0.607   0.932  67.745 -0.2291  0.2372  0.1021
  139SAPE   O1115101   0.588   0.917  67.494  0.2974  0.1085  0.1072
  139SAPE    C115102   0.724   0.963  67.472 -0.6360 -0.4187 -0.9202
  139SAPE    HA15103   0.717   1.030  67.384 -0.6584  1.2935  0.3328
  139SAPE    HB15104   0.770   1.023  67.553  1.3095 -1.7508 -0.9537
  139SAPE    C215105   0.806   0.836  67.463 -0.3335 -0.0293  0.0497
  139SAPE    HS15106   0.760   0.759  67.529  1.3518 -1.2631 -0.1431
  139SAPE   O2115107   0.940   0.867  67.505  0.1582 -0.4997  0.2738
  139SAPE   C2115108   1.004   0.797  67.592 -0.1759  0.2407  0.6350
  139SAPE   O2215109   0.959   0.694  67.649 -1.3321 -0.2469  0.2311
  139SAPE   C2215110   1.124   0.875  67.644 -0.4434 -0.4506 -0.1052
  139SAPE   H2R15111   1.087   0.965  67.697  0.1538 -0.6443  0.6658
  139SAPE   H2S15112   1.173   0.806  67.716 -0.8674 -0.2961  0.3296
  139SAPE    C315113   0.805   0.763  67.320  0.0311  0.3867 -0.4208
  139SAPE    HX15114   0.703   0.720  67.310 -1.2799  2.7885  1.4728
  139SAPE    HY15115   0.883   0.685  67.333 -1.1215 -1.0220 -1.6298
  139SAPE   O3115116   0.816   0.859  67.219 -0.1575 -0.8489  1.3558
  139SAPE   C3115117   0.883   0.829  67.110  0.4369  0.8103 -0.9539
  139SAPE   O3215118   0.933   0.724  67.079 -0.3767  0.2304 -0.6054
  139SAPE   C3215119   0.909   0.963  67.046  0.3192 -0.3414  0.3424
  139SAPE   H2X15120   0.947   1.046  67.109 -1.0278 -1.6552  3.0387
  139SAPE   H2Y15121   0.820   1.005  66.995  0.2669 -2.0224 -1.0526
  139SAPE   C2315122   1.226   0.921  67.547  0.3349  0.5911  0.2127
  139SAPE   H3R15123   1.186   0.995  67.474 -0.6238  0.2696  0.4030
  139SAPE   H3S15124   1.273   0.830  67.504 -2.4042  0.0538 -1.9845
  139SAPE   C2415125   1.345   1.004  67.621  0.4844  0.8070  0.5810
  139SAPE   H4R15126   1.293   1.080  67.684 -0.9438 -0.7764  1.3971
  139SAPE   H4S15127   1.397   1.057  67.538  2.4795 -0.8960  0.6670
  139SAPE   C2515128   1.438   0.926  67.709 -0.1249  0.3215 -0.2100
  139SAPE   H5R15129   1.405   0.831  67.752  1.4772  0.1669  0.7464
  139SAPE   C2615130   1.565   0.954  67.726  0.2368 -0.4212 -0.6101
  139SAPE   H6R15131   1.625   0.896  67.798  2.2196  0.6518 -1.3405
  139SAPE   C2715132   1.619   1.083  67.677 -0.1661  1.0451 -0.3417
  139SAPE   H7R15133   1.559   1.158  67.734  0.4532 -0.2719  2.2077
  139SAPE   H7S15134   1.600   1.092  67.568 -0.4786 -2.6144 -0.6794
  139SAPE   C2815135   1.765   1.099  67.705  0.7292 -0.7998  0.1055
  139SAPE   H8R15136   1.792   1.194  67.755  1.4815 -0.2399 -1.2889
  139SAPE   C2915137   1.868   1.029  67.641 -0.0461 -0.3911 -1.1130
  139SAPE   H9R15138   1.971   1.048  67.674 -0.5053  2.6132 -1.0624
  139SAPE  C21015139   1.852   0.892  67.585 -0.0870 -0.0089  0.3944
  139SAPE  H10R15140   1.767   0.897  67.514 -0.6684  1.3450  1.1666
  139SAPE  H10S15141   1.844   0.809  67.659  2.3587 -0.5500  0.1571
  139SAPE  C21115142   1.976   0.858  67.503 -0.4606 -0.5826 -0.8807
  139SAPE  H11R15143   1.999   0.937  67.430 -0.3637 -0.8274 -1.1145
  139SAPE  C21215144   2.085   0.777  67.529 -0.6297 -0.6363  0.4074
  139SAPE  H12R15145   2.162   0.781  67.450 -0.2747  0.2785  0.7787
  139SAPE  C21315146   2.085   0.679  67.645  0.0778  0.2886  0.2063
  139SAPE  H13R15147   1.985   0.640  67.671  0.4755  0.3022  1.8395
  139SAPE  H13S15148   2.136   0.710  67.739 -2.3169 -2.6942  2.6873
  139SAPE  C21415149   2.165   0.556  67.611 -0.0892  0.1357 -0.0716
  139SAPE  H14R15150   2.251   0.544  67.678 -2.4210 -0.3739  3.0892
  139SAPE  C21515151   2.128   0.444  67.563  0.4979 -0.5565 -0.2107
  139SAPE  H15R15152   2.204   0.367  67.544  1.1746 -0.0237  0.2981
  139SAPE  C21615153   1.989   0.424  67.496  0.1925 -0.4769  0.5785
  139SAPE  H16R15154   2.003   0.447  67.388 -0.0877 -1.9284  0.2058
  139SAPE  H16S15155   1.915   0.483  67.553 -1.4502 -1.0500 -0.8726
  139SAPE  C21715156   1.939   0.287  67.489  0.4263 -0.9458  0.7738
  139SAPE  H17R15157   1.833   0.278  67.456  1.2999  0.1851 -2.7506
  139SAPE  H17S15158   1.938   0.244  67.592 -1.8763 -3.4869 -0.1713
  139SAPE  C21815159   2.013   0.176  67.408 -1.2312 -0.4872  0.2966
  139SAPE  H18R15160   1.972   0.074  67.427 -2.3134 -0.1474 -0.0912
  139SAPE  H18S15161   2.114   0.175  67.452 -1.1732 -0.8905  0.1554
  139SAPE  C21915162   1.997   0.184  67.259  0.5927 -0.3214  0.1908
  139SAPE  H19R15163   2.069   0.112  67.213 -0.2006 -0.8433 -0.2445
  139SAPE  H19S15164   2.041   0.277  67.217  3.7567 -2.2787 -1.2019
  139SAPE  C22015165   1.859   0.170  67.211  0.6193 -0.8749 -0.2412
  139SAPE  H20R15166   1.858   0.114  67.115 -3.7158 -0.5808 -0.5416
  139SAPE  H20S15167   1.800   0.262  67.190 -0.2817 -1.5196 -0.6017
  139SAPE  H20T15168   1.797   0.126  67.292  0.9522 -0.6202  0.1574
  139SAPE   C3315169   1.006   0.934  66.926 -0.2269 -0.3867  0.5740
  139SAPE   H3X15170   0.942   0.894  66.844  1.8278 -0.7904 -0.9211
  139SAPE   H3Y15171   1.076   0.849  66.943 -2.7383 -2.4224  1.5333
  139SAPE   C3415172   1.073   1.055  66.871 -0.6998 -0.5197 -0.4150
  139SAPE   H4X15173   1.100   1.117  66.959  1.4416 -0.9558 -0.7054
  139SAPE   H4Y15174   0.999   1.102  66.803  2.3435  1.7413 -2.4356
  139SAPE   C3515175   1.190   1.010  66.783  0.1837  0.5724 -0.4854
  139SAPE   H5X15176   1.276   0.967  66.838 -0.2492 -2.1159 -1.7404
  139SAPE   H5Y15177   1.237   1.092  66.725 -1.6203  1.3841 -0.8967
  139SAPE   C3615178   1.139   0.915  66.681 -0.8401 -0.4261 -0.5446
  139SAPE   H6X15179   1.072   0.967  66.611  0.1708  1.0615 -0.4452
  139SAPE   H6Y15180   1.094   0.823  66.725  0.0142 -1.4530 -1.7153
  139SAPE   C3715181   1.249   0.848  66.595  0.3074  0.4429  0.6069
  139SAPE   H7X15182   1.315   0.795  66.666 -0.7748 -0.0451  1.2867
  139SAPE   H7Y15183   1.308   0.930  66.551 -1.2116  1.2398 -0.0124
  139SAPE   C3815184   1.202   0.747  66.490 -1.0206 -0.0622 -0.2304
  139SAPE   H8X15185   1.147   0.665  66.540 -1.0954  1.0141  1.5364
  139SAPE   H8Y15186   1.294   0.704  66.446 -1.1305 -0.1148 -0.4125
  139SAPE   C3915187   1.129   0.807  66.368 -0.1798  0.9581  0.1478
  139SAPE   H9X15188   1.199   0.870  66.310  0.5326  1.1674  1.2068
  139SAPE   H9Y15189   1.041   0.866  66.404 -0.6395  0.5201 -0.2487
  139SAPE  C31015190   1.076   0.701  66.266  0.5611 -0.0659 -0.4939
  139SAPE  H10X15191   1.049   0.613  66.328  0.4902 -2.9935 -4.3319
  139SAPE  H10Y15192   1.145   0.655  66.192 -0.3768 -0.0197 -1.4273
  139SAPE  C31115193   0.958   0.771  66.193 -0.5202  0.1214 -0.3923
  139SAPE  H11X15194   0.972   0.878  66.170 -1.3237  0.2807 -0.1852
  139SAPE  H11Y15195   0.869   0.762  66.259  0.6616 -2.0993  1.0078
  139SAPE  C31215196   0.936   0.729  66.044  0.0618 -0.1908 -0.4683
  139SAPE  H12X15197   1.031   0.717  65.989 -1.7135 -0.5347 -3.6729
  139SAPE  H12Y15198   0.869   0.801  65.993  0.1870  1.1855  1.1874
  139SAPE  C31315199   0.884   0.585  66.027  0.1141  0.8087  0.3324
  139SAPE  H13X15200   0.854   0.547  66.127  3.3557 -3.1640  0.0333
  139SAPE  H13Y15201   0.969   0.519  66.000  0.9446 -0.2604  4.6689
  139SAPE  C31415202   0.779   0.561  65.928  0.0089 -0.2277  0.4503
  139SAPE  H14X15203   0.814   0.579  65.824 -4.8501 -1.7986 -1.7809
  139SAPE  H14Y15204   0.691   0.628  65.942 -0.8426 -1.0794 -0.6678
  139SAPE  C31515205   0.726   0.410  65.924 -0.3477  0.2922 -0.4529
  139SAPE  H15X15206   0.635   0.417  65.861 -0.2778 -1.5645 -0.8305
  139SAPE  H15Y15207   0.697   0.382  66.028 -2.0966 -0.4504 -1.0927
  139SAPE  C31615208   0.816   0.303  65.869  0.4666  0.2090 -0.1503
  139SAPE  H16X15209   0.820   0.315  65.759 -2.6513 -2.7975 -0.7370
  139SAPE  H16Y15210   0.903   0.316  65.937 -1.8063  1.9270  2.6956
  139SAPE  C31715211   0.780   0.155  65.905  1.1363  0.6397  0.7849
  139SAPE  H17X15212   0.708   0.115  65.830  0.7795  1.5446  0.6297
  139SAPE  H17Y15213   0.732   0.149  66.004 -1.3641 -1.4486 -0.4219
  139SAPE  C31815214   0.904   0.064  65.910  0.0122  0.1125 -1.6851
  139SAPE  H18X15215   0.977   0.079  65.993 -2.1954 -1.3115  0.6394
  139SAPE  H18Y15216   0.954   0.059  65.811 -1.5223 -1.1672 -2.4352
  139SAPE  H18Z15217   0.889  -0.046  65.918 -1.7491  0.4559  0.8950
  140SAPE     N15218   2.572   1.923  68.593 -0.5062  0.3814  0.0252
  140SAPE   HN115219   2.638   1.934  68.513  0.2400  1.8133  0.7991
  140SAPE   HN215220   2.619   1.885  68.677  2.1339 -1.0872 -1.9788
  140SAPE   HN315221   2.491   1.861  68.572 -1.4781  2.3482 -2.5738
  140SAPE   C1215222   2.511   2.062  68.606  0.2496  0.4800  0.4630
  140SAPE  H12A15223   2.441   2.073  68.691  0.5029  0.9128  0.6153
  140SAPE  H12B15224   2.452   2.086  68.515 -1.0912  4.6166  2.1625
  140SAPE   C1115225   2.616   2.179  68.610  0.4833  0.5383  1.0049
  140SAPE  H11A15226   2.577   2.257  68.542  1.3189  1.3042  1.3870
  140SAPE  H11B15227   2.707   2.138  68.561  0.8176  0.6157  1.5575
  140SAPE     P15228   2.771   2.222  68.815  0.3104  0.0784  0.2802
  140SAPE   O1315229   2.769   2.099  68.894 -0.3217  0.1528  1.1505
  140SAPE   O1415230   2.894   2.244  68.733 -0.2099 -0.7079  0.3607
  140SAPE   O1215231   2.637   2.244  68.728 -0.5251  0.3221  0.1608
  140SAPE   O1115232   2.755   2.332  68.929 -0.4085 -0.2104  0.8179
  140SAPE    C115233   2.793   2.470  68.909  0.6732 -0.0165  0.1198
  140SAPE    HA15234   2.853   2.512  68.993 -0.3732 -0.8684  1.3222
  140SAPE    HB15235   2.852   2.478  68.815  0.4514 -3.6920 -0.4690
  140SAPE    C215236   2.671   2.567  68.901 -0.9317 -0.0195 -0.3926
  140SAPE    HS15237   2.618   2.545  68.996 -1.6968 -2.1639 -1.2631
  140SAPE   O2115238   2.603   2.533  68.780 -0.1365  0.0967 -0.3163
  140SAPE   C2115239   2.477   2.497  68.803  0.5588 -0.0003 -0.6620
  140SAPE   O2215240   2.426   2.497  68.911  0.3633 -0.0284 -0.5978
  140SAPE   C2215241   2.398   2.491  68.669  0.3829  0.9406 -0.4716
  140SAPE   H2R15242   2.393   2.593  68.626 -5.3515  0.0369 -2.9242
  140SAPE   H2S15243   2.460   2.437  68.595  1.1578  1.9044 -0.5416
  140SAPE    C315244   2.712   2.721  68.901 -0.4027 -0.5168 -1.0332
  140SAPE    HX15245   2.738   2.739  68.794  3.1001  1.7786  0.0353
  140SAPE    HY15246   2.800   2.743  68.964 -1.0232  2.9794 -1.2210
  140SAPE   O3115247   2.605   2.802  68.963 -0.4581  0.0503  1.4832
  140SAPE   C3115248   2.519   2.854  68.871  0.2975 -0.1532  0.1680
  140SAPE   O3215249   2.533   2.844  68.753  0.0362 -0.1834  0.5292
  140SAPE   C3215250   2.413   2.941  68.942  0.8198  0.1788 -0.5333
  140SAPE   H2X15251   2.444   3.047  68.955  3.3077 -0.6725  1.4747
  140SAPE   H2Y15252   2.412   2.900  69.046 -1.6748  1.3684 -0.0103
  140SAPE   C2315253   2.260   2.424  68.674 -0.8844  0.0147  0.9198
  140SAPE   H3R15254   2.220   2.424  68.778 -4.5520  2.6169 -0.2798
  140SAPE   H3S15255   2.271   2.330  68.616  1.6423  1.4909 -1.2644
  140SAPE   C2415256   2.157   2.503  68.601 -0.3404 -1.1459 -0.5037
  140SAPE   H4R15257   2.181   2.502  68.493  2.6171  0.7469  0.0114
  140SAPE   H4S15258   2.183   2.605  68.637 -2.8957 -0.6672  0.2187
  140SAPE   C2515259   2.020   2.449  68.625 -0.2964  0.5710 -0.4404
  140SAPE   H5R15260   1.997   2.358  68.568 -1.5990 -0.3824  1.4913
  140SAPE   C2615261   1.934   2.494  68.717  0.2812 -0.7151  0.6520
  140SAPE   H6R15262   1.843   2.434  68.731 -1.3536  1.1081 -1.2976
  140SAPE   C2715263   1.942   2.620  68.810 -0.4663  0.3256  1.1223
  140SAPE   H7R15264   1.837   2.656  68.822 -0.8883 -1.5625  4.0877
  140SAPE   H7S15265   1.995   2.689  68.741 -1.8091 -2.6884 -3.3792
  140SAPE   C2815266   2.012   2.594  68.941  0.5249  0.4956 -0.0734
  140SAPE   H8R15267   2.112   2.549  68.930 -0.4152 -2.2184  1.4930
  140SAPE   C2915268   1.971   2.623  69.066  0.4968  0.7405 -0.5368
  140SAPE   H9R15269   2.036   2.596  69.150 -0.1757 -1.9355 -0.7711
  140SAPE  C21015270   1.841   2.690  69.112 -0.5942  0.3432  0.2007
  140SAPE  H10R15271   1.807   2.770  69.042 -1.0159 -0.8513 -1.0158
  140SAPE  H10S15272   1.868   2.724  69.214  2.0124 -3.5722  1.0613
  140SAPE  C21115273   1.728   2.586  69.107 -0.4368  0.4382 -1.2299
  140SAPE  H11R15274   1.732   2.483  69.070 -2.8318  0.8278 -2.8289
  140SAPE  C21215275   1.600   2.618  69.144 -0.2404  0.2326 -0.0076
  140SAPE  H12R15276   1.527   2.535  69.138  2.8164 -2.9432  2.4425
  140SAPE  C21315277   1.544   2.750  69.199  0.7559  0.4559  0.2848
  140SAPE  H13R15278   1.581   2.842  69.147 -1.6865  0.4767 -1.5845
  140SAPE  H13S15279   1.588   2.752  69.301  0.4617 -0.8240  0.4413
  140SAPE  C21415280   1.392   2.762  69.219 -0.8226 -0.8567  0.3936
  140SAPE  H14R15281   1.338   2.834  69.157 -2.0571 -2.0292  0.0659
  140SAPE  C21515282   1.311   2.702  69.321 -0.6093  0.5159 -0.7137
  140SAPE  H15R15283   1.202   2.714  69.317 -0.6026  0.8712  0.0909
  140SAPE  C21615284   1.351   2.597  69.419  0.8066  1.1099 -0.3107
  140SAPE  H16R15285   1.453   2.565  69.387 -0.3660 -1.2202 -2.0171
  140SAPE  H16S15286   1.273   2.518  69.416 -0.5155  2.3437  0.4743
  140SAPE  C21715287   1.349   2.661  69.563  0.1839  1.3394  1.0731
  140SAPE  H17R15288   1.419   2.748  69.569  0.6020  1.0020  1.0955
  140SAPE  H17S15289   1.385   2.574  69.621 -1.1912 -0.1539 -0.2381
  140SAPE  C21815290   1.212   2.688  69.619  0.1307 -0.1195 -0.4474
  140SAPE  H18R15291   1.143   2.600  69.620  0.4629 -0.4407 -2.0938
  140SAPE  H18S15292   1.158   2.764  69.558 -0.2021 -0.0335 -0.0498
  140SAPE  C21915293   1.218   2.740  69.769  0.0147  0.1344  0.7512
  140SAPE  H19R15294   1.256   2.655  69.830 -0.6619  1.0954  2.5712
  140SAPE  H19S15295   1.111   2.762  69.789 -0.0192 -0.7400  1.5601
  140SAPE  C22015296   1.310   2.863  69.788  0.2688 -0.5215  0.9634
  140SAPE  H20R15297   1.268   2.959  69.749  1.0865  0.3232  2.0931
  140SAPE  H20S15298   1.416   2.858  69.754  0.8187  3.6568  1.4767
  140SAPE  H20T15299   1.312   2.872  69.899 -0.1587  2.3844  0.8208
  140SAPE   C3315300   2.276   2.921  68.888  0.2994 -0.2405  0.2003
  140SAPE   H3X15301   2.239   2.817  68.895 -1.3795  0.2270 -1.1913
  140SAPE   H3Y15302   2.278   2.946  68.779 -0.4932  0.2829  0.3015
  140SAPE   C3415303   2.158   2.992  68.956  0.3964 -0.2491  0.7661
  140SAPE   H4X15304   2.061   2.958  68.913  0.4311  0.1993  0.3168
  140SAPE   H4Y15305   2.152   3.101  68.935 -2.9073 -0.2018  1.4088
  140SAPE   C3515306   2.157   2.983  69.105  0.5386  0.4230  0.2242
  140SAPE   H5X15307   2.250   3.039  69.132 -1.5389  3.3727  1.8630
  140SAPE   H5Y15308   2.165   2.885  69.156 -0.1201  1.7396  3.0480
  140SAPE   C3615309   2.052   3.069  69.175  0.5701 -0.2240 -0.5125
  140SAPE   H6X15310   2.067   3.172  69.138 -3.6874  0.5888 -0.4772
  140SAPE   H6Y15311   2.066   3.058  69.285 -3.6526 -0.3527  0.1748
  140SAPE   C3715312   1.910   3.043  69.137 -0.4110 -0.5040 -1.2846
  140SAPE   H7X15313   1.859   2.973  69.206  1.3113  0.0325  0.5878
  140SAPE   H7Y15314   1.887   3.003  69.036  1.4476 -0.7131 -1.6694
  140SAPE   C3815315   1.831   3.167  69.132  0.0687  0.1332  0.0605
  140SAPE   H8X15316   1.871   3.234  69.053 -1.5006  0.3230 -0.6229
  140SAPE   H8Y15317   1.840   3.200  69.237  1.1340 -0.0539  0.0386
  140SAPE   C3915318   1.675   3.150  69.116 -0.3877  0.2926 -0.1491
  140SAPE   H9X15319   1.632   3.241  69.162  0.8724  0.2038  1.3003
  140SAPE   H9Y15320   1.664   3.067  69.189  2.1379  1.9026  2.2792
  140SAPE  C31015321   1.644   3.125  68.967  0.7150  0.3341  0.0064
  140SAPE  H10X15322   1.678   3.023  68.935 -1.2994  0.1856 -1.9095
  140SAPE  H10Y15323   1.683   3.203  68.899 -2.0880  0.3303 -1.7550
  140SAPE  C31115324   1.492   3.134  68.955 -0.1609  0.5650  0.0224
  140SAPE  H11X15325   1.450   3.089  69.047 -1.6377  1.5278 -0.1401
  140SAPE  H11Y15326   1.454   3.087  68.862 -1.1299  1.6781 -0.1674
  140SAPE  C31215327   1.440   3.281  68.964 -0.5287  0.2734  0.2028
  140SAPE  H12X15328   1.501   3.346  69.030  1.5757 -2.7765  1.5393
  140SAPE  H12Y15329   1.340   3.268  69.011 -1.4767  1.5419 -1.3884
  140SAPE  C31315330   1.407   3.346  68.831  1.1895 -1.0909  0.8816
  140SAPE  H13X15331   1.331   3.282  68.781  1.9329 -0.5140 -1.0867
  140SAPE  H13Y15332   1.486   3.351  68.753 -0.3410  1.8846 -0.6739
  140SAPE  C31415333   1.333   3.485  68.838 -0.5657  0.6294 -0.2952
  140SAPE  H14X15334   1.406   3.564  68.866 -1.7198  1.6538 -0.0969
  140SAPE  H14Y15335   1.265   3.473  68.925 -1.1536  0.9004 -0.7108
  140SAPE  C31515336   1.251   3.519  68.709  0.1117 -0.4426 -0.7054
  140SAPE  H15X15337   1.158   3.458  68.710 -1.2082  1.4439 -1.8690
  140SAPE  H15Y15338   1.323   3.493  68.628  2.5094 -1.5575  1.6154
  140SAPE  C31615339   1.190   3.662  68.705  0.5849 -0.1960  0.5310
  140SAPE  H16X15340   1.269   3.734  68.675 -1.7884  3.0148  1.4384
  140SAPE  H16Y15341   1.174   3.702  68.807 -0.8567  2.8253 -0.7721
  140SAPE  C31715342   1.051   3.674  68.636  0.1225 -0.2433 -0.3503
  140SAPE  H17X15343   1.010   3.778  68.640  3.4190  1.2202 -1.2613
  140SAPE  H17Y15344   0.976   3.605  68.680 -1.5099  1.3523 -0.4724
  140SAPE  C31815345   1.062   3.635  68.489 -0.1880 -0.2921  0.4997
  140SAPE  H18X15346   1.107   3.533  68.489 -0.9476 -0.6303  0.2053
  140SAPE  H18Y15347   1.125   3.701  68.425  0.5037 -1.9991 -0.6443
  140SAPE  H18Z15348   0.960   3.634  68.446  0.3606 -1.9232 -0.8773
  141SAPE     N15349   0.026   0.489  58.763  0.4967 -0.4698 -0.5951
  141SAPE   HN115350   0.113   0.502  58.707  0.8020 -3.5838 -1.0682
  141SAPE   HN215351  -0.044   0.432  58.710 -1.6414 -1.9627  3.4028
  141SAPE   HN315352  -0.022   0.578  58.786  2.2639  0.5841 -0.8407
  141SAPE   C1215353   0.078   0.396  58.867  0.3902  0.2474  0.1925
  141SAPE  H12A15354  -0.009   0.360  58.925 -0.3213  1.2357 -0.2307
  141SAPE  H12B15355   0.141   0.463  58.930  0.7687 -0.0730  0.1544
  141SAPE   C1115356   0.158   0.275  58.820  0.4257 -0.0340 -0.6325
  141SAPE  H11A15357   0.101   0.210  58.750  0.7658 -0.9540 -0.0730
  141SAPE  H11B15358   0.171   0.215  58.913 -0.6449  0.5515 -0.0857
  141SAPE     P15359   0.319   0.390  58.636  0.3036 -0.5807 -0.4792
  141SAPE   O1315360   0.264   0.525  58.620  0.2524  0.4925  0.2500
  141SAPE   O1415361   0.466   0.383  58.614 -0.0124  0.6426 -0.3380
  141SAPE   O1215362   0.282   0.329  58.773  0.5298 -0.8293 -0.6327
  141SAPE   O1115363   0.231   0.305  58.534 -0.4121 -0.1001 -0.0586
  141SAPE    C115364   0.271   0.164  58.522 -0.1889 -0.1356 -1.2998
  141SAPE    HA15365   0.315   0.128  58.617  0.1937 -0.7614 -1.7067
  141SAPE    HB15366   0.182   0.097  58.520  0.3437 -0.9003 -0.0678
  141SAPE    C215367   0.391   0.136  58.420 -0.4273 -0.7945  0.1255
  141SAPE    HS15368   0.440   0.234  58.434 -0.7420 -0.5244 -0.6090
  141SAPE   O2115369   0.346   0.113  58.290 -0.4221  0.1676  0.0786
  141SAPE   C2115370   0.366   0.213  58.199 -0.2811  0.1200  0.2264
  141SAPE   O2215371   0.409   0.320  58.221 -0.4971 -0.5486 -0.8603
  141SAPE   C2215372   0.300   0.164  58.066 -0.7037 -0.1848  0.3395
  141SAPE   H2R15373   0.316   0.054  58.061  0.4639 -0.0451  0.6087
  141SAPE   H2S15374   0.193   0.191  58.067 -0.9633 -1.2047  0.8441
  141SAPE    C315375   0.484   0.010  58.452 -0.0314 -0.1967 -0.4920
  141SAPE    HX15376   0.535  -0.010  58.356 -2.1958 -1.8530 -1.3865
  141SAPE    HY15377   0.417  -0.075  58.478 -0.6372  0.2684 -0.5102
  141SAPE   O3115378   0.568   0.034  58.575  0.2830 -0.6181  0.1413
  141SAPE   C3115379   0.678   0.109  58.546 -0.1012  0.2830 -0.0196
  141SAPE   O3215380   0.705   0.171  58.442  0.0595 -0.0637 -0.3110
  141SAPE   C3215381   0.771   0.114  58.673  0.1113  0.4451 -0.1997
  141SAPE   H2X15382   0.772   0.223  58.695 -1.7966  0.5268 -0.3343
  141SAPE   H2Y15383   0.861   0.060  58.638  0.1705  0.0661  0.5163
  141SAPE   C2315384   0.359   0.212  57.928 -0.3013  0.3761 -0.2262
  141SAPE   H3R15385   0.415   0.306  57.949 -0.6521  0.4999  0.1812
  141SAPE   H3S15386   0.285   0.251  57.855  0.4885 -0.3008 -1.4091
  141SAPE   C2415387   0.447   0.097  57.871 -0.5133  0.3313 -0.2706
  141SAPE   H4R15388   0.394   0.005  57.839  2.4739 -0.6887 -2.8285
  141SAPE   H4S15389   0.510   0.074  57.959 -1.0348  2.3722  0.6860
  141SAPE   C2515390   0.519   0.154  57.753  0.4696 -0.5262 -0.3583
  141SAPE   H5R15391   0.461   0.229  57.699  1.1516  0.7956  0.6866
  141SAPE   C2615392   0.650   0.144  57.724  0.4157 -0.4485 -0.4933
  141SAPE   H6R15393   0.702   0.201  57.646  0.3326 -0.5618 -0.6337
  141SAPE   C2715394   0.742   0.057  57.805  0.0939 -0.8449 -0.0216
  141SAPE   H7R15395   0.815  -0.008  57.752  1.8873  2.8220 -2.4701
  141SAPE   H7S15396   0.682  -0.003  57.877 -1.3837 -0.3809 -0.8296
  141SAPE   C2815397   0.846   0.154  57.870 -0.6903 -0.1771  0.0420
  141SAPE   H8R15398   0.815   0.252  57.909  1.0034  0.4845 -0.1755
  141SAPE   C2915399   0.975   0.133  57.882 -0.2257 -0.0616  0.0105
  141SAPE   H9R15400   1.021   0.211  57.945 -1.3979  0.4853  0.2125
  141SAPE  C21015401   1.051   0.002  57.864  0.4133  0.2096 -0.3927
  141SAPE  H10R15402   0.990  -0.078  57.909 -1.6923  1.9318 -0.0189
  141SAPE  H10S15403   1.145   0.010  57.923 -0.5939 -0.4903  1.3688
  141SAPE  C21115404   1.072  -0.032  57.714 -0.4546 -0.3445  0.2950
  141SAPE  H11R15405   0.998   0.001  57.639  1.6971  0.1672 -1.7417
  141SAPE  C21215406   1.180  -0.108  57.669  0.6306 -0.6502 -0.2748
  141SAPE  H12R15407   1.188  -0.107  57.560  1.3546  1.2323 -0.2445
  141SAPE  C21315408   1.274  -0.186  57.754 -0.3672 -0.3812  1.4500
  141SAPE  H13R15409   1.208  -0.215  57.839 -2.0772 -0.3041  0.1952
  141SAPE  H13S15410   1.341  -0.120  57.813  1.5454 -0.5544 -0.4202
  141SAPE  C21415411   1.353  -0.302  57.693 -0.3127 -0.3595  1.2402
  141SAPE  H14R15412   1.326  -0.404  57.726  1.4552 -1.5339 -0.6597
  141SAPE  C21515413   1.461  -0.282  57.617  1.0999 -0.9114 -0.4506
  141SAPE  H15R15414   1.516  -0.372  57.585 -1.0903 -2.3151 -0.4842
  141SAPE  C21615415   1.507  -0.140  57.587  0.2876 -0.2113  0.7081
  141SAPE  H16R15416   1.617  -0.123  57.588 -0.3127  5.3297  0.4858
  141SAPE  H16S15417   1.469  -0.063  57.657 -0.1222  0.4606 -0.2380
  141SAPE  C21715418   1.465  -0.084  57.446  0.1609  0.2868  0.2799
  141SAPE  H17R15419   1.469   0.027  57.450  2.3832  0.4112 -2.3556
  141SAPE  H17S15420   1.356  -0.107  57.439 -0.3753  2.7259 -0.3951
  141SAPE  C21815421   1.547  -0.152  57.334  0.8421  0.5114 -0.4399
  141SAPE  H18R15422   1.501  -0.133  57.234 -0.6285 -3.4910 -0.7012
  141SAPE  H18S15423   1.539  -0.261  57.352  0.1983  1.1293  4.1650
  141SAPE  C21915424   1.692  -0.114  57.327  0.3354 -0.1924  0.5457
  141SAPE  H19R15425   1.757  -0.146  57.411 -1.4770  1.2053  2.5937
  141SAPE  H19S15426   1.705  -0.003  57.335  4.7360  0.0070 -3.9653
  141SAPE  C22015427   1.768  -0.146  57.196 -0.1284 -0.4010  0.3369
  141SAPE  H20R15428   1.772  -0.257  57.193 -1.1728 -0.4249 -2.3792
  141SAPE  H20S15429   1.866  -0.095  57.199 -0.9105  1.2059 -0.2514
  141SAPE  H20T15430   1.705  -0.120  57.109  0.4226 -0.8696 -0.2138
  141SAPE   C3315431   0.695   0.046  58.789 -1.1518  0.0498 -0.0713
  141SAPE   H3X15432   0.673  -0.062  58.779  1.9948 -0.9245  2.0174
  141SAPE   H3Y15433   0.597   0.098  58.800 -2.0070 -1.9302  2.4507
  141SAPE   C3415434   0.773   0.060  58.926 -0.3852 -0.0049 -0.2802
  141SAPE   H4X15435   0.786   0.168  58.947  0.5761  0.4204 -2.7867
  141SAPE   H4Y15436   0.870   0.013  58.899 -0.2635  1.2520 -2.2022
  141SAPE   C3515437   0.700  -0.025  59.035 -0.0843 -0.1531  0.0853
  141SAPE   H5X15438   0.693  -0.131  59.002  0.2499 -0.6825  1.6173
  141SAPE   H5Y15439   0.594   0.005  59.045 -0.0811  0.1493 -0.7499
  141SAPE   C3615440   0.775  -0.010  59.175  0.4480 -0.2801  0.1363
  141SAPE   H6X15441   0.747   0.095  59.196  0.6421 -0.5399  1.8887
  141SAPE   H6Y15442   0.883  -0.018  59.148  0.8378  2.8581  0.4847
  141SAPE   C3715443   0.722  -0.106  59.287 -0.9087  0.1345  0.0487
  141SAPE   H7X15444   0.714  -0.204  59.235 -0.6038  0.1772 -0.0854
  141SAPE   H7Y15445   0.619  -0.084  59.321 -2.4921 -2.7811 -2.3594
  141SAPE   C3815446   0.821  -0.104  59.399  0.6649 -1.1301 -0.3380
  141SAPE   H8X15447   0.832   0.004  59.424 -3.6066 -1.2448  3.3012
  141SAPE   H8Y15448   0.925  -0.137  59.378  0.4135 -0.2311 -3.4952
  141SAPE   C3915449   0.756  -0.164  59.526 -0.0093  0.1403 -0.0098
  141SAPE   H9X15450   0.758  -0.274  59.513  0.4966  0.3314 -2.0012
  141SAPE   H9Y15451   0.656  -0.117  59.542  0.1964  1.2512 -1.6352
  141SAPE  C31015452   0.832  -0.130  59.654 -0.9802  0.7286 -0.2040
  141SAPE  H10X15453   0.769  -0.111  59.743 -0.6971 -0.8300  0.3535
  141SAPE  H10Y15454   0.883  -0.032  59.638  0.1927  0.3832  1.1590
  141SAPE  C31115455   0.943  -0.236  59.691  0.1722 -0.0354  0.7625
  141SAPE  H11X15456   1.034  -0.194  59.736  1.0634 -0.2594 -0.7544
  141SAPE  H11Y15457   0.984  -0.279  59.597 -1.1332  0.5913 -0.1202
  141SAPE  C31215458   0.882  -0.360  59.770 -0.0414 -1.1114 -0.6380
  141SAPE  H12X15459   0.809  -0.402  59.698 -0.9509 -2.5563  1.0588
  141SAPE  H12Y15460   0.812  -0.325  59.850 -2.2386 -0.6608 -2.6362
  141SAPE  C31315461   0.978  -0.472  59.799 -0.0826 -0.4600 -0.4253
  141SAPE  H13X15462   1.057  -0.485  59.722 -0.2095 -1.0815 -0.4511
  141SAPE  H13Y15463   0.915  -0.563  59.802 -4.5736  2.3239 -0.2592
  141SAPE  C31415464   1.046  -0.439  59.931  1.0606  0.4813  0.3575
  141SAPE  H14X15465   1.083  -0.334  59.939  6.2500 -1.0632  0.0745
  141SAPE  H14Y15466   1.134  -0.504  59.949  2.3197  1.7276 -1.0046
  141SAPE  C31515467   0.948  -0.483  60.044  0.1836 -0.0758  0.5047
  141SAPE  H15X15468   0.928  -0.591  60.032  0.2857 -0.2802  2.0651
  141SAPE  H15Y15469   0.850  -0.432  60.037  0.2368  0.5551  3.2526
  141SAPE  C31615470   1.006  -0.451  60.175  0.1524 -0.4231 -0.3476
  141SAPE  H16X15471   1.100  -0.509  60.185 -1.2933 -3.1910 -1.6395
  141SAPE  H16Y15472   0.938  -0.481  60.258  1.4053 -2.3964  0.0164
  141SAPE  C31715473   1.027  -0.298  60.199  0.1097  0.0872  0.2073
  141SAPE  H17X15474   1.130  -0.265  60.173 -0.1922  1.1072  0.2922
  141SAPE  H17Y15475   1.021  -0.269  60.306 -1.5828 -1.6532  0.6302
  141SAPE  C31815476   0.922  -0.207  60.124 -0.1362  0.6808 -0.4764
  141SAPE  H18X15477   0.947  -0.194  60.017  0.2699 -1.6913 -0.7246
  141SAPE  H18Y15478   0.935  -0.103  60.162 -2.6310  1.4104 -1.4275
  141SAPE  H18Z15479   0.821  -0.252  60.135  0.2976  0.2800  2.8026
  142SAPE     N15480   0.660   1.113  63.087  0.8073 -0.0270 -0.5173
  142SAPE   HN115481   0.757   1.111  63.050  0.9724  0.5110 -0.1283
  142SAPE   HN215482   0.643   1.151  63.183 -3.9884  1.0302 -1.5678
  142SAPE   HN315483   0.658   1.011  63.108  2.6903 -0.2530 -1.2424
  142SAPE   C1215484   0.551   1.153  62.993  0.7825 -0.0894 -1.3456
  142SAPE  H12A15485   0.534   1.083  62.909  0.9320  3.2507 -4.4274
  142SAPE  H12B15486   0.559   1.260  62.966 -0.6732  0.5368  0.4268
  142SAPE   C1115487   0.413   1.138  63.069  1.1431  0.2405  0.5007
  142SAPE  H11A15488   0.392   1.029  63.076  2.5725 -0.0705  0.2400
  142SAPE  H11B15489   0.339   1.183  63.000  0.3684 -1.1190  0.3973
  142SAPE     P15490   0.364   1.341  63.232 -0.1292 -0.1172 -0.2231
  142SAPE   O1315491   0.454   1.396  63.340 -0.2593 -0.5756 -0.0282
  142SAPE   O1415492   0.366   1.417  63.110 -0.2228 -0.1633  0.0573
  142SAPE   O1215493   0.401   1.193  63.198 -0.5186  0.1139 -0.7525
  142SAPE   O1115494   0.213   1.344  63.278 -0.3321 -0.1753 -1.3912
  142SAPE    C115495   0.127   1.233  63.275 -0.5240 -0.0342 -0.1824
  142SAPE    HA15496   0.140   1.167  63.187 -0.7156 -1.6948  0.9955
  142SAPE    HB15497   0.146   1.166  63.361 -0.8167 -3.5036 -2.6324
  142SAPE    C215498  -0.017   1.284  63.266 -0.1155  0.6339 -0.4222
  142SAPE    HS15499  -0.008   1.352  63.178  1.4662 -1.3519 -1.9112
  142SAPE   O2115500  -0.053   1.345  63.391  0.3631 -0.2612  0.7466
  142SAPE   C2115501  -0.008   1.469  63.422  0.1247  0.1641  0.0975
  142SAPE   O2215502   0.050   1.552  63.347 -0.1271 -0.6902  0.4547
  142SAPE   C2215503  -0.022   1.485  63.574  0.8467  0.4483 -0.5225
  142SAPE   H2R15504  -0.008   1.593  63.598 -0.6764  0.9415 -1.7005
  142SAPE   H2S15505  -0.122   1.467  63.618 -1.1555  1.4250 -4.2710
  142SAPE    C315506  -0.113   1.162  63.226 -0.1759 -0.5705  0.3804
  142SAPE    HX15507  -0.216   1.189  63.255  0.1237 -0.1227  1.0606
  142SAPE    HY15508  -0.092   1.079  63.296 -2.1303 -2.5918 -1.2702
  142SAPE   O3115509  -0.102   1.119  63.081 -0.6160  0.0688  0.0438
  142SAPE   C3115510  -0.149   1.204  62.983  0.9372 -0.3164  0.3275
  142SAPE   O3215511  -0.199   1.313  63.004 -0.4480 -0.1929 -0.2458
  142SAPE   C3215512  -0.151   1.127  62.855  0.1145 -0.1571  1.0247
  142SAPE   H2X15513  -0.175   1.204  62.778  0.8643  0.5426  1.4798
  142SAPE   H2Y15514  -0.235   1.056  62.864 -1.6397  1.5110 -0.9037
  142SAPE   C2315515   0.076   1.409  63.668 -0.3826  0.2752  0.3380
  142SAPE   H3R15516   0.175   1.398  63.620 -0.0814  3.8789 -0.2113
  142SAPE   H3S15517   0.032   1.309  63.686 -2.5696  1.4447  1.9384
  142SAPE   C2415518   0.096   1.470  63.811  0.7244 -0.7432 -0.2924
  142SAPE   H4R15519   0.090   1.386  63.883  1.5771 -3.0339 -2.7202
  142SAPE   H4S15520   0.013   1.540  63.831  0.4986 -0.5488 -1.8063
  142SAPE   C2515521   0.239   1.542  63.827  0.1532 -0.1430 -0.2192
  142SAPE   H5R15522   0.326   1.482  63.795  0.0290  0.4254 -1.6855
  142SAPE   C2615523   0.259   1.668  63.868  0.1348  0.8200 -0.4481
  142SAPE   H6R15524   0.360   1.710  63.856  0.6310 -0.5632 -1.3243
  142SAPE   C2715525   0.158   1.765  63.911 -0.9444  0.3318  0.6100
  142SAPE   H7R15526   0.053   1.743  63.882 -2.0645 -0.5157  4.5630
  142SAPE   H7S15527   0.190   1.855  63.854 -0.5220 -0.0155  0.2979
  142SAPE   C2815528   0.172   1.784  64.060 -0.3621  0.4623 -1.0497
  142SAPE   H8R15529   0.219   1.873  64.105  0.9330 -0.5444 -0.3571
  142SAPE   C2915530   0.098   1.713  64.150  0.8257 -0.9236  0.3176
  142SAPE   H9R15531   0.112   1.741  64.256  2.7393  2.6505 -0.6989
  142SAPE  C21015532  -0.007   1.600  64.130 -0.6194  0.9136  0.4010
  142SAPE  H10R15533   0.049   1.516  64.084 -1.3839  1.1064 -0.9069
  142SAPE  H10S15534  -0.079   1.623  64.049 -3.1852  1.5151  2.7209
  142SAPE  C21115535  -0.066   1.549  64.255 -0.5220  0.4874 -0.5924
  142SAPE  H11R15536   0.015   1.507  64.316  1.1552 -0.0076 -2.9892
  142SAPE  C21215537  -0.190   1.551  64.302 -0.1751  0.6377  1.0757
  142SAPE  H12R15538  -0.214   1.491  64.391 -0.0177 -1.6576 -0.3487
  142SAPE  C21315539  -0.311   1.608  64.225  0.0208  0.4504 -0.6423
  142SAPE  H13R15540  -0.357   1.531  64.159  0.7826  2.8462 -4.2870
  142SAPE  H13S15541  -0.272   1.691  64.162  1.8068  2.0245  2.3189
  142SAPE  C21415542  -0.425   1.660  64.312  0.1653 -0.5602 -0.1371
  142SAPE  H14R15543  -0.434   1.608  64.409  2.6360 -0.7421  0.0488
  142SAPE  C21515544  -0.497   1.778  64.304 -0.4319  0.1589  0.1687
  142SAPE  H15R15545  -0.585   1.777  64.369 -0.5872 -0.5021 -0.0432
  142SAPE  C21615546  -0.478   1.887  64.205  0.1502  0.7931  0.5005
  142SAPE  H16R15547  -0.563   1.881  64.134 -0.6549  1.7376  1.3438
  142SAPE  H16S15548  -0.385   1.886  64.144 -0.2782  0.2161 -0.1528
  142SAPE  C21715549  -0.505   2.028  64.268  0.8860  0.5746  0.0866
  142SAPE  H17R15550  -0.436   2.047  64.352  1.6600  1.6836 -0.7732
  142SAPE  H17S15551  -0.608   2.027  64.309  0.7430  2.8627 -0.0818
  142SAPE  C21815552  -0.509   2.135  64.170  0.4931 -0.6135  0.4512
  142SAPE  H18R15553  -0.594   2.098  64.108  1.5509 -2.9890  0.3233
  142SAPE  H18S15554  -0.431   2.143  64.092  1.3093  0.3748  1.3496
  142SAPE  C21915555  -0.541   2.269  64.242  0.4794  0.6302  0.1818
  142SAPE  H19R15556  -0.467   2.295  64.320  1.7437  0.5442 -0.9604
  142SAPE  H19S15557  -0.632   2.244  64.302 -1.1026  6.3803  0.7785
  142SAPE  C22015558  -0.560   2.387  64.148  0.1354 -0.4759 -0.1619
  142SAPE  H20R15559  -0.467   2.417  64.094 -0.6713 -0.2960 -1.4983
  142SAPE  H20S15560  -0.604   2.468  64.211 -0.4483 -0.1470 -0.9775
  142SAPE  H20T15561  -0.634   2.361  64.070  2.1963  0.0218 -2.3863
  142SAPE   C3315562  -0.021   1.069  62.794 -0.1558  0.4146 -0.1405
  142SAPE   H3X15563  -0.003   0.971  62.844  0.5839  1.9720  2.9255
  142SAPE   H3Y15564   0.070   1.132  62.807  0.3191  0.0295 -1.4499
  142SAPE   C3415565  -0.028   1.057  62.644 -0.4945 -0.5867  0.7206
  142SAPE   H4X15566  -0.039   1.156  62.596  1.7215  0.9845  3.1948
  142SAPE   H4Y15567  -0.117   0.993  62.623 -1.4648  0.7835  0.5278
  142SAPE   C3515568   0.082   0.975  62.577 -0.9211 -0.4449 -0.0660
  142SAPE   H5X15569   0.085   0.870  62.615 -1.0497 -0.6636 -0.6473
  142SAPE   H5Y15570   0.178   1.025  62.604  0.3661 -4.0449  2.9133
  142SAPE   C3615571   0.056   0.940  62.423  0.7093 -0.6104 -0.5360
  142SAPE   H6X15572   0.029   1.035  62.370  0.1940 -0.0809  0.6513
  142SAPE   H6Y15573  -0.035   0.878  62.413 -0.1062  0.5144 -0.2535
  142SAPE   C3715574   0.149   0.842  62.358  0.3440 -0.5398 -0.7017
  142SAPE   H7X15575   0.131   0.752  62.420 -0.9924  1.2052  1.6144
  142SAPE   H7Y15576   0.252   0.881  62.368  0.4553 -0.8115 -0.7674
  142SAPE   C3815577   0.117   0.810  62.214  0.7220 -0.3727 -0.8103
  142SAPE   H8X15578   0.082   0.904  62.165 -1.9477 -0.3151  0.9947
  142SAPE   H8Y15579   0.029   0.742  62.209  0.0394  0.5332 -1.6716
  142SAPE   C3915580   0.232   0.742  62.138 -0.1342 -0.3427  0.5403
  142SAPE   H9X15581   0.235   0.635  62.169 -0.2352 -0.3079  0.6684
  142SAPE   H9Y15582   0.330   0.790  62.157  0.5130 -1.8157  1.0801
  142SAPE  C31015583   0.214   0.748  61.985  0.3381 -1.1275 -0.4681
  142SAPE  H10X15584   0.317   0.731  61.948  1.4694  1.3304  1.3033
  142SAPE  H10Y15585   0.181   0.846  61.945  0.4964 -0.9513 -0.1728
  142SAPE  C31115586   0.132   0.632  61.941 -1.1027  0.4746  0.5873
  142SAPE  H11X15587   0.059   0.606  62.021 -1.9612 -1.9024 -0.8617
  142SAPE  H11Y15588   0.204   0.550  61.921 -2.3549 -0.5159  0.0027
  142SAPE  C31215589   0.058   0.646  61.801 -0.6036  0.1522  0.5727
  142SAPE  H12X15590  -0.051   0.647  61.821 -0.8158 -3.9571  0.5284
  142SAPE  H12Y15591   0.069   0.554  61.740 -1.2282  0.4196  0.0526
  142SAPE  C31315592   0.135   0.745  61.701 -0.6476 -0.0762 -0.0862
  142SAPE  H13X15593   0.244   0.748  61.718 -0.4094 -0.2551 -1.5223
  142SAPE  H13Y15594   0.100   0.848  61.728  1.3092  0.6985 -0.3278
  142SAPE  C31415595   0.111   0.700  61.558  0.1800 -0.7149 -0.6061
  142SAPE  H14X15596   0.150   0.598  61.537  3.0653  0.0359  0.5153
  142SAPE  H14Y15597   0.160   0.773  61.490 -2.4567  1.1478 -0.6295
  142SAPE  C31515598  -0.040   0.691  61.514  0.2199 -0.5381 -0.4404
  142SAPE  H15X15599  -0.100   0.784  61.520  0.9489 -0.0584 -0.5126
  142SAPE  H15Y15600  -0.074   0.614  61.588  1.4860  1.6848  2.6590
  142SAPE  C31615601  -0.043   0.654  61.366  0.7953  0.5708 -0.2065
  142SAPE  H16X15602   0.020   0.563  61.354 -0.6216 -0.1176 -3.6178
  142SAPE  H16Y15603  -0.021   0.733  61.291 -1.2650  0.6714 -0.7639
  142SAPE  C31715604  -0.188   0.607  61.322  0.4707 -0.2497 -1.1152
  142SAPE  H17X15605  -0.228   0.574  61.420  0.8175 -0.4891 -1.0511
  142SAPE  H17Y15606  -0.192   0.515  61.261 -4.7570 -0.5837 -0.7189
  142SAPE  C31815607  -0.292   0.717  61.287  0.3224 -0.5945 -0.0573
  142SAPE  H18X15608  -0.359   0.731  61.374 -0.8731  0.0810 -1.0405
  142SAPE  H18Y15609  -0.353   0.689  61.198  0.6265  1.3976 -0.9497
  142SAPE  H18Z15610  -0.227   0.807  61.279 -2.3395  1.3784 -1.4417
  143SAPE     N15611   0.514   1.775  66.925 -1.0049  0.1962 -0.0027
  143SAPE   HN115612   0.495   1.855  66.989 -3.0926 -0.9833  0.9561
  143SAPE   HN215613   0.457   1.792  66.840 -2.2581 -4.4667 -0.3868
  143SAPE   HN315614   0.476   1.692  66.976  3.3258 -2.8608 -1.2343
  143SAPE   C1215615   0.664   1.762  66.896  1.2301 -0.5271  0.8247
  143SAPE  H12A15616   0.673   1.660  66.852  1.4750 -0.1006 -0.1478
  143SAPE  H12B15617   0.722   1.762  66.991 -0.1123  0.6645  1.6782
  143SAPE   C1115618   0.732   1.869  66.797  0.1552  0.4318 -0.6609
  143SAPE  H11A15619   0.674   1.880  66.703  0.7507  3.4657 -0.7927
  143SAPE  H11B15620   0.835   1.833  66.776  0.1450 -1.0507  1.5138
  143SAPE     P15621   0.660   2.118  66.854  0.3601 -0.7056 -0.3066
  143SAPE   O1315622   0.524   2.081  66.906  0.1589  0.1288  0.0931
  143SAPE   O1415623   0.735   2.229  66.923 -0.6185 -0.8090  0.8587
  143SAPE   O1215624   0.758   1.991  66.863 -0.3450  0.4720  0.0869
  143SAPE   O1115625   0.650   2.144  66.701  0.6225  0.6797 -0.0027
  143SAPE    C115626   0.772   2.193  66.641 -0.3568  0.0216  0.2692
  143SAPE    HA15627   0.757   2.303  66.630  0.5656  0.3662  2.0469
  143SAPE    HB15628   0.867   2.182  66.697  1.1437  3.4426 -1.3338
  143SAPE    C215629   0.783   2.149  66.486 -0.6079 -0.2366  0.7070
  143SAPE    HS15630   0.684   2.154  66.436  0.1926 -1.9755 -1.1990
  143SAPE   O2115631   0.837   2.013  66.484  0.4175 -0.1468  0.3793
  143SAPE   C2115632   0.792   1.936  66.383 -0.6120 -0.3112 -0.7339
  143SAPE   O2215633   0.716   1.970  66.296  0.6957 -0.3645 -0.0785
  143SAPE   C2215634   0.873   1.803  66.396 -0.1435 -0.7111 -0.6162
  143SAPE   H2R15635   0.922   1.811  66.495  1.6298  0.1552 -1.5256
  143SAPE   H2S15636   0.805   1.717  66.413 -1.9120  1.0190  1.7864
  143SAPE    C315637   0.887   2.236  66.401  0.8678 -0.6260  1.6001
  143SAPE    HX15638   0.990   2.235  66.444  1.7977 -0.8581 -0.5365
  143SAPE    HY15639   0.850   2.341  66.398 -2.3580 -1.5690 -3.6964
  143SAPE   O3115640   0.895   2.191  66.263 -0.0544  0.1532 -0.2038
  143SAPE   C3115641   0.798   2.231  66.179 -0.1375  0.2631 -0.1268
  143SAPE   O3215642   0.706   2.309  66.217  0.4178 -0.1616  0.2119
  143SAPE   C3215643   0.815   2.150  66.050 -0.6222  0.0063  0.0970
  143SAPE   H2X15644   0.786   2.047  66.080  0.6089 -0.5302 -0.4789
  143SAPE   H2Y15645   0.912   2.163  65.997  0.5429 -0.4548  2.0194
  143SAPE   C2315646   0.971   1.773  66.285 -1.3589 -0.6195  0.7834
  143SAPE   H3R15647   0.932   1.808  66.187 -0.5524  1.2871  1.0986
  143SAPE   H3S15648   0.993   1.664  66.280  0.7816 -0.2351  0.7758
  143SAPE   C2415649   1.112   1.840  66.296  0.3607  0.6511 -0.4517
  143SAPE   H4R15650   1.185   1.788  66.231  2.6362  0.8295  1.8301
  143SAPE   H4S15651   1.150   1.809  66.396  0.9674 -1.2248 -1.2314
  143SAPE   C2515652   1.119   1.990  66.283  0.9618 -0.5649  0.1042
  143SAPE   H5R15653   1.063   2.043  66.361 -0.0068 -2.7912  1.0035
  143SAPE   C2615654   1.165   2.045  66.170  0.2571 -0.6791 -0.5079
  143SAPE   H6R15655   1.169   2.155  66.162 -0.5745 -0.5373  0.7524
  143SAPE   C2715656   1.202   1.972  66.041  0.3712 -0.4300 -0.1440
  143SAPE   H7R15657   1.155   1.872  66.042 -1.4895  0.2500 -3.3496
  143SAPE   H7S15658   1.309   1.943  66.043  0.6346  0.4574  1.8430
  143SAPE   C2815659   1.164   2.044  65.908  0.4201 -0.0024 -1.1003
  143SAPE   H8R15660   1.074   2.002  65.860  0.7730 -1.1030 -0.8305
  143SAPE   C2915661   1.239   2.149  65.855  0.4946  0.2406 -0.4929
  143SAPE   H9R15662   1.209   2.188  65.756 -2.9443 -0.6200  0.0870
  143SAPE  C21015663   1.349   2.216  65.922 -0.2520  0.1981  0.5409
  143SAPE  H10R15664   1.433   2.208  65.851 -0.2879  0.9984  0.4100
  143SAPE  H10S15665   1.395   2.154  66.003  0.3864 -0.8213 -0.5712
  143SAPE  C21115666   1.304   2.350  65.956  0.7342  0.2120  0.8260
  143SAPE  H11R15667   1.195   2.353  65.973  0.8723 -1.7333  2.4876
  143SAPE  C21215668   1.380   2.457  65.973 -0.0762 -0.4074  1.2575
  143SAPE  H12R15669   1.342   2.559  65.993 -1.2570 -1.2466  3.5955
  143SAPE  C21315670   1.528   2.468  65.956 -0.4070 -0.0165  0.8386
  143SAPE  H13R15671   1.564   2.367  65.985 -1.0254 -0.8633 -1.1412
  143SAPE  H13S15672   1.569   2.544  66.025  1.5145 -0.2261 -0.0213
  143SAPE  C21415673   1.585   2.490  65.819  0.7130  0.2699 -0.4207
  143SAPE  H14R15674   1.556   2.404  65.757 -0.8339  1.2345 -1.0850
  143SAPE  C21515675   1.652   2.588  65.764  0.1428  0.5010  0.7183
  143SAPE  H15R15676   1.675   2.579  65.656 -3.7247  2.1091 -0.4192
  143SAPE  C21615677   1.688   2.719  65.821  0.0257 -0.6150  0.1964
  143SAPE  H16R15678   1.755   2.777  65.754 -3.5681  2.0750 -1.3782
  143SAPE  H16S15679   1.743   2.701  65.916  0.8887 -1.2242 -0.4037
  143SAPE  C21715680   1.566   2.806  65.838  0.6940 -0.2316  0.0269
  143SAPE  H17R15681   1.491   2.772  65.913 -0.4763  2.1207  0.0068
  143SAPE  H17S15682   1.511   2.832  65.745 -1.4105 -1.2080  0.9231
  143SAPE  C21815683   1.619   2.949  65.877 -0.1260  0.2282 -0.7532
  143SAPE  H18R15684   1.690   2.933  65.960 -2.0091 -2.4123  0.5147
  143SAPE  H18S15685   1.538   3.008  65.926 -1.1230 -2.3362  0.8981
  143SAPE  C21915686   1.674   3.028  65.762 -0.2968 -0.1630  0.7500
  143SAPE  H19R15687   1.584   3.050  65.702 -2.1262 -2.2980  2.5337
  143SAPE  H19S15688   1.741   2.963  65.701 -4.4423 -1.3715 -2.9747
  143SAPE  C22015689   1.759   3.148  65.779  0.4917 -0.0061  1.3492
  143SAPE  H20R15690   1.864   3.143  65.745  0.6575  0.8812  1.6942
  143SAPE  H20S15691   1.758   3.175  65.887 -1.6963  1.9935  0.9453
  143SAPE  H20T15692   1.718   3.226  65.710  1.7039 -1.0568 -0.6228
  143SAPE   C3315693   0.719   2.184  65.936  0.4579 -1.0637 -0.8229
  143SAPE   H3X15694   0.622   2.214  65.980 -0.7914 -2.5406 -2.4032
  143SAPE   H3Y15695   0.692   2.098  65.870 -0.1846  1.1278 -3.6036
  143SAPE   C3415696   0.790   2.276  65.838  0.3012  0.1484  1.0564
  143SAPE   H4X15697   0.873   2.213  65.800 -2.0216 -1.6798 -1.3388
  143SAPE   H4Y15698   0.817   2.365  65.898 -3.1444  1.2185  1.2742
  143SAPE   C3515699   0.690   2.316  65.718 -0.2966 -0.5362  0.1008
  143SAPE   H5X15700   0.601   2.364  65.765  0.1974  3.3424 -2.4200
  143SAPE   H5Y15701   0.645   2.226  65.672 -2.1994 -0.3818  1.5463
  143SAPE   C3615702   0.756   2.421  65.625 -0.3113 -0.1457  0.1010
  143SAPE   H6X15703   0.832   2.393  65.550 -1.9716 -0.6271 -1.4701
  143SAPE   H6Y15704   0.798   2.508  65.681  1.2074 -0.7422 -0.0683
  143SAPE   C3715705   0.653   2.492  65.537  0.0366  0.1136  0.1684
  143SAPE   H7X15706   0.558   2.435  65.542 -0.8481  1.6089  1.3220
  143SAPE   H7Y15707   0.680   2.471  65.431 -0.0797 -0.1408  0.1847
  143SAPE   C3815708   0.629   2.641  65.567 -0.8085  0.0867 -0.1888
  143SAPE   H8X15709   0.618   2.630  65.677  3.9119 -0.2012  0.4967
  143SAPE   H8Y15710   0.534   2.680  65.527 -2.3344 -2.5360  0.6584
  143SAPE   C3915711   0.743   2.739  65.527  1.2299  0.7157 -0.4190
  143SAPE   H9X15712   0.786   2.718  65.426 -1.6551 -0.7299 -1.4789
  143SAPE   H9Y15713   0.828   2.728  65.598 -0.7797  1.8226  2.3324
  143SAPE  C31015714   0.677   2.884  65.506  0.1831 -0.3013  1.0860
  143SAPE  H10X15715   0.640   2.920  65.604  1.0338  1.4443  0.8036
  143SAPE  H10Y15716   0.600   2.878  65.427  0.5225  2.0489  0.4975
  143SAPE  C31115717   0.777   2.983  65.435  1.0957  0.0364  0.4764
  143SAPE  H11X15718   0.879   2.942  65.444  1.4412  0.9326  0.7022
  143SAPE  H11Y15719   0.770   3.068  65.505 -1.8161 -0.4822  0.9671
  143SAPE  C31215720   0.738   3.028  65.295  0.2735 -0.3813  0.0825
  143SAPE  H12X15721   0.819   3.099  65.268  1.2937 -1.3419  0.5027
  143SAPE  H12Y15722   0.638   3.076  65.302  0.3475 -0.4757  3.3839
  143SAPE  C31315723   0.731   2.913  65.199 -0.2593 -0.0795  0.2907
  143SAPE  H13X15724   0.634   2.861  65.214 -0.6570  0.3562 -0.7085
  143SAPE  H13Y15725   0.806   2.835  65.227  0.5027  1.2818  2.2255
  143SAPE  C31415726   0.737   2.943  65.049  0.0414  0.6419 -0.1324
  143SAPE  H14X15727   0.744   2.853  64.984 -0.3373 -0.6655  1.5322
  143SAPE  H14Y15728   0.821   3.014  65.033 -1.1301  2.2402  0.5467
  143SAPE  C31515729   0.609   3.025  64.999  0.1403 -0.0374  0.1517
  143SAPE  H15X15730   0.591   3.114  65.062 -0.3230  0.3602 -0.5282
  143SAPE  H15Y15731   0.521   2.959  65.016 -0.3905 -0.0890 -2.3402
  143SAPE  C31615732   0.615   3.073  64.849 -0.9814 -0.0123  0.0778
  143SAPE  H16X15733   0.639   2.984  64.787  1.5635 -1.3678  2.8018
  143SAPE  H16Y15734   0.698   3.146  64.863 -1.8444  1.1592 -0.6060
  143SAPE  C31715735   0.491   3.149  64.812  0.3201  0.9457  0.5349
  143SAPE  H17X15736   0.483   3.220  64.897 -2.7933  0.2526  0.9553
  143SAPE  H17Y15737   0.397   3.089  64.802  0.1007  1.5223 -1.4251
  143SAPE  C31815738   0.499   3.224  64.673 -0.8952 -0.0159 -0.2158
  143SAPE  H18X15739   0.583   3.296  64.682  0.8650 -2.2024  2.3786
  143SAPE  H18Y15740   0.398   3.270  64.665 -1.8255 -1.4173  2.2311
  143SAPE  H18Z15741   0.515   3.148  64.593 -2.2090 -0.5575 -0.0056
  144SAPE     N15742   0.091   0.929  69.418  0.3018  0.9445 -0.7013
  144SAPE   HN115743   0.163   0.985  69.367 -0.1365  2.7863  0.5950
  144SAPE   HN215744   0.113   0.829  69.406 -0.8514  0.6845 -0.8095
  144SAPE   HN315745  -0.003   0.968  69.395 -0.1930 -0.1072 -0.5153
  144SAPE   C1215746   0.094   0.956  69.565 -0.0812 -0.0337  0.0215
  144SAPE  H12A15747   0.020   0.886  69.610 -1.0197  1.5480  1.0207
  144SAPE  H12B15748   0.061   1.058  69.594 -0.1641 -0.8761  3.2789
  144SAPE   C1115749   0.236   0.934  69.619  0.4208 -0.6812 -0.3357
  144SAPE  H11A15750   0.222   0.935  69.729 -1.0205  0.0419 -0.4912
  144SAPE  H11B15751   0.296   1.026  69.599 -2.7688  1.0148 -3.2039
  144SAPE     P15752   0.326   0.689  69.655  0.1052  0.3144 -0.3694
  144SAPE   O1315753   0.203   0.616  69.708 -0.4559  0.7075  0.1153
  144SAPE   O1415754   0.438   0.613  69.591 -0.0709  0.2836 -0.1494
  144SAPE   O1215755   0.292   0.811  69.562  0.3207 -0.6541  0.0312
  144SAPE   O1115756   0.385   0.769  69.775  0.6988 -0.4463 -0.1002
  144SAPE    C115757   0.460   0.688  69.875  0.7905 -0.4329  0.7148
  144SAPE    HA15758   0.390   0.610  69.912 -0.1595  1.2758  2.7275
  144SAPE    HB15759   0.551   0.637  69.838  0.4961 -0.4543 -0.0022
  144SAPE    C215760   0.488   0.776  70.004 -0.2336 -0.0904  0.1480
  144SAPE    HS15761   0.551   0.698  70.053 -1.6825 -0.8219  0.9268
  144SAPE   O2115762   0.374   0.797  70.085 -1.0290  0.0436  0.0579
  144SAPE   C2115763   0.389   0.772  70.212 -0.0282  0.4584 -1.5451
  144SAPE   O2215764   0.496   0.753  70.269  0.0235  0.5088 -0.3019
  144SAPE   C2215765   0.251   0.767  70.283 -0.1924  0.5250 -0.2082
  144SAPE   H2R15766   0.201   0.864  70.297 -3.1764 -1.0717  0.9728
  144SAPE   H2S15767   0.173   0.700  70.240 -1.4305  1.1261  1.0466
  144SAPE    C315768   0.565   0.910  69.970  0.2893 -0.0758  0.1104
  144SAPE    HX15769   0.494   0.983  69.924  1.0140  0.0682 -0.7892
  144SAPE    HY15770   0.636   0.881  69.890 -1.9645 -0.1190 -1.9790
  144SAPE   O3115771   0.628   0.964  70.088  0.1655  0.1756  0.2530
  144SAPE   C3115772   0.748   0.911  70.125  0.8293  0.3639 -0.3258
  144SAPE   O3215773   0.826   0.851  70.056 -0.0280  0.4735 -0.1668
  144SAPE   C3215774   0.761   0.950  70.269 -0.2323 -0.4503  0.4569
  144SAPE   H2X15775   0.660   0.943  70.315 -0.9936 -0.0229 -1.1125
  144SAPE   H2Y15776   0.806   1.052  70.272  0.5075 -0.5625 -2.8207
  144SAPE   C2315777   0.261   0.712  70.428 -0.4790  0.7362 -0.5590
  144SAPE   H3R15778   0.162   0.724  70.476 -1.2157  2.1262 -2.2950
  144SAPE   H3S15779   0.336   0.772  70.483 -0.4039  1.6488 -1.6138
  144SAPE   C2415780   0.289   0.563  70.428  0.0499  0.2618 -0.8074
  144SAPE   H4R15781   0.387   0.548  70.378  0.7591  0.1400  0.5760
  144SAPE   H4S15782   0.215   0.518  70.357 -0.1175 -0.9599  0.1127
  144SAPE   C2515783   0.289   0.511  70.568 -0.1869  0.9681  0.0698
  144SAPE   H5R15784   0.189   0.484  70.605  0.3686 -2.5278 -0.6143
  144SAPE   C2615785   0.387   0.483  70.654  0.2430  0.2392 -0.7594
  144SAPE   H6R15786   0.350   0.440  70.748 -1.1690  0.1200 -1.3397
  144SAPE   C2715787   0.542   0.493  70.640  1.1776  0.6111 -0.2333
  144SAPE   H7R15788   0.578   0.560  70.722 -1.8874  2.3946 -0.1730
  144SAPE   H7S15789   0.554   0.556  70.549  2.3423  1.0379  0.1923
  144SAPE   C2815790   0.610   0.369  70.596  0.3454  0.5069 -0.1404
  144SAPE   H8R15791   0.637   0.357  70.490 -0.7846  0.6240 -0.4600
  144SAPE   C2915792   0.666   0.297  70.692  0.2647  0.6302 -0.6307
  144SAPE   H9R15793   0.733   0.219  70.654 -1.9538 -0.8251 -1.7627
  144SAPE  C21015794   0.645   0.326  70.843 -0.2614  0.1446 -0.4702
  144SAPE  H10R15795   0.539   0.315  70.876 -1.1394 -0.2812 -3.1672
  144SAPE  H10S15796   0.690   0.426  70.861 -0.2010 -0.1949  1.4250
  144SAPE  C21115797   0.736   0.235  70.921 -0.4272  0.4556  0.4878
  144SAPE  H11R15798   0.842   0.261  70.908 -0.2047 -0.1004  1.1030
  144SAPE  C21215799   0.692   0.131  70.996  0.3498  0.6628  0.1260
  144SAPE  H12R15800   0.774   0.068  71.034  0.8707 -0.2450 -2.2593
  144SAPE  C21315801   0.554   0.066  71.006 -0.0360 -0.3591  0.0978
  144SAPE  H13R15802   0.489   0.152  71.032 -1.2150 -0.1494 -3.1130
  144SAPE  H13S15803   0.540  -0.016  71.079  1.3281  0.0840  0.8998
  144SAPE  C21415804   0.491   0.023  70.873  0.4014  0.1969  0.9034
  144SAPE  H14R15805   0.436   0.106  70.827 -0.8753  0.6621  3.1057
  144SAPE  C21515806   0.491  -0.101  70.813  0.1200  0.0203  0.2557
  144SAPE  H15R15807   0.452  -0.117  70.711 -3.3949 -1.2946  1.6437
  144SAPE  C21615808   0.540  -0.226  70.881 -0.2104  1.2411  1.1927
  144SAPE  H16R15809   0.525  -0.326  70.833 -0.0947  2.2246 -1.0327
  144SAPE  H16S15810   0.494  -0.240  70.981  1.1883 -1.6133  1.5437
  144SAPE  C21715811   0.697  -0.237  70.887  0.0846  0.5009  0.0754
  144SAPE  H17R15812   0.743  -0.148  70.934  0.8328  0.0763  0.1617
  144SAPE  H17S15813   0.733  -0.245  70.783 -0.6522  2.8450 -0.4147
  144SAPE  C21815814   0.742  -0.369  70.964 -0.0005  0.5668 -0.3936
  144SAPE  H18R15815   0.673  -0.450  70.932  0.0912  0.4376 -0.2692
  144SAPE  H18S15816   0.719  -0.347  71.070  0.3300  1.1743 -0.4508
  144SAPE  C21915817   0.887  -0.395  70.944 -0.2225 -0.3381 -0.0018
  144SAPE  H19R15818   0.949  -0.306  70.969  0.7164 -1.0786  0.3446
  144SAPE  H19S15819   0.915  -0.419  70.839 -1.0642  0.3856 -0.4045
  144SAPE  C22015820   0.932  -0.514  71.028 -0.1612 -0.2468 -1.3738
  144SAPE  H20R15821   0.949  -0.502  71.137  1.1133  0.5762 -1.6344
  144SAPE  H20S15822   1.031  -0.560  71.005  0.2699 -1.3509  2.1168
  144SAPE  H20T15823   0.865  -0.599  71.003  0.1130 -0.4841 -1.3077
  144SAPE   C3315824   0.870   0.879  70.344  0.7159  0.6804  0.1586
  144SAPE   H3X15825   0.891   0.929  70.441 -0.3000  1.2931  0.0800
  144SAPE   H3Y15826   0.970   0.896  70.299  0.1333  2.3637 -0.5782
  144SAPE   C3415827   0.829   0.732  70.371 -0.2344  0.1659  0.2332
  144SAPE   H4X15828   0.820   0.683  70.272 -2.5820  3.0958 -1.1644
  144SAPE   H4Y15829   0.724   0.726  70.408 -1.6427  0.7496 -3.2574
  144SAPE   C3515830   0.935   0.660  70.466  0.1646  0.5416  0.4596
  144SAPE   H5X15831   0.956   0.740  70.540  2.4020  0.2125  0.2410
  144SAPE   H5Y15832   1.022   0.645  70.399 -0.2907 -2.0513  0.3544
  144SAPE   C3615833   0.896   0.528  70.524 -0.0037  0.2371 -0.2501
  144SAPE   H6X15834   0.856   0.467  70.441  0.3414 -0.6383  0.2155
  144SAPE   H6Y15835   0.833   0.559  70.611  0.3230  3.4682 -1.0267
  144SAPE   C3715836   1.016   0.454  70.578 -0.3214 -0.4511  0.9241
  144SAPE   H7X15837   1.078   0.420  70.492  0.5460 -0.1862  1.4365
  144SAPE   H7Y15838   0.975   0.368  70.635 -2.3135  0.6434  1.2483
  144SAPE   C3815839   1.105   0.533  70.671  0.7003  1.0592 -0.3826
  144SAPE   H8X15840   1.149   0.628  70.633  0.0911  1.2766 -0.5587
  144SAPE   H8Y15841   1.198   0.474  70.686 -0.1468  0.0100  0.9683
  144SAPE   C3915842   1.044   0.538  70.814  0.3531 -0.3808 -0.8187
  144SAPE   H9X15843   0.994   0.440  70.827  0.0510 -0.1511 -0.2118
  144SAPE   H9Y15844   0.967   0.617  70.828 -1.2310 -1.9834 -0.1212
  144SAPE  C31015845   1.151   0.539  70.926  0.6832  0.3616  0.0021
  144SAPE  H10X15846   1.101   0.586  71.013  0.5287  1.9643 -0.9199
  144SAPE  H10Y15847   1.239   0.605  70.911  1.5606  0.0878  3.2010
  144SAPE  C31115848   1.183   0.395  70.971 -0.3065 -0.2362  0.3089
  144SAPE  H11X15849   1.240   0.333  70.899  2.4751 -1.2088  3.1174
  144SAPE  H11Y15850   1.087   0.345  70.995 -1.1198  1.7543  1.4469
  144SAPE  C31215851   1.250   0.395  71.114  0.2021  1.2516 -0.0599
  144SAPE  H12X15852   1.219   0.480  71.178 -0.1780  1.0829 -0.0140
  144SAPE  H12Y15853   1.359   0.402  71.095  0.4406 -0.3079  0.5632
  144SAPE  C31315854   1.238   0.251  71.181 -0.9312 -1.1151  0.2443
  144SAPE  H13X15855   1.318   0.227  71.253  1.8339 -0.4279 -2.3777
  144SAPE  H13Y15856   1.249   0.177  71.099  1.9929 -0.0489 -0.4628
  144SAPE  C31415857   1.116   0.224  71.265  0.1430  0.2849  0.2471
  144SAPE  H14X15858   1.108   0.118  71.298 -0.9731 -0.0312 -0.9324
  144SAPE  H14Y15859   1.024   0.256  71.211  1.6323  4.1688 -0.3340
  144SAPE  C31515860   1.108   0.313  71.387 -0.5649  0.8313  0.7852
  144SAPE  H15X15861   1.006   0.294  71.428 -1.4002  3.1288 -0.0239
  144SAPE  H15Y15862   1.125   0.421  71.363 -1.9600  0.8760 -0.1578
  144SAPE  C31615863   1.201   0.262  71.500 -0.4458  0.3002  0.2929
  144SAPE  H16X15864   1.303   0.276  71.460 -2.0520 -0.7182 -4.8782
  144SAPE  H16Y15865   1.180   0.154  71.512  2.5471 -0.5122 -0.8865
  144SAPE  C31715866   1.184   0.329  71.637  0.0819  0.3474 -0.0525
  144SAPE  H17X15867   1.075   0.321  71.655 -0.2185 -1.8738 -2.3455
  144SAPE  H17Y15868   1.221   0.434  71.639  0.5786  0.1663  0.6292
  144SAPE  C31815869   1.252   0.258  71.748 -1.1419  0.5799 -0.7373
  144SAPE  H18X15870   1.205   0.163  71.781 -0.0634  0.8131  1.7462
  144SAPE  H18Y15871   1.260   0.326  71.836  0.4634  1.2105 -1.3220
  144SAPE  H18Z15872   1.356   0.242  71.712 -1.7016 -0.3711 -1.9898
  145SAPE     N15873   2.458   0.074  67.057 -0.0992  0.7673 -1.0938
  145SAPE   HN115874   2.524   0.154  67.058  0.8705  0.0001  0.3981
  145SAPE   HN215875   2.510   0.012  67.122 -0.6485 -0.9602 -2.2380
  145SAPE   HN315876   2.468   0.037  66.960  0.3027 -2.6956  0.1402
  145SAPE   C1215877   2.316   0.123  67.080  0.5174  0.1747 -0.6436
  145SAPE  H12A15878   2.325   0.196  67.163 -0.5492 -0.4971  0.0772
  145SAPE  H12B15879   2.251   0.040  67.114  0.5269  0.0514 -0.9252
  145SAPE   C1115880   2.241   0.174  66.952  0.1961 -0.4951 -0.3281
  145SAPE  H11A15881   2.150   0.228  66.986  0.7536  0.2523  0.0111
  145SAPE  H11B15882   2.217   0.088  66.887  3.1585  0.3519 -2.8074
  145SAPE     P15883   2.406   0.242  66.752 -0.1587 -0.1195  0.0986
  145SAPE   O1315884   2.501   0.352  66.723 -0.1856  0.5842  0.8765
  145SAPE   O1415885   2.479   0.117  66.775  0.0117 -0.1013 -0.6900
  145SAPE   O1215886   2.317   0.272  66.880 -0.0562  0.3853 -0.3365
  145SAPE   O1115887   2.293   0.201  66.650  0.2310 -0.3894  0.0784
  145SAPE    C115888   2.178   0.276  66.626 -0.5035 -0.7316 -0.3418
  145SAPE    HA15889   2.091   0.208  66.612  0.2112 -1.3737 -1.8806
  145SAPE    HB15890   2.158   0.341  66.714 -0.9318 -0.3036 -0.7558
  145SAPE    C215891   2.205   0.349  66.495  0.8412 -0.1643  0.3578
  145SAPE    HS15892   2.296   0.411  66.514  1.1398 -0.7521  0.8686
  145SAPE   O2115893   2.093   0.433  66.451  0.5930  0.8016 -0.0294
  145SAPE   C2115894   2.087   0.552  66.500 -0.5373  0.8889  0.5868
  145SAPE   O2215895   2.161   0.597  66.587  1.2092  0.0229 -0.2133
  145SAPE   C2215896   1.983   0.638  66.420 -0.3799  0.6952 -0.3086
  145SAPE   H2R15897   1.889   0.629  66.479  0.6635  0.3576  1.3396
  145SAPE   H2S15898   2.012   0.745  66.425 -1.4821  0.9471  2.2044
  145SAPE    C315899   2.236   0.246  66.387 -0.8033  0.3336 -0.5941
  145SAPE    HX15900   2.152   0.175  66.404  0.7544 -0.8342  3.5954
  145SAPE    HY15901   2.325   0.190  66.422  0.1170  1.9491 -0.2764
  145SAPE   O3115902   2.246   0.291  66.252  0.1250 -0.5345 -0.0318
  145SAPE   C3115903   2.358   0.348  66.215 -0.1901 -0.7500  1.1572
  145SAPE   O3215904   2.452   0.374  66.284 -0.6463 -0.0938  0.0172
  145SAPE   C3215905   2.350   0.386  66.068 -0.4004  0.0203 -0.0266
  145SAPE   H2X15906   2.250   0.401  66.020 -0.7497  0.3746  0.7967
  145SAPE   H2Y15907   2.395   0.302  66.010  1.4239  0.7715  0.2478
  145SAPE   C2315908   1.956   0.598  66.275  0.0827  0.5380 -0.0998
  145SAPE   H3R15909   1.928   0.490  66.270 -3.1571  1.1734  1.6211
  145SAPE   H3S15910   2.035   0.621  66.199 -2.7185  2.7358 -2.5889
  145SAPE   C2415911   1.823   0.670  66.227  0.2654  0.4683  0.1340
  145SAPE   H4R15912   1.834   0.678  66.116 -0.2196 -0.2496  0.0267
  145SAPE   H4S15913   1.826   0.779  66.250 -0.7286  0.5801 -0.1938
  145SAPE   C2515914   1.690   0.615  66.287 -0.6889 -0.6518 -0.2668
  145SAPE   H5R15915   1.686   0.599  66.395 -2.8102  2.4575  0.2332
  145SAPE   C2615916   1.573   0.600  66.227  0.3443  0.2545  0.2675
  145SAPE   H6R15917   1.491   0.572  66.295  0.5668 -1.2291 -0.0313
  145SAPE   C2715918   1.547   0.622  66.075 -1.1418 -0.4808 -0.5301
  145SAPE   H7R15919   1.500   0.525  66.048 -3.8137  0.8333 -0.9707
  145SAPE   H7S15920   1.640   0.634  66.016 -0.3181  2.1487  1.1635
  145SAPE   C2815921   1.445   0.726  66.043  0.1322  0.4530 -0.2597
  145SAPE   H8R15922   1.448   0.819  66.102 -0.7051 -0.5955  1.5377
  145SAPE   C2915923   1.349   0.732  65.952 -0.0129 -0.6460  0.1954
  145SAPE   H9R15924   1.282   0.818  65.949  0.8659  0.0324 -0.6134
  145SAPE  C21015925   1.319   0.630  65.850 -0.2766  0.5433  0.5130
  145SAPE  H10R15926   1.209   0.635  65.835 -0.2005  1.2323  0.1788
  145SAPE  H10S15927   1.347   0.530  65.890  0.9541  0.8071  0.3333
  145SAPE  C21115928   1.387   0.661  65.717  0.3264 -0.2198  0.7828
  145SAPE  H11R15929   1.471   0.732  65.713 -1.5914  2.1658  0.6585
  145SAPE  C21215930   1.342   0.600  65.604 -0.2457  0.0871  0.6220
  145SAPE  H12R15931   1.383   0.630  65.506  0.1017 -2.2019  0.0135
  145SAPE  C21315932   1.229   0.500  65.606 -0.1070 -0.4040  0.4267
  145SAPE  H13R15933   1.199   0.498  65.499 -2.4499  1.2504  0.9645
  145SAPE  H13S15934   1.150   0.540  65.673  0.4016  0.2572  0.6430
  145SAPE  C21415935   1.272   0.361  65.657 -0.0298  0.1081  0.6561
  145SAPE  H14R15936   1.328   0.365  65.752  0.7340  0.2432  0.2079
  145SAPE  C21515937   1.238   0.238  65.611 -0.8255 -0.5951 -1.3901
  145SAPE  H15R15938   1.273   0.154  65.673  2.8842 -0.0740 -2.5387
  145SAPE  C21615939   1.152   0.194  65.500 -0.1606 -0.2987  0.1594
  145SAPE  H16R15940   1.169   0.266  65.417 -1.5377  0.7995  0.8009
  145SAPE  H16S15941   1.048   0.198  65.539 -0.1673 -1.9801  0.3814
  145SAPE  C21715942   1.178   0.051  65.443  0.2093 -0.4398  0.1400
  145SAPE  H17R15943   1.273   0.069  65.388 -1.7816 -2.7424 -4.5364
  145SAPE  H17S15944   1.101   0.023  65.368  1.5171 -0.7744 -1.1189
  145SAPE  C21815945   1.173  -0.055  65.561 -0.5198  0.8222 -0.7175
  145SAPE  H18R15946   1.096  -0.040  65.639  1.0608 -1.3787  1.4317
  145SAPE  H18S15947   1.277  -0.044  65.598  0.3818  0.9954 -3.1093
  145SAPE  C21915948   1.169  -0.195  65.499 -0.4224 -1.0291  0.3301
  145SAPE  H19R15949   1.258  -0.201  65.433  0.5548  0.2616  1.5009
  145SAPE  H19S15950   1.079  -0.211  65.435  0.7370  1.4005 -2.1080
  145SAPE  C22015951   1.177  -0.309  65.599  0.2995  0.6790 -0.1599
  145SAPE  H20R15952   1.219  -0.399  65.550 -2.5816  0.7659 -3.0792
  145SAPE  H20S15953   1.078  -0.340  65.637 -0.1545  1.6569 -0.5153
  145SAPE  H20T15954   1.245  -0.279  65.682  3.5079 -0.3784 -2.2244
  145SAPE   C3315955   2.436   0.510  66.030  0.3807 -0.4002 -0.2740
  145SAPE   H3X15956   2.536   0.512  66.078 -0.0244 -0.7112  0.6024
  145SAPE   H3Y15957   2.375   0.594  66.069 -1.0972 -1.6190  0.1289
  145SAPE   C3415958   2.449   0.518  65.881 -0.3129  0.1904  0.6199
  145SAPE   H4X15959   2.345   0.511  65.844 -0.0014  1.1074 -0.4991
  145SAPE   H4Y15960   2.517   0.431  65.874  2.6633  2.4052 -0.2407
  145SAPE   C3515961   2.536   0.625  65.830 -0.6022 -0.4054 -0.0182
  145SAPE   H5X15962   2.631   0.637  65.885  0.0026  0.8855 -1.2699
  145SAPE   H5Y15963   2.489   0.726  65.841  3.3992  2.0763 -3.0044
  145SAPE   C3615964   2.558   0.622  65.675  0.0103 -0.0798 -0.2085
  145SAPE   H6X15965   2.572   0.512  65.661 -0.3720 -0.8804  4.2093
  145SAPE   H6Y15966   2.642   0.681  65.633  0.1002 -0.8759 -1.2058
  145SAPE   C3715967   2.429   0.673  65.606 -0.4943  0.0816  0.3994
  145SAPE   H7X15968   2.385   0.759  65.660 -2.4380 -1.5639  1.6019
  145SAPE   H7Y15969   2.342   0.607  65.625 -0.3860 -0.0738  0.3681
  145SAPE   C3815970   2.438   0.670  65.454 -0.5668  0.1058 -1.1979
  145SAPE   H8X15971   2.497   0.760  65.427  1.6409 -0.4953  1.1898
  145SAPE   H8Y15972   2.340   0.687  65.406 -1.6769 -2.7873 -0.1733
  145SAPE   C3915973   2.505   0.550  65.394 -0.0428  0.0388  0.1514
  145SAPE   H9X15974   2.460   0.464  65.448 -0.0985 -0.1844 -0.2519
  145SAPE   H9Y15975   2.612   0.537  65.421 -0.1077 -1.8855 -0.3667
  145SAPE  C31015976   2.500   0.543  65.238  1.2361 -0.3163 -0.3497
  145SAPE  H10X15977   2.547   0.631  65.190  1.3211 -0.5604 -0.7272
  145SAPE  H10Y15978   2.395   0.546  65.203  1.3774 -0.3294 -0.7777
  145SAPE  C31115979   2.557   0.402  65.193  0.1863 -0.7154 -0.3040
  145SAPE  H11X15980   2.519   0.390  65.089 -0.6952  2.1323 -0.4063
  145SAPE  H11Y15981   2.513   0.328  65.262  3.2537 -2.4889 -0.0608
  145SAPE  C31215982   2.712   0.401  65.215 -0.0389 -0.0288 -0.2216
  145SAPE  H12X15983   2.731   0.357  65.316  1.3583  1.9486  0.4382
  145SAPE  H12Y15984   2.752   0.505  65.219  2.9855 -1.1138  0.8810
  145SAPE  C31315985   2.778   0.324  65.101 -0.1181 -0.4137 -0.1566
  145SAPE  H13X15986   2.749   0.372  65.005 -0.0048  0.1756  0.1024
  145SAPE  H13Y15987   2.734   0.222  65.096 -0.2508 -0.3419 -0.4625
  145SAPE  C31415988   2.933   0.313  65.119  0.0264 -0.7831  0.0938
  145SAPE  H14X15989   2.958   0.412  65.162 -0.5019 -0.0268 -1.2729
  145SAPE  H14Y15990   2.970   0.317  65.015  0.2682  0.0567  0.2064
  145SAPE  C31515991   2.974   0.199  65.215 -0.4866  0.2480 -0.3872
  145SAPE  H15X15992   2.899   0.171  65.292  1.6772 -1.3758  1.2396
  145SAPE  H15Y15993   3.067   0.230  65.267  1.2729 -1.8919 -2.0372
  145SAPE  C31615994   2.998   0.070  65.132  0.1000  0.6841 -0.6878
  145SAPE  H16X15995   3.048   0.090  65.035  1.1741 -1.4689 -0.6348
  145SAPE  H16Y15996   2.907   0.025  65.085  1.0197 -2.0754 -0.0382
  145SAPE  C31715997   3.075  -0.040  65.210  0.4461 -0.1008  0.6108
  145SAPE  H17X15998   3.176  -0.017  65.250  0.3201 -0.7664  1.3249
  145SAPE  H17Y15999   3.107  -0.113  65.132 -2.9454 -0.8078 -0.2829
  145SAPE  C31816000   2.997  -0.123  65.318 -0.2272 -0.1075  0.0936
  145SAPE  H18X16001   3.074  -0.191  65.360 -0.6613 -0.4388  0.3518
  145SAPE  H18Y16002   2.916  -0.173  65.260 -2.4901  3.3033 -0.0087
  145SAPE  H18Z16003   2.947  -0.065  65.398  0.7150  0.4280  0.3068
  146SAPE     N16004   1.304   0.837  63.104 -0.0112 -0.3049  1.2122
  146SAPE   HN116005   1.200   0.837  63.101 -0.1286  3.2360 -2.3453
  146SAPE   HN216006   1.340   0.787  63.021  0.3613 -0.2733  1.3477
  146SAPE   HN316007   1.331   0.768  63.178  1.0516  0.7381  1.8348
  146SAPE   C1216008   1.350   0.974  63.138 -0.0979 -0.6795  0.2427
  146SAPE  H12A16009   1.458   0.981  63.113 -0.2942 -0.9462 -0.7179
  146SAPE  H12B16010   1.329   1.002  63.243  2.1772  5.2221 -0.4604
  146SAPE   C1116011   1.288   1.086  63.054  0.6541  0.2926  0.7900
  146SAPE  H11A16012   1.334   1.065  62.955  1.6175  0.8540  1.1039
  146SAPE  H11B16013   1.340   1.182  63.070  3.7731 -0.6778 -2.2978
  146SAPE     P16014   1.044   1.018  62.975  0.5425 -0.1541 -0.6473
  146SAPE   O1316015   1.053   0.874  63.016  0.1073  0.1336  0.0672
  146SAPE   O1416016   0.914   1.076  62.992 -0.3493  0.4038 -0.5457
  146SAPE   O1216017   1.145   1.097  63.067 -0.2876  0.5230 -0.0839
  146SAPE   O1116018   1.102   1.050  62.837 -0.2366  0.5091 -0.4588
  146SAPE    C116019   1.099   0.966  62.728  0.0660 -0.2666  0.2042
  146SAPE    HA16020   1.022   0.886  62.730 -0.6757  0.4590  1.4513
  146SAPE    HB16021   1.086   1.036  62.642  0.5601  0.4343  0.6897
  146SAPE    C216022   1.235   0.880  62.709 -0.2675  0.0694 -0.0283
  146SAPE    HS16023   1.260   0.847  62.812  3.6835  0.1771 -0.7718
  146SAPE   O2116024   1.335   0.967  62.653  0.7819  0.1305 -0.0466
  146SAPE   C2116025   1.462   0.918  62.678  0.4229  0.5360 -0.1870
  146SAPE   O2216026   1.490   0.822  62.751  0.3878 -0.3617  0.1657
  146SAPE   C2216027   1.562   1.005  62.601  0.0976 -0.0337 -0.3707
  146SAPE   H2R16028   1.528   1.008  62.495 -0.4739 -1.2024 -0.2397
  146SAPE   H2S16029   1.558   1.109  62.642 -1.2661  0.1278 -0.8419
  146SAPE    C316030   1.214   0.766  62.603 -0.0637 -0.4721 -0.0569
  146SAPE    HX16031   1.138   0.698  62.647  0.0290 -0.7064 -0.2611
  146SAPE    HY16032   1.309   0.713  62.585 -0.2296 -0.7634 -0.0751
  146SAPE   O3116033   1.153   0.826  62.491  0.2969 -0.1110 -0.5956
  146SAPE   C3116034   1.240   0.853  62.383 -0.0736 -0.5026  0.3511
  146SAPE   O3216035   1.363   0.845  62.392  1.2318  0.6824 -0.3487
  146SAPE   C3216036   1.163   0.942  62.279  0.3835  0.3530 -0.4295
  146SAPE   H2X16037   1.219   1.033  62.248  0.3411  0.8232  0.8052
  146SAPE   H2Y16038   1.069   0.977  62.326 -0.4928 -1.2772 -0.8977
  146SAPE   C2316039   1.715   0.957  62.603 -0.1665  0.6089 -0.9000
  146SAPE   H3R16040   1.720   0.852  62.569 -1.7418  1.1647 -3.0261
  146SAPE   H3S16041   1.754   0.955  62.708 -0.8442 -2.7229 -0.6208
  146SAPE   C2416042   1.817   1.036  62.520  0.0711 -0.2676 -0.6803
  146SAPE   H4R16043   1.793   1.142  62.542  1.8105  0.4955 -2.1838
  146SAPE   H4S16044   1.810   1.029  62.409 -1.3476 -1.4646 -0.5377
  146SAPE   C2516045   1.964   1.000  62.551 -0.3618  0.4555  0.2989
  146SAPE   H5R16046   1.991   0.993  62.658  2.8393  2.5726 -0.1994
  146SAPE   C2616047   2.065   0.999  62.457  0.7554  0.3919 -0.4815
  146SAPE   H6R16048   2.167   0.970  62.486  0.5492  0.0516 -0.0910
  146SAPE   C2716049   2.047   1.010  62.306  0.8299  0.0108  0.0681
  146SAPE   H7R16050   1.965   1.075  62.270  1.1055 -1.0090 -2.5942
  146SAPE   H7S16051   2.030   0.906  62.271 -0.9930  0.1370  0.5047
  146SAPE   C2816052   2.155   1.090  62.229 -0.1662  0.6454 -0.6533
  146SAPE   H8R16053   2.131   1.198  62.229 -3.6340  0.0290 -2.3215
  146SAPE   C2916054   2.270   1.046  62.174 -0.2783 -0.2670  0.1034
  146SAPE   H9R16055   2.322   1.131  62.127 -2.8878  1.9941  0.9834
  146SAPE  C21016056   2.315   0.899  62.177  1.2827 -0.2286  1.2083
  146SAPE  H10R16057   2.234   0.845  62.123  1.5446 -0.2613  0.8440
  146SAPE  H10S16058   2.325   0.870  62.284  2.3739  2.3794  1.9028
  146SAPE  C21116059   2.449   0.864  62.109 -0.1944  0.9026 -0.5421
  146SAPE  H11R16060   2.532   0.933  62.091  0.6098  0.1258  0.1229
  146SAPE  C21216061   2.469   0.738  62.077  0.0979 -0.6763 -0.2348
  146SAPE  H12R16062   2.568   0.719  62.033  1.9449 -2.2663  4.0662
  146SAPE  C21316063   2.387   0.615  62.109  0.7017 -0.5053  0.0667
  146SAPE  H13R16064   2.276   0.612  62.099  0.6512  0.4977  0.2515
  146SAPE  H13S16065   2.396   0.606  62.219 -0.3534  3.9609  0.7078
  146SAPE  C21416066   2.435   0.494  62.037  0.0527 -0.5135  0.2628
  146SAPE  H14R16067   2.532   0.460  62.077  0.3010  1.0492  1.1098
  146SAPE  C21516068   2.361   0.433  61.937  0.0207  0.4366 -0.7005
  146SAPE  H15R16069   2.399   0.338  61.895  0.5257  1.0865 -1.7384
  146SAPE  C21616070   2.228   0.485  61.883  0.1852  0.6424 -0.1164
  146SAPE  H16R16071   2.198   0.577  61.938  1.3799 -0.1429  1.9638
  146SAPE  H16S16072   2.148   0.408  61.887  4.1404 -3.9348  0.5521
  146SAPE  C21716073   2.222   0.532  61.738 -0.6624 -0.2307 -0.3710
  146SAPE  H17R16074   2.301   0.607  61.719 -0.3769 -0.3512  0.2967
  146SAPE  H17S16075   2.119   0.573  61.732 -2.2514 -3.9965 -1.3841
  146SAPE  C21816076   2.228   0.416  61.635 -0.0279 -0.5757  0.3437
  146SAPE  H18R16077   2.165   0.329  61.662  0.8177 -0.9485  1.1581
  146SAPE  H18S16078   2.328   0.367  61.625 -0.0263 -0.6935  0.9100
  146SAPE  C21916079   2.165   0.452  61.498 -0.4822  0.6526 -0.7096
  146SAPE  H19R16080   2.228   0.535  61.459  2.1508 -0.0530  1.6931
  146SAPE  H19S16081   2.059   0.476  61.522  0.0240  0.0004  2.6624
  146SAPE  C22016082   2.174   0.335  61.391 -0.0632 -0.4667  0.1511
  146SAPE  H20R16083   2.280   0.308  61.370 -0.8897 -1.5241 -3.2098
  146SAPE  H20S16084   2.134   0.380  61.298  1.9831  1.5879  0.2053
  146SAPE  H20T16085   2.113   0.246  61.419 -2.1380  1.0375  0.6920
  146SAPE   C3316086   1.121   0.865  62.154  0.2766  0.6364  0.5474
  146SAPE   H3X16087   1.037   0.809  62.200 -1.6874  2.8845 -0.0537
  146SAPE   H3Y16088   1.185   0.793  62.099  2.4024  1.2035  2.1500
  146SAPE   C3416089   1.027   0.952  62.060  0.0257  0.5619 -0.2204
  146SAPE   H4X16090   0.946   1.003  62.117  1.4868  2.1909  0.4937
  146SAPE   H4Y16091   0.973   0.872  62.005 -0.7729  0.5857  0.4908
  146SAPE   C3516092   1.095   1.047  61.962 -0.5749 -0.3716  0.4416
  146SAPE   H5X16093   1.139   1.132  62.018 -1.5487  0.8303 -0.5477
  146SAPE   H5Y16094   1.028   1.097  61.888  1.7215 -0.1612 -1.6026
  146SAPE   C3616095   1.215   0.985  61.881  0.6211 -1.1698 -0.2365
  146SAPE   H6X16096   1.178   0.886  61.846 -0.7209 -0.9619  0.5071
  146SAPE   H6Y16097   1.292   0.970  61.960 -0.1002 -6.3389 -0.1770
  146SAPE   C3716098   1.256   1.073  61.760 -1.0165  0.3893 -0.4220
  146SAPE   H7X16099   1.292   1.171  61.798  1.6136 -0.4417 -0.5563
  146SAPE   H7Y16100   1.161   1.094  61.707 -2.2748 -1.4059  0.9994
  146SAPE   C3816101   1.372   1.021  61.666 -0.2398  0.9615 -0.0064
  146SAPE   H8X16102   1.333   0.927  61.622 -3.3475  1.7819  0.7210
  146SAPE   H8Y16103   1.459   0.992  61.730  0.2993  0.5050 -0.9318
  146SAPE   C3916104   1.422   1.115  61.558 -0.9047  0.2507 -0.2457
  146SAPE   H9X16105   1.442   1.215  61.603 -3.0409  0.7717 -0.3127
  146SAPE   H9Y16106   1.329   1.129  61.499 -3.1396 -2.9680  2.1616
  146SAPE  C31016107   1.529   1.050  61.469  0.6235  0.3934 -0.1396
  146SAPE  H10X16108   1.495   0.944  61.466  1.5767 -0.1729  3.6575
  146SAPE  H10Y16109   1.621   1.054  61.531  0.2826  0.8209  0.3461
  146SAPE  C31116110   1.539   1.094  61.323 -0.2007 -0.0248 -0.2432
  146SAPE  H11X16111   1.481   1.033  61.250  2.8906 -2.7111 -0.6558
  146SAPE  H11Y16112   1.646   1.082  61.296 -0.6203 -3.3438 -0.8311
  146SAPE  C31216113   1.517   1.239  61.292 -0.1159 -0.6222  0.0228
  146SAPE  H12X16114   1.586   1.310  61.342 -1.7002  1.1260 -0.1651
  146SAPE  H12Y16115   1.410   1.263  61.308  0.5405  1.3688  1.8483
  146SAPE  C31316116   1.544   1.264  61.143  0.4889  0.8712  0.2820
  146SAPE  H13X16117   1.498   1.183  61.082  1.6700 -0.8470  1.5635
  146SAPE  H13Y16118   1.653   1.253  61.124  0.6920 -0.7560  2.0727
  146SAPE  C31416119   1.471   1.402  61.112 -0.0954  0.1786  0.3022
  146SAPE  H14X16120   1.510   1.483  61.178 -2.4946  2.2800 -0.6905
  146SAPE  H14Y16121   1.366   1.383  61.141  0.2104 -0.3587  1.1236
  146SAPE  C31516122   1.467   1.445  60.968 -1.1242  0.0663 -1.6311
  146SAPE  H15X16123   1.567   1.424  60.925  0.8029 -0.0318  2.3884
  146SAPE  H15Y16124   1.456   1.556  60.965 -0.9962  0.2487  1.5119
  146SAPE  C31616125   1.351   1.386  60.889 -0.7664 -0.0587 -1.0852
  146SAPE  H16X16126   1.259   1.404  60.949  0.0041 -2.5071  1.0489
  146SAPE  H16Y16127   1.351   1.275  60.892  2.3180 -0.3238  5.1044
  146SAPE  C31716128   1.328   1.447  60.748  0.5118  0.5980  0.1283
  146SAPE  H17X16129   1.411   1.423  60.678 -0.6173  0.3581 -1.1413
  146SAPE  H17Y16130   1.321   1.557  60.764  0.4393  0.7685 -1.0151
  146SAPE  C31816131   1.206   1.389  60.677 -0.3236  0.8469  0.0831
  146SAPE  H18X16132   1.122   1.393  60.749  1.2121  2.3254  1.8759
  146SAPE  H18Y16133   1.229   1.288  60.636 -2.3502  0.2874  0.2101
  146SAPE  H18Z16134   1.152   1.456  60.605  1.4544 -0.1944 -2.3680
  147SAPE     N16135   2.434   0.471  40.680 -0.0347 -0.2289  0.7393
  147SAPE   HN116136   2.526   0.444  40.720  0.4053  1.1879  0.7064
  147SAPE   HN216137   2.361   0.428  40.741 -0.0680  0.7736  1.4168
  147SAPE   HN316138   2.411   0.441  40.583 -2.0877 -1.0361  1.4073
  147SAPE   C1216139   2.414   0.619  40.680 -0.4216 -0.3426  0.4438
  147SAPE  H12A16140   2.465   0.649  40.774  1.2616 -2.0455  0.1584
  147SAPE  H12B16141   2.304   0.631  40.692 -0.2921  1.6033 -0.1382
  147SAPE   C1116142   2.485   0.697  40.569  0.2063 -0.2878 -0.0332
  147SAPE  H11A16143   2.594   0.676  40.572  0.2665 -0.0090 -0.2482
  147SAPE  H11B16144   2.471   0.806  40.580 -0.6885 -0.1460 -2.0888
  147SAPE     P16145   2.330   0.699  40.357  0.0910  0.0193 -0.5778
  147SAPE   O1316146   2.359   0.719  40.220 -0.5587  0.2291  0.2416
  147SAPE   O1416147   2.203   0.630  40.400 -0.0960 -0.7250 -0.7879
  147SAPE   O1216148   2.453   0.651  40.439 -0.4148  0.1259  0.2246
  147SAPE   O1116149   2.314   0.844  40.416  0.0344  0.0545  0.5653
  147SAPE    C116150   2.199   0.922  40.377  0.7417 -0.1008 -0.3692
  147SAPE    HA16151   2.223   1.019  40.328  0.6618  0.9889  1.6773
  147SAPE    HB16152   2.132   0.866  40.308  3.1290 -0.5872 -2.4468
  147SAPE    C216153   2.122   0.964  40.498 -0.4438 -0.3258 -0.2631
  147SAPE    HS16154   2.053   1.047  40.470  0.8420  1.7598  2.3186
  147SAPE   O2116155   2.204   1.012  40.601  0.3766  0.3136  0.5626
  147SAPE   C2116156   2.286   1.114  40.576  0.0385  0.8240  0.3714
  147SAPE   O2216157   2.293   1.174  40.471 -0.4605  0.2803  0.1163
  147SAPE   C2216158   2.374   1.138  40.706  0.8764  0.3099 -0.1277
  147SAPE   H2R16159   2.449   1.219  40.690 -1.0617  2.0340 -0.9440
  147SAPE   H2S16160   2.300   1.178  40.779  0.9727  1.5925 -0.7139
  147SAPE    C316161   2.033   0.856  40.570  0.2153  0.4405  0.2219
  147SAPE    HX16162   1.983   0.910  40.653 -1.8487  0.3057 -0.8623
  147SAPE    HY16163   2.097   0.773  40.605 -1.1945 -0.9012 -0.2796
  147SAPE   O3116164   1.937   0.809  40.480  0.4387  0.4819  0.5598
  147SAPE   C3116165   1.865   0.705  40.517  0.1963  0.1705 -0.1359
  147SAPE   O3216166   1.865   0.651  40.624  0.8835 -0.2841 -0.1111
  147SAPE   C3216167   1.776   0.669  40.405 -0.7632  0.3370 -0.2118
  147SAPE   H2X16168   1.839   0.640  40.319 -1.5449 -2.6055  0.1184
  147SAPE   H2Y16169   1.713   0.758  40.379 -0.9290 -0.3834 -2.4195
  147SAPE   C2316170   2.460   1.024  40.775  0.2727  0.0234 -0.8382
  147SAPE   H3R16171   2.527   0.980  40.698  0.3081  0.7070 -1.2036
  147SAPE   H3S16172   2.392   0.944  40.812 -0.1686  0.6518 -0.2530
  147SAPE   C2416173   2.546   1.075  40.886  0.5004  0.3276 -0.8160
  147SAPE   H4R16174   2.482   1.122  40.963  1.1164  0.2295 -0.2381
  147SAPE   H4S16175   2.611   1.155  40.846  2.1616  0.0251  1.1150
  147SAPE   C2516176   2.624   0.968  40.952  0.7482 -0.1986  0.0611
  147SAPE   H5R16177   2.655   0.890  40.882  0.5258  1.8945 -2.5184
  147SAPE   C2616178   2.686   0.967  41.068 -0.4369  0.2597  0.8793
  147SAPE   H6R16179   2.733   0.873  41.100 -0.6811 -0.1394  0.0876
  147SAPE   C2716180   2.684   1.068  41.175 -0.2367 -0.3918  0.3846
  147SAPE   H7R16181   2.607   1.043  41.251 -0.2195 -1.2755  0.1288
  147SAPE   H7S16182   2.662   1.167  41.131  0.0270 -0.6331 -0.2992
  147SAPE   C2816183   2.817   1.067  41.258 -0.0217 -0.2509 -0.3764
  147SAPE   H8R16184   2.896   1.008  41.210 -1.1155  0.7653 -3.6719
  147SAPE   C2916185   2.840   1.141  41.367 -0.3380 -0.3482 -0.6018
  147SAPE   H9R16186   2.934   1.120  41.420 -0.6791 -3.3929 -1.0041
  147SAPE  C21016187   2.744   1.225  41.442  0.8597  0.1558 -0.6862
  147SAPE  H10R16188   2.671   1.270  41.370  0.1641  2.2439  1.2131
  147SAPE  H10S16189   2.806   1.309  41.481 -0.3963  0.1079  1.5726
  147SAPE  C21116190   2.677   1.159  41.559  0.4207 -0.0864 -1.2516
  147SAPE  H11R16191   2.744   1.086  41.606  0.9147 -2.0357 -4.7142
  147SAPE  C21216192   2.559   1.188  41.613 -0.0544  0.5596 -0.0225
  147SAPE  H12R16193   2.528   1.132  41.703  0.9380  0.1037  0.0397
  147SAPE  C21316194   2.465   1.299  41.567  0.3129 -0.4468 -0.5695
  147SAPE  H13R16195   2.518   1.368  41.499 -0.6548  1.5199  0.5861
  147SAPE  H13S16196   2.421   1.357  41.651 -4.2793  0.8105 -3.4429
  147SAPE  C21416197   2.341   1.227  41.513  0.0586  0.2292  0.2130
  147SAPE  H14R16198   2.316   1.132  41.561  1.1276 -0.0004  0.3392
  147SAPE  C21516199   2.261   1.270  41.414  0.9620 -0.6025  0.4621
  147SAPE  H15R16200   2.179   1.207  41.378  0.1178  0.3645  0.6420
  147SAPE  C21616201   2.293   1.395  41.333 -0.8189  0.1182 -0.1078
  147SAPE  H16R16202   2.345   1.478  41.385  0.2374 -0.0912 -0.8002
  147SAPE  H16S16203   2.202   1.441  41.289  0.1644  3.1425  0.7755
  147SAPE  C21716204   2.375   1.357  41.201 -0.6912 -0.8884  0.2139
  147SAPE  H17R16205   2.313   1.280  41.150 -2.9253  0.1947  1.1624
  147SAPE  H17S16206   2.467   1.303  41.232  0.0539 -0.2732 -0.8557
  147SAPE  C21816207   2.405   1.469  41.096  0.0140 -0.1729 -0.7726
  147SAPE  H18R16208   2.316   1.535  41.103  0.7942  0.7597  2.1036
  147SAPE  H18S16209   2.437   1.439  40.994  0.7864 -3.0839  0.2126
  147SAPE  C21916210   2.518   1.568  41.149  0.0360  0.0585  0.7371
  147SAPE  H19R16211   2.610   1.508  41.163 -0.3262 -0.4810  0.8846
  147SAPE  H19S16212   2.490   1.606  41.250 -0.4560 -0.6791  0.8925
  147SAPE  C22016213   2.548   1.692  41.058 -0.5784  0.4109 -0.3012
  147SAPE  H20R16214   2.592   1.659  40.961  0.2964 -0.7132  0.4620
  147SAPE  H20S16215   2.611   1.773  41.101 -1.0906 -0.8431  3.0803
  147SAPE  H20T16216   2.450   1.741  41.039  0.1205  1.2533 -2.0865
  147SAPE   C3316217   1.683   0.549  40.437 -0.0566 -0.0242 -0.3054
  147SAPE   H3X16218   1.607   0.598  40.501  0.3632  1.0912 -0.6398
  147SAPE   H3Y16219   1.734   0.466  40.490  1.1229  0.0450 -1.2841
  147SAPE   C3416220   1.606   0.488  40.320  0.6708  0.0648 -0.0276
  147SAPE   H4X16221   1.576   0.579  40.263  0.9301  0.9982  1.2863
  147SAPE   H4Y16222   1.510   0.436  40.342 -0.1255  2.1186  1.6983
  147SAPE   C3516223   1.693   0.402  40.226 -0.6168  0.0920  1.4011
  147SAPE   H5X16224   1.793   0.390  40.272 -0.4678 -0.8796  0.8582
  147SAPE   H5Y16225   1.707   0.463  40.134  0.4621 -1.3355  0.5729
  147SAPE   C3616226   1.625   0.270  40.188  0.5603 -0.2718  0.6203
  147SAPE   H6X16227   1.516   0.273  40.164  1.2905  1.1634 -3.3987
  147SAPE   H6Y16228   1.643   0.197  40.269 -1.6151  0.2771  1.6732
  147SAPE   C3716229   1.685   0.218  40.055 -0.0027 -0.0384 -0.1601
  147SAPE   H7X16230   1.795   0.221  40.064  0.0258  2.6086 -0.6454
  147SAPE   H7Y16231   1.654   0.289  39.975  0.5825  0.7975  0.3376
  147SAPE   C3816232   1.650   0.072  40.013 -0.0686 -0.4856  0.1099
  147SAPE   H8X16233   1.659   0.056  39.903  1.0879  2.0997 -0.2406
  147SAPE   H8Y16234   1.546   0.057  40.050  0.1925 -1.9314  0.3287
  147SAPE   C3916235   1.747  -0.020  40.085 -0.8392 -0.5494 -0.3471
  147SAPE   H9X16236   1.768  -0.011  40.194  1.7339 -1.8790 -0.6368
  147SAPE   H9Y16237   1.837  -0.014  40.019 -2.0930 -0.0091 -2.0741
  147SAPE  C31016238   1.690  -0.156  40.079 -0.5231  0.4033  0.7297
  147SAPE  H10X16239   1.593  -0.142  40.130  0.0768  1.4898  1.6156
  147SAPE  H10Y16240   1.760  -0.215  40.142 -0.8389  0.9480  1.6059
  147SAPE  C31116241   1.660  -0.220  39.939  0.5087  0.2259 -1.0377
  147SAPE  H11X16242   1.750  -0.251  39.880  0.0073 -0.3083 -1.5388
  147SAPE  H11Y16243   1.605  -0.148  39.875 -0.4223  1.5975  1.2195
  147SAPE  C31216244   1.570  -0.343  39.963  0.5948  0.6418  0.2215
  147SAPE  H12X16245   1.486  -0.311  40.029 -1.6248 -1.4851 -1.3592
  147SAPE  H12Y16246   1.614  -0.424  40.025  1.4986  0.1179 -1.0636
  147SAPE  C31316247   1.518  -0.404  39.834  0.2703  0.2882 -0.2890
  147SAPE  H13X16248   1.604  -0.440  39.773 -0.4531 -1.3940 -0.3715
  147SAPE  H13Y16249   1.477  -0.320  39.773  0.2952 -0.1104 -0.8668
  147SAPE  C31416250   1.426  -0.527  39.851  0.2750  0.1706 -0.1702
  147SAPE  H14X16251   1.336  -0.496  39.907 -1.0856 -3.2845 -0.1708
  147SAPE  H14Y16252   1.477  -0.585  39.931  0.3201  1.1998  0.5529
  147SAPE  C31516253   1.409  -0.609  39.725  0.6163 -0.3429  0.7014
  147SAPE  H15X16254   1.502  -0.635  39.669 -0.5168  0.4668 -1.6786
  147SAPE  H15Y16255   1.347  -0.552  39.653  1.4176 -0.1431  0.1558
  147SAPE  C31616256   1.347  -0.746  39.748  0.1516 -0.1114 -0.9103
  147SAPE  H16X16257   1.257  -0.729  39.811 -1.2697  0.1086 -2.9030
  147SAPE  H16Y16258   1.417  -0.816  39.798  1.4233  1.5567 -0.2718
  147SAPE  C31716259   1.299  -0.800  39.615  0.4651 -0.1687 -0.8630
  147SAPE  H17X16260   1.219  -0.731  39.580  1.9599  2.0103 -0.1728
  147SAPE  H17Y16261   1.267  -0.905  39.631  1.3514 -0.2409  0.6054
  147SAPE  C31816262   1.402  -0.805  39.507 -0.1895  0.4438  0.3523
  147SAPE  H18X16263   1.355  -0.855  39.420  1.0887  1.8483 -1.2031
  147SAPE  H18Y16264   1.490  -0.860  39.548 -0.5809  2.0572  3.7327
  147SAPE  H18Z16265   1.432  -0.706  39.467 -0.2925  0.0568 -0.7077
  148SAPE     N16266   2.431   2.421  43.098 -0.2251 -0.6398 -0.8230
  148SAPE   HN116267   2.385   2.513  43.111  1.4377 -0.1317  2.3206
  148SAPE   HN216268   2.526   2.435  43.137 -0.2064  0.4088 -1.2333
  148SAPE   HN316269   2.462   2.416  42.999  1.6480  1.4328 -0.4075
  148SAPE   C1216270   2.346   2.295  43.119 -0.2133  0.0056 -0.6431
  148SAPE  H12A16271   2.408   2.215  43.072  1.1618  0.1889  0.7870
  148SAPE  H12B16272   2.259   2.331  43.061  0.0174  3.5996  0.9898
  148SAPE   C1116273   2.338   2.264  43.268  0.4525 -0.6039  0.2008
  148SAPE  H11A16274   2.266   2.180  43.277  1.3297 -1.3068  0.8619
  148SAPE  H11B16275   2.292   2.344  43.329  2.5583 -0.3686  1.5948
  148SAPE     P16276   2.528   2.288  43.446 -0.2650  0.0328 -0.1574
  148SAPE   O1316277   2.666   2.242  43.447  0.4658  0.4883 -0.0683
  148SAPE   O1416278   2.509   2.434  43.449 -0.4380  0.4956  0.2947
  148SAPE   O1216279   2.468   2.224  43.316  0.6222  0.0745 -0.1963
  148SAPE   O1116280   2.460   2.221  43.572  0.2771  0.3524 -0.3590
  148SAPE    C116281   2.341   2.148  43.555 -0.1511 -0.0858  0.3506
  148SAPE    HA16282   2.249   2.206  43.531  0.5248  0.7877 -0.2086
  148SAPE    HB16283   2.350   2.065  43.482  1.2280  0.1557  0.2263
  148SAPE    C216284   2.305   2.098  43.696 -0.6956  0.2489  0.3983
  148SAPE    HS16285   2.290   2.184  43.765 -1.5180  1.0687 -0.7605
  148SAPE   O2116286   2.414   2.015  43.743 -0.4169 -0.7829  0.3923
  148SAPE   C2116287   2.422   1.993  43.873 -0.3468 -0.6001 -0.6124
  148SAPE   O2216288   2.349   2.032  43.961 -0.0968 -0.1837  0.1941
  148SAPE   C2216289   2.561   1.921  43.890 -0.1068 -0.6734 -0.7180
  148SAPE   H2R16290   2.547   1.817  43.851 -0.8340 -0.7418 -0.2741
  148SAPE   H2S16291   2.636   1.983  43.835  0.9388  0.4885  1.8768
  148SAPE    C316292   2.176   2.011  43.693 -0.2120 -0.1146  0.1761
  148SAPE    HX16293   2.186   1.942  43.607 -0.8487 -0.1022  0.0893
  148SAPE    HY16294   2.088   2.069  43.660 -0.0789  0.1963  0.3637
  148SAPE   O3116295   2.144   1.944  43.809  0.1280 -0.1699 -0.5873
  148SAPE   C3116296   2.086   2.005  43.909 -0.8339 -0.7850 -0.1147
  148SAPE   O3216297   2.054   2.123  43.920  0.3308  0.5679  0.0129
  148SAPE   C3216298   2.062   1.897  44.022 -0.0182  0.4640 -0.2161
  148SAPE   H2X16299   1.957   1.924  44.050  0.2683  1.3868 -0.0028
  148SAPE   H2Y16300   2.119   1.924  44.113  0.3733 -0.3691 -0.2029
  148SAPE   C2316301   2.609   1.906  44.037 -0.2732  0.4586 -0.3244
  148SAPE   H3R16302   2.528   1.872  44.104  0.4975  0.5616  0.6842
  148SAPE   H3S16303   2.640   2.007  44.073 -3.9790  0.6861  2.8881
  148SAPE   C2416304   2.725   1.812  44.055  0.1182 -0.2503  0.4093
  148SAPE   H4R16305   2.689   1.715  44.016  0.9231  0.2787 -1.8252
  148SAPE   H4S16306   2.757   1.804  44.161  0.6238 -2.5386  0.1319
  148SAPE   C2516307   2.846   1.850  43.975 -0.6453 -0.0890 -0.2088
  148SAPE   H5R16308   2.850   1.958  43.954  1.0240  0.3155  1.8194
  148SAPE   C2616309   2.951   1.778  43.942 -0.2768  0.1689  0.5335
  148SAPE   H6R16310   3.033   1.826  43.886  1.4622 -0.5863  2.2965
  148SAPE   C2716311   2.971   1.629  43.951  0.1283 -0.8047  0.5782
  148SAPE   H7R16312   3.045   1.597  43.874  0.7399 -0.4033  0.9978
  148SAPE   H7S16313   2.871   1.586  43.926  0.8596 -1.2570 -1.9200
  148SAPE   C2816314   3.024   1.587  44.085  0.0680 -0.3334 -0.2512
  148SAPE   H8R16315   2.958   1.579  44.173 -1.5962  2.1020 -1.1714
  148SAPE   C2916316   3.152   1.582  44.127  0.0641  0.0747  0.3468
  148SAPE   H9R16317   3.177   1.539  44.225  0.2814 -1.8968 -0.5287
  148SAPE  C21016318   3.266   1.598  44.036  0.2185 -0.4511  0.2510
  148SAPE  H10R16319   3.239   1.671  43.958  0.7203 -1.5688 -1.0083
  148SAPE  H10S16320   3.293   1.505  43.982 -2.7655 -2.4953  1.9797
  148SAPE  C21116321   3.384   1.637  44.121  0.6809 -0.3112  0.4247
  148SAPE  H11R16322   3.400   1.585  44.216 -1.6817  1.0699  1.6563
  148SAPE  C21216323   3.481   1.717  44.089 -0.2067 -0.4508  0.4452
  148SAPE  H12R16324   3.565   1.735  44.158  0.1534 -2.2048  0.5318
  148SAPE  C21316325   3.492   1.790  43.958  0.2408 -0.2949 -0.4725
  148SAPE  H13R16326   3.483   1.898  43.984  2.8267  0.4980 -2.4968
  148SAPE  H13S16327   3.404   1.767  43.895 -1.3049  1.0696  1.0791
  148SAPE  C21416328   3.623   1.765  43.898  0.3077  0.3039  0.9071
  148SAPE  H14R16329   3.701   1.828  43.942 -2.2281  3.1244  1.7561
  148SAPE  C21516330   3.654   1.645  43.844  0.1934 -0.0668 -0.0968
  148SAPE  H15R16331   3.758   1.627  43.812  0.5609  1.0763  0.4004
  148SAPE  C21616332   3.562   1.531  43.816 -0.3517 -0.0536 -1.2526
  148SAPE  H16R16333   3.461   1.573  43.796 -0.9258 -0.9818 -0.4305
  148SAPE  H16S16334   3.560   1.452  43.894  2.5878 -0.6050 -1.6320
  148SAPE  C21716335   3.603   1.447  43.695 -0.4200 -0.2264 -0.3164
  148SAPE  H17R16336   3.557   1.347  43.682  0.1400 -0.4897 -0.3066
  148SAPE  H17S16337   3.713   1.435  43.693 -0.3631 -0.2347  1.2637
  148SAPE  C21816338   3.581   1.529  43.563 -0.0399  0.5414  0.1980
  148SAPE  H18R16339   3.577   1.637  43.592 -1.2707  0.0494  2.0196
  148SAPE  H18S16340   3.478   1.515  43.525 -0.4676  0.0022  1.5078
  148SAPE  C21916341   3.676   1.486  43.449 -0.1063 -0.1885 -0.2821
  148SAPE  H19R16342   3.775   1.535  43.459  0.6554 -1.5591 -0.8892
  148SAPE  H19S16343   3.629   1.526  43.357  0.3321 -2.8606 -1.7842
  148SAPE  C22016344   3.677   1.334  43.436 -0.1100  1.3985 -0.6262
  148SAPE  H20R16345   3.582   1.276  43.441  0.4036  0.5983  2.7424
  148SAPE  H20S16346   3.730   1.294  43.525  0.8256 -1.7618 -2.4644
  148SAPE  H20T16347   3.738   1.298  43.351  0.3561  0.5453  0.0522
  148SAPE   C3316348   2.072   1.749  43.982 -0.1453 -0.7819  0.2631
  148SAPE   H3X16349   2.178   1.720  43.966  0.3715  0.7353  0.7507
  148SAPE   H3Y16350   2.022   1.737  43.884  1.5232  0.0026 -0.7286
  148SAPE   C3416351   1.990   1.669  44.092  0.7050  0.2964  0.4661
  148SAPE   H4X16352   1.883   1.696  44.083  0.7671  0.5921  0.5711
  148SAPE   H4Y16353   2.038   1.700  44.188  2.4296  0.9184 -0.5493
  148SAPE   C3516354   2.005   1.522  44.074  0.1979  0.1172 -0.0145
  148SAPE   H5X16355   2.113   1.503  44.092  0.0429 -0.8751 -0.0711
  148SAPE   H5Y16356   1.971   1.507  43.969  1.1162  0.1548 -0.3308
  148SAPE   C3616357   1.923   1.433  44.170  0.6686 -0.8688 -0.1302
  148SAPE   H6X16358   1.817   1.464  44.155  1.6844  2.9080 -0.6914
  148SAPE   H6Y16359   1.957   1.461  44.272 -0.1523  1.4008 -0.4174
  148SAPE   C3716360   1.947   1.285  44.153 -0.0092  0.0297 -0.8188
  148SAPE   H7X16361   2.046   1.272  44.203  1.2317  0.4815 -3.0301
  148SAPE   H7Y16362   1.951   1.246  44.049  0.4181 -1.0215 -0.4244
  148SAPE   C3816363   1.837   1.201  44.226  0.7881 -0.0374  0.2876
  148SAPE   H8X16364   1.752   1.191  44.156  1.2163 -2.3712  0.0364
  148SAPE   H8Y16365   1.797   1.258  44.313 -2.4338 -1.8081  0.1404
  148SAPE   C3916366   1.888   1.064  44.266  0.2963  0.1968 -1.2295
  148SAPE   H9X16367   1.991   1.082  44.303  0.3291 -1.7042 -0.2675
  148SAPE   H9Y16368   1.910   0.995  44.182 -1.2245 -0.5639 -1.0337
  148SAPE  C31016369   1.802   0.992  44.376 -0.2333  0.1335 -0.4013
  148SAPE  H10X16370   1.697   0.973  44.343 -0.3814  1.1211 -0.5278
  148SAPE  H10Y16371   1.796   1.074  44.451 -1.9915  1.0306 -1.4514
  148SAPE  C31116372   1.877   0.865  44.428 -0.3006 -0.2250 -0.6973
  148SAPE  H11X16373   1.970   0.902  44.477 -0.0205 -1.9110  0.1181
  148SAPE  H11Y16374   1.903   0.792  44.349  2.5093  0.4087 -0.4881
  148SAPE  C31216375   1.798   0.805  44.554  0.6520 -0.1355  0.3679
  148SAPE  H12X16376   1.689   0.809  44.532  0.2929  1.3847  2.1847
  148SAPE  H12Y16377   1.799   0.876  44.640  0.4744  0.1387  0.1432
  148SAPE  C31316378   1.837   0.662  44.595 -0.5663  0.3109  0.7259
  148SAPE  H13X16379   1.946   0.665  44.617 -0.0328 -0.4371 -1.5163
  148SAPE  H13Y16380   1.830   0.599  44.503  0.3420 -2.0569  2.1825
  148SAPE  C31416381   1.748   0.601  44.704 -0.4489 -0.4151  0.3721
  148SAPE  H14X16382   1.642   0.628  44.687 -0.4776  1.5582  2.9349
  148SAPE  H14Y16383   1.787   0.632  44.804 -1.0393 -1.5387  0.9663
  148SAPE  C31516384   1.758   0.443  44.715 -0.9099 -0.9350 -1.0676
  148SAPE  H15X16385   1.858   0.413  44.679  0.6310  0.0323  2.0945
  148SAPE  H15Y16386   1.680   0.393  44.653 -1.0967 -1.3732 -0.4966
  148SAPE  C31616387   1.728   0.399  44.857  0.2687  0.2503 -0.0062
  148SAPE  H16X16388   1.633   0.437  44.899  1.1828 -0.0887  2.5519
  148SAPE  H16Y16389   1.803   0.451  44.921 -0.3066  1.2228 -0.0911
  148SAPE  C31716390   1.733   0.248  44.881  0.1854 -0.3503  0.3259
  148SAPE  H17X16391   1.832   0.205  44.858 -0.5789 -0.5910 -2.9501
  148SAPE  H17Y16392   1.650   0.198  44.826 -0.5636  1.0358  0.1573
  148SAPE  C31816393   1.699   0.217  45.029  0.0678  0.4324  0.3275
  148SAPE  H18X16394   1.665   0.113  45.044  1.0070  0.3584  2.1479
  148SAPE  H18Y16395   1.610   0.277  45.056 -0.8219 -0.3287 -0.7939
  148SAPE  H18Z16396   1.776   0.247  45.102 -0.8841  1.4039  0.9657
  149SAPE     N16397   2.019   2.429  48.404 -0.0965 -0.4598  0.0270
  149SAPE   HN116398   1.972   2.341  48.433 -0.7053 -0.3648 -0.6614
  149SAPE   HN216399   2.072   2.395  48.322 -2.5258 -3.2642 -0.5752
  149SAPE   HN316400   2.090   2.453  48.476  0.5744 -1.0321 -0.4325
  149SAPE   C1216401   1.908   2.521  48.375 -0.1157 -0.3951 -0.4233
  149SAPE  H12A16402   1.817   2.458  48.369  0.4157 -1.2603  0.2528
  149SAPE  H12B16403   1.937   2.567  48.278 -0.3434  2.8747  0.9421
  149SAPE   C1116404   1.880   2.634  48.488  0.7612 -0.2772 -0.5342
  149SAPE  H11A16405   1.831   2.598  48.581 -0.3174 -1.2732 -1.4535
  149SAPE  H11B16406   1.796   2.692  48.442 -2.1753 -4.0606 -0.4754
  149SAPE     P16407   2.031   2.804  48.654 -0.1118  0.3817  0.7877
  149SAPE   O1316408   2.175   2.802  48.670  0.5287 -0.4377  0.2592
  149SAPE   O1416409   1.961   2.927  48.627  0.2436 -0.1014  1.1125
  149SAPE   O1216410   1.991   2.717  48.520 -0.5775 -0.5833  0.1112
  149SAPE   O1116411   1.972   2.715  48.773  0.2063 -0.8235 -0.0780
  149SAPE    C116412   1.838   2.756  48.813 -0.4491 -0.1789  0.0071
  149SAPE    HA16413   1.779   2.805  48.733 -1.7847 -1.7093  0.0173
  149SAPE    HB16414   1.781   2.669  48.851 -1.3418  0.1345 -0.6062
  149SAPE    C216415   1.835   2.857  48.932  0.4229 -0.2906 -0.1917
  149SAPE    HS16416   1.883   2.952  48.901  0.5483 -0.5117 -0.6789
  149SAPE   O2116417   1.902   2.798  49.048 -0.7279  0.3707 -0.4008
  149SAPE   C2116418   1.968   2.884  49.120  0.1465  0.4282 -0.6704
  149SAPE   O2216419   1.992   2.999  49.094  0.1178 -0.3965 -0.2100
  149SAPE   C2216420   1.995   2.826  49.261 -0.0947 -0.5384  0.2434
  149SAPE   H2R16421   1.897   2.784  49.291 -1.4926  1.5266 -1.2437
  149SAPE   H2S16422   2.074   2.748  49.248 -0.2738 -0.7606  0.4730
  149SAPE    C316423   1.690   2.901  48.974 -0.4966 -0.7389  0.1593
  149SAPE    HX16424   1.632   2.815  49.013 -0.8920 -0.0467  1.1410
  149SAPE    HY16425   1.645   2.927  48.875 -0.7549  2.7274  1.0491
  149SAPE   O3116426   1.682   3.006  49.072  0.3777  0.0205 -0.5373
  149SAPE   C3116427   1.726   3.124  49.031 -1.0258 -0.0083  0.5863
  149SAPE   O3216428   1.755   3.157  48.916  0.1831  0.6766  0.3611
  149SAPE   C3216429   1.739   3.204  49.156 -0.5606  0.1404  0.0372
  149SAPE   H2X16430   1.785   3.138  49.233  0.1791  0.6601  0.0544
  149SAPE   H2Y16431   1.639   3.232  49.198 -1.0155  0.3497 -1.1542
  149SAPE   C2316432   2.053   2.927  49.359 -0.0283 -0.6046  0.2430
  149SAPE   H3R16433   1.977   3.007  49.375  0.6430 -0.2301  1.7887
  149SAPE   H3S16434   2.142   2.962  49.303 -1.6412 -0.3090 -2.3067
  149SAPE   C2416435   2.090   2.878  49.505 -0.1120 -0.0094  0.5869
  149SAPE   H4R16436   1.996   2.827  49.535  0.9277 -4.1186 -2.1338
  149SAPE   H4S16437   2.114   2.962  49.573 -0.7702 -0.0914  0.9295
  149SAPE   C2516438   2.190   2.762  49.500 -0.5901  0.6889  0.3148
  149SAPE   H5R16439   2.266   2.773  49.421  0.9249  0.7237  1.7152
  149SAPE   C2616440   2.203   2.654  49.577  0.1052  0.4556  0.2065
  149SAPE   H6R16441   2.294   2.594  49.559  0.5968  1.2482 -0.0001
  149SAPE   C2716442   2.122   2.612  49.697  0.0520  0.4016 -0.5118
  149SAPE   H7R16443   2.094   2.701  49.758  1.6168  0.5132  0.1133
  149SAPE   H7S16444   2.191   2.548  49.756  2.0243  0.7350 -2.3261
  149SAPE   C2816445   1.999   2.532  49.656 -0.1154 -0.1548  0.8766
  149SAPE   H8R16446   1.920   2.594  49.612  1.9357  1.7394 -0.3643
  149SAPE   C2916447   1.971   2.397  49.669 -0.3811 -0.5555  0.5595
  149SAPE   H9R16448   1.891   2.351  49.610 -0.1394 -2.0611  1.3632
  149SAPE  C21016449   2.059   2.308  49.739 -0.5314 -0.5392  0.1108
  149SAPE  H10R16450   2.100   2.359  49.829  1.9691  0.6466 -1.5835
  149SAPE  H10S16451   2.158   2.312  49.688 -0.3870  0.0487  0.4225
  149SAPE  C21116452   1.994   2.172  49.768  0.2953 -0.1745 -0.0534
  149SAPE  H11R16453   1.947   2.123  49.682  2.7755 -0.2039 -1.4811
  149SAPE  C21216454   2.021   2.113  49.892  0.9346  0.6728  0.4217
  149SAPE  H12R16455   1.971   2.017  49.909  1.5948  0.2540  0.0664
  149SAPE  C21316456   2.099   2.162  50.014 -0.3859  0.4847  0.2361
  149SAPE  H13R16457   2.102   2.272  50.027 -2.9880  0.3838  2.5812
  149SAPE  H13S16458   2.205   2.132  49.999 -0.3212  1.1692 -0.8035
  149SAPE  C21416459   2.049   2.105  50.144 -0.9394  0.4738 -0.5283
  149SAPE  H14R16460   1.940   2.092  50.139 -0.9313  0.8823 -3.1544
  149SAPE  C21516461   2.125   2.110  50.258  0.8871 -0.8071 -0.7621
  149SAPE  H15R16462   2.072   2.083  50.351  1.7149 -2.5538 -0.7584
  149SAPE  C21616463   2.267   2.138  50.264 -0.3109  0.1014 -0.2411
  149SAPE  H16R16464   2.327   2.100  50.178 -0.0410  2.0978 -0.9905
  149SAPE  H16S16465   2.316   2.103  50.357  3.7686  4.1669 -0.4568
  149SAPE  C21716466   2.299   2.291  50.264  0.5720 -0.1527 -0.2680
  149SAPE  H17R16467   2.255   2.350  50.346 -0.8697 -0.0986 -1.0542
  149SAPE  H17S16468   2.260   2.329  50.167  0.4048 -3.1003 -1.4863
  149SAPE  C21816469   2.443   2.332  50.248  0.0108  0.5445 -0.4905
  149SAPE  H18R16470   2.449   2.426  50.189  0.2777  0.0179 -1.3098
  149SAPE  H18S16471   2.492   2.250  50.192 -0.5294  0.0813 -0.2985
  149SAPE  C21916472   2.525   2.343  50.376 -0.1817 -0.2738 -1.2949
  149SAPE  H19R16473   2.531   2.240  50.417  1.4181 -0.3709 -1.6945
  149SAPE  H19S16474   2.470   2.406  50.450  1.0559  0.8001 -1.2508
  149SAPE  C22016475   2.665   2.401  50.348 -0.4882 -0.2806  0.4190
  149SAPE  H20R16476   2.657   2.512  50.346 -0.4564 -0.2818  0.2762
  149SAPE  H20S16477   2.729   2.366  50.264 -0.6475  1.0743 -0.2916
  149SAPE  H20T16478   2.714   2.386  50.447  2.0337 -0.6826 -0.8233
  149SAPE   C3316479   1.840   3.323  49.141 -0.1093  0.5592 -0.5492
  149SAPE   H3X16480   1.805   3.404  49.074 -3.2905  2.7711  3.2943
  149SAPE   H3Y16481   1.941   3.284  49.117  0.4194  1.6448 -0.1935
  149SAPE   C3416482   1.861   3.393  49.273 -0.3581 -0.1447 -1.2111
  149SAPE   H4X16483   1.920   3.324  49.336 -1.6896 -1.6044 -1.4951
  149SAPE   H4Y16484   1.764   3.409  49.324  0.1675  4.1863 -1.1783
  149SAPE   C3516485   1.928   3.531  49.259  0.5750 -0.3078  0.3433
  149SAPE   H5X16486   1.858   3.585  49.192 -0.0201 -1.4791 -0.0177
  149SAPE   H5Y16487   2.026   3.524  49.209  1.3986 -1.9761  2.0616
  149SAPE   C3616488   1.962   3.605  49.394  0.2786 -0.4018 -0.2877
  149SAPE   H6X16489   1.874   3.626  49.459 -3.6000  0.0587 -5.1136
  149SAPE   H6Y16490   1.992   3.708  49.367  2.3688 -0.7358  0.5670
  149SAPE   C3716491   2.071   3.547  49.480  0.6199  0.6289 -0.1683
  149SAPE   H7X16492   2.158   3.525  49.414  0.3567  1.8014 -0.9332
  149SAPE   H7Y16493   2.037   3.451  49.525  0.4403  1.0997  0.7080
  149SAPE   C3816494   2.120   3.635  49.590 -0.7568  0.7075  0.2850
  149SAPE   H8X16495   2.035   3.679  49.647  0.7777  0.7812  2.6749
  149SAPE   H8Y16496   2.186   3.717  49.556 -0.2348 -0.0312 -0.5443
  149SAPE   C3916497   2.213   3.551  49.686  0.1350  0.2087  0.6247
  149SAPE   H9X16498   2.309   3.528  49.634  0.5886  1.9284  0.6375
  149SAPE   H9Y16499   2.164   3.452  49.697  0.9938 -0.2888  0.0930
  149SAPE  C31016500   2.227   3.596  49.838  0.4138 -1.3542 -0.4664
  149SAPE  H10X16501   2.146   3.558  49.903 -1.4629  2.7939 -0.0536
  149SAPE  H10Y16502   2.209   3.705  49.847 -1.6437 -1.7456  0.8232
  149SAPE  C31116503   2.354   3.553  49.911  0.0978  0.5662  0.4062
  149SAPE  H11X16504   2.395   3.631  49.979  0.1439 -0.4879  1.6115
  149SAPE  H11Y16505   2.429   3.546  49.829  0.9731 -1.0238  1.2939
  149SAPE  C31216506   2.334   3.421  49.973  0.5855 -0.1947  0.0634
  149SAPE  H12X16507   2.290   3.339  49.913  0.3411  1.1526 -1.6789
  149SAPE  H12Y16508   2.255   3.433  50.050 -0.6729 -0.4360 -1.1619
  149SAPE  C31316509   2.460   3.366  50.052  0.1802 -0.4705  0.5367
  149SAPE  H13X16510   2.533   3.449  50.053  1.3081 -1.4152 -0.1054
  149SAPE  H13Y16511   2.513   3.293  49.986  2.8218  1.1758  0.6863
  149SAPE  C31416512   2.441   3.306  50.196 -0.2742  0.5502 -0.2401
  149SAPE  H14X16513   2.363   3.370  50.245  1.4670  0.2837  3.2211
  149SAPE  H14Y16514   2.530   3.322  50.261  0.2898  0.7125 -1.0464
  149SAPE  C31516515   2.382   3.157  50.201  0.3139 -0.0904  1.2319
  149SAPE  H15X16516   2.448   3.093  50.139 -2.9925  1.0791 -4.2563
  149SAPE  H15Y16517   2.288   3.142  50.142  0.4146  1.5207  0.6182
  149SAPE  C31616518   2.368   3.099  50.346 -0.2439 -0.5476  0.0870
  149SAPE  H16X16519   2.267   3.060  50.369  0.5346 -3.0773 -0.4143
  149SAPE  H16Y16520   2.406   3.169  50.423 -3.4095 -0.7957  1.9996
  149SAPE  C31716521   2.445   2.959  50.364 -1.0561 -0.3767 -0.8797
  149SAPE  H17X16522   2.553   2.984  50.366 -1.4272  1.3106  0.6915
  149SAPE  H17Y16523   2.427   2.902  50.271  1.7117 -0.5664 -1.3550
  149SAPE  C31816524   2.412   2.882  50.496 -0.6859  0.3665  0.5701
  149SAPE  H18X16525   2.338   2.946  50.547 -3.0522 -0.8779 -1.0948
  149SAPE  H18Y16526   2.505   2.883  50.557  0.8646 -4.0155 -1.2816
  149SAPE  H18Z16527   2.386   2.777  50.470  3.3446 -0.4862 -0.8143
  150SAPE     N16528   1.421   1.489  53.270 -0.1348 -0.3284 -0.2322
  150SAPE   HN116529   1.493   1.514  53.199 -1.0312 -1.5074 -1.6213
  150SAPE   HN216530   1.450   1.437  53.355  4.7949 -1.1489 -2.0712
  150SAPE   HN316531   1.363   1.420  53.217  1.4960 -0.2754 -2.2646
  150SAPE   C1216532   1.327   1.601  53.298 -0.0515 -0.0485 -0.4711
  150SAPE  H12A16533   1.279   1.569  53.393 -0.6060 -2.5822 -1.5413
  150SAPE  H12B16534   1.253   1.584  53.218 -0.6909 -3.9183  0.7493
  150SAPE   C1116535   1.395   1.744  53.288  0.1862  0.9442  0.9535
  150SAPE  H11A16536   1.422   1.761  53.181  1.1613 -0.8734  0.8731
  150SAPE  H11B16537   1.494   1.722  53.332 -0.2056 -0.7488  1.0451
  150SAPE     P16538   1.253   1.964  53.274 -0.3072  0.0050 -0.0811
  150SAPE   O1316539   1.320   2.010  53.147  0.1614 -0.8031  0.0253
  150SAPE   O1416540   1.114   1.917  53.243 -0.1578  0.0756  0.1080
  150SAPE   O1216541   1.334   1.853  53.358 -0.4779 -0.6850 -0.2579
  150SAPE   O1116542   1.246   2.087  53.372 -0.4553 -0.2374  0.7571
  150SAPE    C116543   1.374   2.141  53.404 -0.0253  0.1043  0.2602
  150SAPE    HA16544   1.456   2.084  53.356 -0.1265 -1.6888  2.0667
  150SAPE    HB16545   1.368   2.242  53.359  1.8478 -0.8527 -2.3483
  150SAPE    C216546   1.399   2.145  53.555 -0.5625 -0.3078 -0.5678
  150SAPE    HS16547   1.322   2.217  53.591  1.4398  1.8738 -0.3511
  150SAPE   O2116548   1.533   2.177  53.583 -1.2854  0.4797  0.1280
  150SAPE   C2116549   1.561   2.305  53.569 -0.0151 -1.6260  0.1166
  150SAPE   O2216550   1.503   2.385  53.496 -1.1325 -0.0524  0.2663
  150SAPE   C2216551   1.664   2.342  53.672 -0.6693  0.9613 -0.1411
  150SAPE   H2R16552   1.713   2.244  53.691  2.4229  1.7519 -3.1278
  150SAPE   H2S16553   1.743   2.410  53.634  1.0497 -1.6068 -1.4097
  150SAPE    C316554   1.373   2.007  53.629  0.2753  0.2286 -0.3677
  150SAPE    HX16555   1.433   1.931  53.574 -0.1216 -2.0582  2.1097
  150SAPE    HY16556   1.264   1.987  53.620  0.0199  0.5617  1.4634
  150SAPE   O3116557   1.403   2.029  53.764 -0.0719 -0.3591 -0.1268
  150SAPE   C3116558   1.459   1.923  53.826 -0.4338 -0.0519 -0.0881
  150SAPE   O3216559   1.459   1.809  53.776  0.0605 -0.5102 -0.0870
  150SAPE   C3216560   1.541   1.975  53.943 -0.7841 -0.5038 -0.8688
  150SAPE   H2X16561   1.493   2.070  53.976  0.2248  0.7278 -2.7675
  150SAPE   H2Y16562   1.644   1.997  53.906  0.0662 -0.4745  1.3670
  150SAPE   C2316563   1.602   2.375  53.801 -0.5886 -0.6029  0.4916
  150SAPE   H3R16564   1.507   2.320  53.818  0.8689 -2.7209  2.4062
  150SAPE   H3S16565   1.570   2.481  53.816  1.0489  0.0271 -0.3460
  150SAPE   C2416566   1.687   2.328  53.915 -0.7505 -0.7452 -0.0320
  150SAPE   H4R16567   1.793   2.361  53.907 -0.0326 -2.6015  1.1917
  150SAPE   H4S16568   1.689   2.218  53.902 -1.3246 -0.7245 -0.3166
  150SAPE   C2516569   1.603   2.350  54.039  0.6816 -0.0820  0.0114
  150SAPE   H5R16570   1.495   2.344  54.021  0.5000 -0.4512  1.1544
  150SAPE   C2616571   1.663   2.394  54.155 -0.6488  0.0272  0.8596
  150SAPE   H6R16572   1.605   2.405  54.248  1.9079  2.2600  2.3528
  150SAPE   C2716573   1.813   2.406  54.176 -0.8044  0.2878 -0.6613
  150SAPE   H7R16574   1.868   2.369  54.087 -0.3030  1.7190 -0.9677
  150SAPE   H7S16575   1.839   2.340  54.261  1.8186  2.3361  0.2717
  150SAPE   C2816576   1.852   2.551  54.206 -0.9493 -0.0996  0.0550
  150SAPE   H8R16577   1.769   2.618  54.177 -2.1267 -2.4231 -2.4546
  150SAPE   C2916578   1.955   2.599  54.276 -0.8424 -0.1403 -0.5521
  150SAPE   H9R16579   1.970   2.707  54.278  2.2328 -0.4551 -1.4642
  150SAPE  C21016580   2.073   2.512  54.325 -0.3750 -0.2099 -0.1547
  150SAPE  H10R16581   2.093   2.427  54.257  1.3770  0.8437 -1.0394
  150SAPE  H10S16582   2.063   2.484  54.432  1.5534 -0.5574 -0.0287
  150SAPE  C21116583   2.196   2.606  54.337  0.0945  0.1983 -0.1945
  150SAPE  H11R16584   2.222   2.643  54.237  2.0754 -0.9255 -0.1291
  150SAPE  C21216585   2.276   2.637  54.445  0.1440  0.5031  0.1076
  150SAPE  H12R16586   2.353   2.714  54.430 -1.5160  1.9612 -1.2850
  150SAPE  C21316587   2.260   2.596  54.590 -0.3622  0.1042  0.3246
  150SAPE  H13R16588   2.350   2.642  54.636  0.2496  1.4941 -2.0521
  150SAPE  H13S16589   2.282   2.487  54.594  0.6511  0.0184 -3.4300
  150SAPE  C21416590   2.133   2.641  54.654 -0.4411 -0.2391 -0.0431
  150SAPE  H14R16591   2.039   2.599  54.614 -0.1491 -0.6927 -0.2612
  150SAPE  C21516592   2.128   2.719  54.765 -0.2595  0.1608 -0.7846
  150SAPE  H15R16593   2.033   2.748  54.813 -0.1457 -0.0290 -0.4410
  150SAPE  C21616594   2.251   2.802  54.827 -0.8432  0.1525 -0.5265
  150SAPE  H16R16595   2.344   2.787  54.768 -0.9271  0.5366 -0.7642
  150SAPE  H16S16596   2.266   2.782  54.935  2.0976  0.4142 -0.8201
  150SAPE  C21716597   2.217   2.958  54.812  0.6317  0.3843  0.2433
  150SAPE  H17R16598   2.258   3.002  54.905  2.2948 -3.0306  1.2984
  150SAPE  H17S16599   2.107   2.975  54.814  0.6880  1.0417 -1.0869
  150SAPE  C21816600   2.278   3.024  54.686 -0.2984  0.2278  0.2222
  150SAPE  H18R16601   2.234   3.121  54.657 -0.5078  0.5328  1.5458
  150SAPE  H18S16602   2.272   2.961  54.594  0.8134 -2.1974  1.7131
  150SAPE  C21916603   2.432   3.043  54.722 -0.1368 -0.6074  0.0115
  150SAPE  H19R16604   2.469   2.955  54.779  0.4118  0.4283  1.3438
  150SAPE  H19S16605   2.457   3.138  54.775  1.6485 -0.4399 -1.0555
  150SAPE  C22016606   2.517   3.071  54.595  0.6069  0.8861 -0.8341
  150SAPE  H20R16607   2.481   3.151  54.526 -0.1880  0.0971 -1.3560
  150SAPE  H20S16608   2.528   2.976  54.539 -1.5041 -0.6992  1.2581
  150SAPE  H20T16609   2.625   3.077  54.617  0.5385 -2.6938  1.2453
  150SAPE   C3316610   1.529   1.864  54.043  0.7372 -0.3540 -0.3889
  150SAPE   H3X16611   1.559   1.770  53.991  2.0165  0.0524 -0.4263
  150SAPE   H3Y16612   1.428   1.847  54.084  0.0937 -1.6049 -2.3473
  150SAPE   C3416613   1.623   1.878  54.159 -0.7167 -0.2484  0.1159
  150SAPE   H4X16614   1.725   1.882  54.117 -0.6203 -0.3730  0.3346
  150SAPE   H4Y16615   1.602   1.800  54.236 -1.8936  1.3317  1.4658
  150SAPE   C3516616   1.592   2.005  54.244  0.5630  0.2586 -0.3348
  150SAPE   H5X16617   1.482   2.014  54.236  0.1245 -4.1358 -1.7358
  150SAPE   H5Y16618   1.643   2.097  54.209 -0.8197  1.3344  0.3657
  150SAPE   C3616619   1.610   1.983  54.390 -0.5745  0.7695 -0.3697
  150SAPE   H6X16620   1.716   1.956  54.409 -1.2225 -1.2375  0.6782
  150SAPE   H6Y16621   1.565   1.895  54.440 -0.7470  0.5062 -0.9710
  150SAPE   C3716622   1.582   2.107  54.469 -0.5987  0.3916  0.8348
  150SAPE   H7X16623   1.477   2.138  54.448 -0.1781  2.8844  1.9924
  150SAPE   H7Y16624   1.626   2.198  54.422 -1.3489 -0.1791 -1.0136
  150SAPE   C3816625   1.588   2.091  54.624  0.3254 -0.1301 -0.0166
  150SAPE   H8X16626   1.510   2.014  54.639 -1.5404  1.0119 -2.9610
  150SAPE   H8Y16627   1.544   2.187  54.657 -0.9183 -0.6121 -0.2392
  150SAPE   C3916628   1.727   2.073  54.682  0.2398 -0.1489 -0.0801
  150SAPE   H9X16629   1.785   2.168  54.677 -1.0958  0.8694  2.0320
  150SAPE   H9Y16630   1.786   1.998  54.625  0.7285 -0.0665  0.3071
  150SAPE  C31016631   1.714   2.040  54.834  1.3456  0.9200 -0.6205
  150SAPE  H10X16632   1.661   1.943  54.846 -1.9915  2.7793  1.2636
  150SAPE  H10Y16633   1.661   2.120  54.890 -2.0464 -0.9286 -0.8992
  150SAPE  C31116634   1.858   2.029  54.886 -0.1318 -0.0886 -0.0037
  150SAPE  H11X16635   1.907   2.126  54.867  2.3168 -1.3684 -0.5806
  150SAPE  H11Y16636   1.907   1.953  54.820 -2.7199 -1.3372 -0.6416
  150SAPE  C31216637   1.875   2.001  55.029 -0.1790 -0.4567  0.8520
  150SAPE  H12X16638   1.822   1.908  55.056  1.3175 -1.3327  0.9020
  150SAPE  H12Y16639   1.851   2.088  55.095  3.1461  0.6167  0.8346
  150SAPE  C31316640   2.017   1.972  55.070  0.6270  0.6316 -0.1539
  150SAPE  H13X16641   2.091   2.054  55.061  0.9743  0.4295  0.7895
  150SAPE  H13Y16642   2.056   1.891  55.004  0.6448 -0.0330  0.6466
  150SAPE  C31416643   2.029   1.921  55.213  0.4181 -0.5136  0.1179
  150SAPE  H14X16644   1.971   1.830  55.240  1.5283 -0.4347  3.2371
  150SAPE  H14Y16645   2.004   2.004  55.283  0.9174  0.7887 -1.1926
  150SAPE  C31516646   2.179   1.893  55.239  0.7811  0.9460  0.5009
  150SAPE  H15X16647   2.198   1.871  55.346  1.9759 -0.6523 -0.0046
  150SAPE  H15Y16648   2.242   1.985  55.228 -0.1343  1.3170 -2.5266
  150SAPE  C31616649   2.236   1.772  55.156 -0.3872  0.5679 -0.2325
  150SAPE  H16X16650   2.217   1.779  55.046  1.5299  5.2816 -0.5016
  150SAPE  H16Y16651   2.185   1.683  55.198 -2.0758  1.9013  0.6598
  150SAPE  C31716652   2.391   1.765  55.171  0.3815 -0.1329 -0.1904
  150SAPE  H17X16653   2.414   1.667  55.124 -1.3299 -1.0728  0.8126
  150SAPE  H17Y16654   2.407   1.775  55.280 -2.0295  0.0766  0.2058
  150SAPE  C31816655   2.466   1.880  55.097  0.7658 -0.4912  0.0222
  150SAPE  H18X16656   2.416   1.910  55.003 -1.6816 -0.0374  1.3921
  150SAPE  H18Y16657   2.576   1.864  55.089  0.9162  1.1588 -1.7100
  150SAPE  H18Z16658   2.456   1.965  55.168  1.2058 -0.3810 -0.0483
  151SAPE     N16659   1.536   0.569  41.752  0.2736  0.4967 -0.1999
  151SAPE   HN116660   1.557   0.480  41.801  0.2133  0.7454  0.2867
  151SAPE   HN216661   1.442   0.568  41.706  0.1691  2.8797 -0.1453
  151SAPE   HN316662   1.606   0.592  41.679  0.2265  0.8328 -0.1419
  151SAPE   C1216663   1.534   0.674  41.854 -1.1654 -0.4712 -0.4915
  151SAPE  H12A16664   1.507   0.766  41.798 -2.5300 -1.7041 -1.9486
  151SAPE  H12B16665   1.627   0.681  41.915 -1.0664 -0.9053 -0.5953
  151SAPE   C1116666   1.419   0.643  41.955  0.1770  0.0249  0.3236
  151SAPE  H11A16667   1.327   0.655  41.895 -0.3901 -2.7206  0.5205
  151SAPE  H11B16668   1.406   0.717  42.038 -4.4201 -0.9953  0.7879
  151SAPE     P16669   1.446   0.486  42.168 -0.1113  0.0013 -0.2352
  151SAPE   O1316670   1.371   0.362  42.199 -0.1183 -0.2702  0.4926
  151SAPE   O1416671   1.588   0.486  42.210  0.0725  0.2265 -0.2432
  151SAPE   O1216672   1.427   0.519  42.016  0.1545  0.3950  0.3428
  151SAPE   O1116673   1.373   0.599  42.252 -0.7664  0.4707 -0.0212
  151SAPE    C116674   1.358   0.579  42.394 -0.0402 -0.2907 -0.1187
  151SAPE    HA16675   1.403   0.484  42.431 -0.9806 -0.5954  0.2669
  151SAPE    HB16676   1.407   0.662  42.447 -0.0185  1.3754 -2.5689
  151SAPE    C216677   1.211   0.575  42.424  0.3886 -0.0350 -0.4099
  151SAPE    HS16678   1.168   0.493  42.363 -1.6357  0.7755 -0.1509
  151SAPE   O2116679   1.158   0.704  42.387 -0.3560  0.8333 -0.5461
  151SAPE   C2116680   1.098   0.709  42.263  0.8538  0.3587 -0.5507
  151SAPE   O2216681   1.047   0.616  42.217  0.1376 -0.3745  0.4384
  151SAPE   C2216682   1.106   0.841  42.198  0.8834 -0.7461  0.3674
  151SAPE   H2R16683   1.006   0.887  42.208  1.4503  0.2874  1.6815
  151SAPE   H2S16684   1.171   0.909  42.257  0.6790 -1.4394  1.3998
  151SAPE    C316685   1.175   0.541  42.569 -0.2115 -0.7876 -0.0810
  151SAPE    HX16686   1.065   0.550  42.568 -0.2857 -1.4777  1.1609
  151SAPE    HY16687   1.217   0.611  42.645 -2.0105 -0.6310  0.8018
  151SAPE   O3116688   1.223   0.408  42.601  0.2903  0.0125  0.3163
  151SAPE   C3116689   1.209   0.372  42.732  0.5092  0.0241 -0.2782
  151SAPE   O3216690   1.175   0.450  42.818  0.8316  0.5023 -0.0470
  151SAPE   C3216691   1.242   0.225  42.751  0.2924 -0.0326  0.1978
  151SAPE   H2X16692   1.352   0.221  42.739  0.2551 -2.3728  0.2245
  151SAPE   H2Y16693   1.199   0.165  42.669  1.5985  0.3134 -0.7615
  151SAPE   C2316694   1.146   0.841  42.047 -0.2407  0.4604 -0.3207
  151SAPE   H3R16695   1.122   0.748  41.993  0.3046  1.8317 -3.0864
  151SAPE   H3S16696   1.257   0.847  42.050 -0.1871  0.3070 -1.4896
  151SAPE   C2416697   1.079   0.958  41.968 -0.6606 -0.1578 -0.1530
  151SAPE   H4R16698   1.053   1.038  42.041  0.1671  0.2677 -0.3062
  151SAPE   H4S16699   0.988   0.933  41.910  0.3137  0.8169 -2.2434
  151SAPE   C2516700   1.179   1.016  41.871 -0.4064  0.0360  0.2158
  151SAPE   H5R16701   1.235   1.104  41.907  3.4036 -1.5889 -1.1826
  151SAPE   C2616702   1.204   0.974  41.749 -0.3591  0.3595 -0.6223
  151SAPE   H6R16703   1.292   1.017  41.699  1.0800 -2.5607 -0.7897
  151SAPE   C2716704   1.133   0.851  41.685  0.4079 -0.3125 -0.1081
  151SAPE   H7R16705   1.030   0.876  41.652  0.7026  1.5096  0.2808
  151SAPE   H7S16706   1.132   0.768  41.758  0.1809  1.2594  1.7526
  151SAPE   C2816707   1.213   0.814  41.566  0.5602  0.2365  1.3629
  151SAPE   H8R16708   1.264   0.717  41.571  0.3635  0.0046 -0.5687
  151SAPE   C2916709   1.207   0.871  41.440  0.9415  0.0868  0.5422
  151SAPE   H9R16710   1.275   0.829  41.364  1.5546 -1.5268  1.9090
  151SAPE  C21016711   1.133   0.991  41.392 -0.4213 -0.3844 -0.1658
  151SAPE  H10R16712   1.200   1.073  41.356 -0.0380 -0.9620 -0.7834
  151SAPE  H10S16713   1.078   1.038  41.477 -1.1427 -1.7903  0.1725
  151SAPE  C21116714   1.036   0.961  41.281  0.1460 -0.3696 -0.5668
  151SAPE  H11R16715   0.979   0.870  41.306  1.9292 -1.0496  1.3617
  151SAPE  C21216716   1.024   1.029  41.161 -0.4296 -0.0275  1.0487
  151SAPE  H12R16717   0.963   1.001  41.074  1.7757 -0.1478 -0.5371
  151SAPE  C21316718   1.117   1.145  41.124 -0.8007 -0.7113  0.8590
  151SAPE  H13R16719   1.118   1.158  41.014 -1.4674 -2.7598  0.5699
  151SAPE  H13S16720   1.220   1.121  41.158 -1.6810 -1.4148  3.2543
  151SAPE  C21416721   1.068   1.285  41.171  0.2561  0.6104  0.0663
  151SAPE  H14R16722   0.989   1.286  41.248  2.0760  2.8251  2.0618
  151SAPE  C21516723   1.116   1.402  41.130 -0.3027  0.5136  0.3449
  151SAPE  H15R16724   1.078   1.496  41.173 -0.2534  0.4778  0.4658
  151SAPE  C21616725   1.224   1.415  41.028 -0.3716  0.2046  0.7650
  151SAPE  H16R16726   1.292   1.328  41.021  1.3956  1.6526 -1.0315
  151SAPE  H16S16727   1.290   1.503  41.042 -0.1767  0.7859 -2.9267
  151SAPE  C21716728   1.167   1.420  40.887 -0.1662  0.0426 -0.7131
  151SAPE  H17R16729   1.095   1.338  40.862  0.0776 -0.5274  0.4000
  151SAPE  H17S16730   1.253   1.394  40.821  0.9349  1.4771  0.1076
  151SAPE  C21816731   1.094   1.552  40.846  0.3937  0.1425 -0.0842
  151SAPE  H18R16732   1.015   1.559  40.923  2.0774 -4.6027  2.4875
  151SAPE  H18S16733   1.037   1.527  40.754  1.8992 -0.5514 -0.8653
  151SAPE  C21916734   1.182   1.674  40.822  0.1454  0.5690 -0.2825
  151SAPE  H19R16735   1.277   1.641  40.871  1.0273  2.1862 -0.8025
  151SAPE  H19S16736   1.134   1.757  40.879 -1.0911 -1.2268  1.4150
  151SAPE  C22016737   1.203   1.715  40.679 -0.2004  0.1194  0.0235
  151SAPE  H20R16738   1.240   1.626  40.624  0.8482  0.1690  0.6231
  151SAPE  H20S16739   1.108   1.750  40.634 -0.2389  0.3693  0.2972
  151SAPE  H20T16740   1.279   1.795  40.675 -0.1686  0.1296 -4.8290
  151SAPE   C3316741   1.208   0.184  42.904 -0.2313  0.0947  0.5722
  151SAPE   H3X16742   1.098   0.177  42.914 -0.4910  0.2801 -1.7052
  151SAPE   H3Y16743   1.247   0.256  42.979  0.9007 -0.8649  0.9534
  151SAPE   C3416744   1.263   0.030  42.929  0.5433 -0.4186 -0.1207
  151SAPE   H4X16745   1.371   0.025  42.905  0.8113 -1.3530  1.1770
  151SAPE   H4Y16746   1.198  -0.030  42.861 -0.0959  0.5008 -0.3442
  151SAPE   C3516747   1.233  -0.018  43.075  0.4497  0.6145  0.5946
  151SAPE   H5X16748   1.129   0.014  43.098  0.6099  1.2642  0.4134
  151SAPE   H5Y16749   1.295   0.038  43.148  1.5394 -1.1820  1.1233
  151SAPE   C3616750   1.268  -0.164  43.102  0.1739 -0.2021  0.2158
  151SAPE   H6X16751   1.375  -0.182  43.079 -0.4031 -3.1671 -0.5412
  151SAPE   H6Y16752   1.208  -0.223  43.028  1.2867 -1.0830  0.0002
  151SAPE   C3716753   1.235  -0.206  43.251  0.1522 -0.9261  0.8576
  151SAPE   H7X16754   1.124  -0.213  43.256 -0.2469  1.3164 -1.9054
  151SAPE   H7Y16755   1.265  -0.129  43.325 -0.3395  1.0820 -0.9264
  151SAPE   C3816756   1.302  -0.339  43.283  0.6509  1.2858  0.4389
  151SAPE   H8X16757   1.413  -0.346  43.278  0.5390 -1.4753  0.1268
  151SAPE   H8Y16758   1.268  -0.420  43.215  2.5252 -0.4003  1.3621
  151SAPE   C3916759   1.259  -0.387  43.423 -0.1280  0.4243 -0.5615
  151SAPE   H9X16760   1.148  -0.389  43.424 -0.1288 -0.6271  0.8293
  151SAPE   H9Y16761   1.300  -0.314  43.496  2.4692 -0.2775 -1.2246
  151SAPE  C31016762   1.315  -0.523  43.476 -0.4441 -0.3829 -0.8415
  151SAPE  H10X16763   1.422  -0.520  43.446 -0.9325  0.2169 -2.6959
  151SAPE  H10Y16764   1.275  -0.603  43.409 -0.8415 -0.2678 -0.7495
  151SAPE  C31116765   1.277  -0.570  43.614 -0.6638 -1.3510 -0.0226
  151SAPE  H11X16766   1.168  -0.585  43.601 -0.5064 -3.4579  0.6487
  151SAPE  H11Y16767   1.301  -0.487  43.685  2.9663 -1.0633 -1.3594
  151SAPE  C31216768   1.338  -0.702  43.650  0.5847  0.1998  0.2440
  151SAPE  H12X16769   1.343  -0.718  43.760 -1.2754  0.1784  0.3538
  151SAPE  H12Y16770   1.435  -0.721  43.599  0.4683 -1.5617  0.6250
  151SAPE  C31316771   1.229  -0.807  43.619  0.0539  1.0429 -0.0292
  151SAPE  H13X16772   1.174  -0.801  43.523 -0.5917 -2.1905  0.0204
  151SAPE  H13Y16773   1.155  -0.800  43.702  2.5034  2.0133  2.2368
  151SAPE  C31416774   1.294  -0.953  43.612 -0.0213 -0.4565  0.0316
  151SAPE  H14X16775   1.206  -1.021  43.612 -0.5023  0.1460 -0.5039
  151SAPE  H14Y16776   1.343  -0.968  43.710 -1.2877  0.8147  0.8909
  151SAPE  C31516777   1.385  -0.980  43.494 -0.4905  0.8153  0.7113
  151SAPE  H15X16778   1.466  -0.904  43.488 -1.3303  1.6594 -3.5663
  151SAPE  H15Y16779   1.332  -0.964  43.398 -3.0781 -1.8777  1.5279
  151SAPE  C31616780   1.460  -1.111  43.486  0.3968  0.1599  0.3399
  151SAPE  H16X16781   1.524  -1.135  43.574  1.6935 -0.5096 -0.7638
  151SAPE  H16Y16782   1.523  -1.107  43.395  0.7146  2.5442  0.5991
  151SAPE  C31716783   1.376  -1.240  43.480 -0.1288 -0.0279  0.6049
  151SAPE  H17X16784   1.299  -1.229  43.401  1.8837 -1.0409 -1.6456
  151SAPE  H17Y16785   1.320  -1.257  43.574 -1.2706 -1.6078 -0.3065
  151SAPE  C31816786   1.455  -1.361  43.426  0.0280 -0.4891  0.6816
  151SAPE  H18X16787   1.508  -1.336  43.331  0.6916 -3.2289  0.2441
  151SAPE  H18Y16788   1.391  -1.445  43.392 -0.2649  0.7812 -2.2025
  151SAPE  H18Z16789   1.528  -1.392  43.504  0.2690  1.2116  1.1555
  152SAPE     N16790   1.256   0.893  53.188 -0.1669 -0.2482  0.5291
  152SAPE   HN116791   1.223   0.847  53.100  1.9719  3.9251 -2.8293
  152SAPE   HN216792   1.275   0.988  53.152  0.1091 -0.3098  0.5106
  152SAPE   HN316793   1.352   0.859  53.209  0.8901  2.8207  1.0436
  152SAPE   C1216794   1.158   0.900  53.300 -0.0129 -0.1166  0.3317
  152SAPE  H12A16795   1.121   0.797  53.323 -0.3711  0.3929  2.1525
  152SAPE  H12B16796   1.072   0.968  53.280 -0.7150 -0.8775  0.6614
  152SAPE   C1116797   1.238   0.959  53.416 -0.1162  0.0508 -0.5238
  152SAPE  H11A16798   1.328   0.896  53.437  0.4592  1.5234  1.7269
  152SAPE  H11B16799   1.177   0.939  53.507 -0.5206 -1.3043 -1.0696
  152SAPE     P16800   1.378   1.162  53.492  0.4951  0.3016 -0.0841
  152SAPE   O1316801   1.402   1.306  53.457 -0.0945  0.9360  0.2166
  152SAPE   O1416802   1.341   1.131  53.632 -0.0118  0.4899 -0.5563
  152SAPE   O1216803   1.266   1.099  53.395 -0.0310 -0.2323  0.2858
  152SAPE   O1116804   1.512   1.091  53.475 -0.1909  0.5651 -0.5520
  152SAPE    C116805   1.568   1.090  53.338 -0.1306 -0.0586 -0.3972
  152SAPE    HA16806   1.493   1.075  53.258 -2.8910 -1.2254  2.1965
  152SAPE    HB16807   1.620   1.187  53.323  0.5085 -0.4528 -0.7749
  152SAPE    C216808   1.683   0.984  53.327 -0.6030 -0.2257  0.0466
  152SAPE    HS16809   1.700   0.971  53.218  0.1951 -0.8047  0.2314
  152SAPE   O2116810   1.640   0.857  53.378  0.2192  0.0168  0.1214
  152SAPE   C2116811   1.576   0.770  53.290  0.6904 -0.2401 -0.0281
  152SAPE   O2216812   1.522   0.807  53.189 -0.3035 -0.3027 -0.1849
  152SAPE   C2216813   1.608   0.628  53.338 -0.3317 -0.6278 -0.0078
  152SAPE   H2R16814   1.547   0.612  53.429  0.7388 -3.0430  0.3669
  152SAPE   H2S16815   1.571   0.549  53.269 -0.8893 -0.6677  0.3302
  152SAPE    C316816   1.816   1.026  53.395  0.0835  0.2506  0.3678
  152SAPE    HX16817   1.863   1.110  53.340  1.6721 -0.7744  0.0682
  152SAPE    HY16818   1.884   0.937  53.391 -3.2710 -2.5029  0.2085
  152SAPE   O3116819   1.778   1.071  53.523  0.2278 -0.6045 -0.0280
  152SAPE   C3116820   1.889   1.091  53.596 -0.3954  0.4970 -0.5153
  152SAPE   O3216821   2.003   1.088  53.549 -0.3804  1.2592 -0.0017
  152SAPE   C3216822   1.855   1.123  53.742  0.9856 -1.2405  0.0448
  152SAPE   H2X16823   1.744   1.121  53.744  0.9263  0.5739 -0.0714
  152SAPE   H2Y16824   1.887   1.228  53.757  1.2031 -0.7148 -3.2461
  152SAPE   C2316825   1.754   0.594  53.378  0.5817  0.1474  0.5185
  152SAPE   H3R16826   1.779   0.658  53.465 -3.1531  2.0511  0.3828
  152SAPE   H3S16827   1.819   0.611  53.289 -0.8281  3.5413  0.0214
  152SAPE   C2416828   1.762   0.450  53.440 -0.2705 -0.7129  0.1786
  152SAPE   H4R16829   1.865   0.427  53.475  0.3010  1.5923  0.1440
  152SAPE   H4S16830   1.746   0.380  53.355  0.7511  1.1586 -1.6478
  152SAPE   C2516831   1.665   0.419  53.550 -1.9143  0.8174 -0.0777
  152SAPE   H5R16832   1.596   0.343  53.510 -0.8358 -1.6308  2.3370
  152SAPE   C2616833   1.678   0.439  53.680 -0.2559  0.7309 -1.0060
  152SAPE   H6R16834   1.590   0.414  53.740  1.7009 -1.4256  1.1767
  152SAPE   C2716835   1.787   0.516  53.740 -0.1261  1.0350 -0.3298
  152SAPE   H7R16836   1.863   0.543  53.664  1.4829  0.8220  1.1272
  152SAPE   H7S16837   1.832   0.461  53.825 -0.4662 -1.5907 -1.7445
  152SAPE   C2816838   1.726   0.654  53.765 -0.1899  1.3579  0.2728
  152SAPE   H8R16839   1.722   0.714  53.673 -0.5047  0.6909 -0.1580
  152SAPE   C2916840   1.709   0.713  53.881  0.1816 -0.5376  0.0561
  152SAPE   H9R16841   1.642   0.801  53.879 -1.2240 -1.5443  1.2662
  152SAPE  C21016842   1.726   0.640  54.015  0.2952 -0.5371 -0.2485
  152SAPE  H10R16843   1.715   0.532  53.992  1.6745 -0.9837  1.1102
  152SAPE  H10S16844   1.651   0.669  54.091  1.3108  1.2217  0.1259
  152SAPE  C21116845   1.868   0.658  54.077  0.8830 -0.1870  0.6590
  152SAPE  H11R16846   1.949   0.640  54.004 -1.4155  1.4769 -2.5946
  152SAPE  C21216847   1.905   0.685  54.203  0.1793  0.3111  0.4084
  152SAPE  H12R16848   2.006   0.720  54.226  0.8780 -1.7223  0.5478
  152SAPE  C21316849   1.817   0.723  54.320 -1.3454  0.5336  0.4202
  152SAPE  H13R16850   1.726   0.662  54.305 -0.6975 -0.4072  0.1833
  152SAPE  H13S16851   1.776   0.825  54.310 -4.3128 -0.2697  2.9483
  152SAPE  C21416852   1.878   0.695  54.460 -0.0271 -0.3322  0.3011
  152SAPE  H14R16853   1.928   0.597  54.464 -1.4301 -1.3962 -3.5473
  152SAPE  C21516854   1.887   0.774  54.567 -0.0087 -0.1976  0.2854
  152SAPE  H15R16855   1.946   0.736  54.652  0.3715  0.0623  0.1429
  152SAPE  C21616856   1.825   0.905  54.573  0.4028 -0.7427 -0.8288
  152SAPE  H16R16857   1.776   0.913  54.673  3.2131 -0.6895  0.6510
  152SAPE  H16S16858   1.748   0.935  54.499  0.6740  0.9852 -0.4435
  152SAPE  C21716859   1.913   1.028  54.598 -0.2948 -0.3926 -0.2008
  152SAPE  H17R16860   1.864   1.127  54.589  2.1850  0.8601 -1.0233
  152SAPE  H17S16861   1.972   1.035  54.504 -1.5038  2.4721 -0.8609
  152SAPE  C21816862   2.015   1.012  54.714  0.4296 -0.3347 -0.9264
  152SAPE  H18R16863   2.069   0.915  54.717  1.2318  0.1065 -0.7797
  152SAPE  H18S16864   1.954   1.015  54.806 -1.7061  0.7119 -2.2810
  152SAPE  C21916865   2.127   1.121  54.730  0.3332 -0.9233  0.4506
  152SAPE  H19R16866   2.102   1.221  54.689 -1.6981 -2.7428 -3.2206
  152SAPE  H19S16867   2.205   1.097  54.655  1.7908 -0.5942  1.8014
  152SAPE  C22016868   2.198   1.122  54.865  0.8463 -0.2101  0.6726
  152SAPE  H20R16869   2.122   1.129  54.946  0.4160  2.3032  0.1279
  152SAPE  H20S16870   2.279   1.197  54.882  0.7509 -0.3155  1.6609
  152SAPE  H20T16871   2.249   1.024  54.875 -0.1507 -0.8234 -0.0965
  152SAPE   C3316872   1.909   1.030  53.850  0.5388  0.6522  0.4528
  152SAPE   H3X16873   2.018   1.009  53.855  0.9489  1.6268 -2.4781
  152SAPE   H3Y16874   1.858   0.931  53.845  1.7374  0.0051  0.7403
  152SAPE   C3416875   1.871   1.082  53.992  0.8734 -0.1472 -0.0093
  152SAPE   H4X16876   1.828   0.999  54.052 -0.0697 -1.0988 -1.9254
  152SAPE   H4Y16877   1.782   1.149  53.988  0.3047 -0.9033 -0.1967
  152SAPE   C3516878   1.976   1.152  54.078  0.2919  0.9435 -0.0524
  152SAPE   H5X16879   2.023   1.236  54.024  2.3558  0.4092  0.8120
  152SAPE   H5Y16880   2.064   1.089  54.101 -1.6244 -1.0471  2.4456
  152SAPE   C3616881   1.920   1.187  54.215  0.4839 -1.0991  0.2274
  152SAPE   H6X16882   1.911   1.095  54.277  2.2797 -0.7428  1.1075
  152SAPE   H6Y16883   1.821   1.233  54.199  0.2061 -1.4327  0.9237
  152SAPE   C3716884   2.009   1.292  54.291 -0.1849 -0.9995 -0.4077
  152SAPE   H7X16885   2.042   1.368  54.217  0.7684 -0.4367  0.5571
  152SAPE   H7Y16886   2.087   1.245  54.353  0.2241 -0.4338 -0.4878
  152SAPE   C3816887   1.916   1.364  54.377 -0.4498 -0.2423 -0.7473
  152SAPE   H8X16888   1.966   1.392  54.472 -0.8015  1.0510 -0.9322
  152SAPE   H8Y16889   1.836   1.295  54.411  0.1900 -0.7757 -0.2926
  152SAPE   C3916890   1.857   1.502  54.328  0.6255 -0.4031 -0.3092
  152SAPE   H9X16891   1.775   1.501  54.253 -0.7706  2.8197  0.9686
  152SAPE   H9Y16892   1.938   1.538  54.262 -0.3236  2.2498 -0.1620
  152SAPE  C31016893   1.813   1.600  54.440  0.0400  0.0212  0.1582
  152SAPE  H10X16894   1.791   1.698  54.391  0.2455 -0.8422 -1.7746
  152SAPE  H10Y16895   1.899   1.616  54.508 -0.1511  1.9088  0.0200
  152SAPE  C31116896   1.697   1.552  54.506  1.6273 -0.2488  0.1034
  152SAPE  H11X16897   1.693   1.442  54.515  0.3482 -0.1603  0.8006
  152SAPE  H11Y16898   1.608   1.589  54.450  1.8495  1.4376  0.7785
  152SAPE  C31216899   1.688   1.599  54.656  0.3243 -0.1230  0.5187
  152SAPE  H12X16900   1.719   1.705  54.674 -0.7700  0.8950 -2.8897
  152SAPE  H12Y16901   1.764   1.540  54.712  3.8571  1.5765 -2.0470
  152SAPE  C31316902   1.552   1.565  54.710 -0.2082  0.1365 -0.0204
  152SAPE  H13X16903   1.547   1.455  54.695  0.6058  0.1775 -0.6388
  152SAPE  H13Y16904   1.480   1.606  54.636 -1.7785 -1.6871  0.4237
  152SAPE  C31416905   1.515   1.616  54.845 -0.1849  0.0671 -0.8682
  152SAPE  H14X16906   1.434   1.551  54.884 -0.2990  1.1607  0.8124
  152SAPE  H14Y16907   1.478   1.719  54.858  2.0613  0.7445  0.7636
  152SAPE  C31516908   1.619   1.614  54.962 -0.1390  0.9768  0.4839
  152SAPE  H15X16909   1.686   1.692  54.921  1.2975 -1.4175 -2.0963
  152SAPE  H15Y16910   1.690   1.530  54.976  0.0024  1.4191  2.8612
  152SAPE  C31616911   1.584   1.663  55.108  0.0669 -0.7427 -0.1283
  152SAPE  H16X16912   1.505   1.596  55.149 -0.7286  0.6434  0.7136
  152SAPE  H16Y16913   1.543   1.765  55.092 -2.7920 -2.2341 -3.9975
  152SAPE  C31716914   1.699   1.646  55.209  0.3626 -0.1405 -0.2081
  152SAPE  H17X16915   1.779   1.719  55.184  0.9009 -0.1084  1.4462
  152SAPE  H17Y16916   1.746   1.545  55.209 -0.0764 -0.3459 -0.7147
  152SAPE  C31816917   1.659   1.675  55.362  0.1308  0.2572  0.2757
  152SAPE  H18X16918   1.629   1.573  55.394 -0.5640  0.4635  0.2996
  152SAPE  H18Y16919   1.564   1.732  55.374 -1.8390 -3.0196  1.7175
  152SAPE  H18Z16920   1.745   1.715  55.418  0.4746  2.4031 -1.6321
  153SAPE     N16921   2.500   1.867  48.889 -0.2784  0.0665  0.9853
  153SAPE   HN116922   2.443   1.889  48.974 -0.6943 -1.1437  1.0374
  153SAPE   HN216923   2.536   1.952  48.840 -0.5687 -0.4397 -0.1346
  153SAPE   HN316924   2.439   1.817  48.822  3.0161  0.1971 -2.4353
  153SAPE   C1216925   2.627   1.798  48.933 -0.1761  0.1360  0.0564
  153SAPE  H12A16926   2.607   1.693  48.965 -1.3418  0.9670  2.2350
  153SAPE  H12B16927   2.658   1.847  49.027 -0.6790 -0.5576  0.5951
  153SAPE   C1116928   2.725   1.775  48.828 -1.2575 -0.1155  0.3299
  153SAPE  H11A16929   2.821   1.730  48.860  0.0077  2.2598  0.0436
  153SAPE  H11B16930   2.772   1.870  48.796  1.3864 -0.7987  1.8618
  153SAPE     P16931   2.652   1.550  48.711 -0.0440 -0.3362  0.1119
  153SAPE   O1316932   2.568   1.498  48.822  0.5388  0.6349 -0.1146
  153SAPE   O1416933   2.618   1.506  48.574  0.6641 -0.9960  0.6063
  153SAPE   O1216934   2.658   1.704  48.724 -0.2341  0.1508  0.4023
  153SAPE   O1116935   2.805   1.529  48.728  0.6103  0.3493 -0.1228
  153SAPE    C116936   2.906   1.560  48.635 -0.4184  0.2201 -0.5821
  153SAPE    HA16937   2.876   1.643  48.567 -1.0768  0.9868  0.6092
  153SAPE    HB16938   2.998   1.590  48.689 -0.0747 -0.3747 -0.8287
  153SAPE    C216939   2.947   1.436  48.551  0.7343 -0.1066  0.0348
  153SAPE    HS16940   2.860   1.428  48.481 -1.2455  0.1203  2.3395
  153SAPE   O2116941   2.951   1.319  48.639 -0.3120  0.0767  0.3573
  153SAPE   C2116942   2.934   1.204  48.576 -0.2488 -0.0116 -0.0797
  153SAPE   O2216943   2.925   1.191  48.452 -0.0965  0.4133 -0.4287
  153SAPE   C2216944   2.954   1.085  48.667 -0.3189  0.4017 -0.0500
  153SAPE   H2R16945   3.046   1.093  48.729 -0.1459  2.6933 -0.5154
  153SAPE   H2S16946   2.867   1.053  48.727  0.8160 -1.1031  0.8519
  153SAPE    C316947   3.078   1.462  48.476 -0.8382  0.0518  0.6259
  153SAPE    HX16948   3.094   1.389  48.395 -1.3127  1.2240 -0.5668
  153SAPE    HY16949   3.158   1.443  48.551 -2.0132 -1.3647  1.5773
  153SAPE   O3116950   3.078   1.596  48.422 -0.4316 -0.1456  0.7994
  153SAPE   C3116951   3.007   1.594  48.306 -0.1089 -0.3044 -0.0322
  153SAPE   O3216952   2.950   1.498  48.254 -0.4745  0.2344 -0.7975
  153SAPE   C3216953   2.995   1.742  48.247 -0.1058  0.3308  0.6181
  153SAPE   H2X16954   3.040   1.819  48.313 -0.6176 -0.0586  1.4190
  153SAPE   H2Y16955   2.886   1.763  48.250 -0.3754 -1.0963  2.9196
  153SAPE   C2316956   2.967   0.969  48.568  0.1661  0.1365 -0.2177
  153SAPE   H3R16957   3.072   0.975  48.533  0.2308 -0.4994 -0.1278
  153SAPE   H3S16958   2.897   0.972  48.481 -2.5305  2.7324  1.8107
  153SAPE   C2416959   2.934   0.842  48.645 -0.1673  0.2794  1.0013
  153SAPE   H4R16960   2.823   0.837  48.654 -0.1592  0.8189  1.4694
  153SAPE   H4S16961   2.958   0.860  48.752 -1.1397 -2.1507  1.6978
  153SAPE   C2516962   3.004   0.703  48.618  0.6894 -0.8668  0.7135
  153SAPE   H5R16963   2.987   0.671  48.514  1.0164  1.5031 -0.1296
  153SAPE   C2616964   3.117   0.653  48.682  0.1518  0.1496 -0.1105
  153SAPE   H6R16965   3.148   0.555  48.644 -1.2405  0.4738 -2.2511
  153SAPE   C2716966   3.195   0.722  48.787  0.1125  0.4849  0.2699
  153SAPE   H7R16967   3.184   0.667  48.883  0.0253  1.9821  1.1549
  153SAPE   H7S16968   3.152   0.824  48.793  3.0806  1.8374  0.0680
  153SAPE   C2816969   3.341   0.743  48.747 -0.6070  0.2474 -0.1024
  153SAPE   H8R16970   3.355   0.837  48.691 -3.4069  0.2947 -0.8856
  153SAPE   C2916971   3.441   0.655  48.782  0.0059 -0.0232 -0.3632
  153SAPE   H9R16972   3.544   0.666  48.745 -0.8842  0.5474 -2.8615
  153SAPE  C21016973   3.427   0.513  48.841 -0.1753 -0.1591  0.7363
  153SAPE  H10R16974   3.434   0.432  48.766  1.4707 -1.0120  1.7411
  153SAPE  H10S16975   3.325   0.489  48.880 -0.0162 -1.7136  0.2433
  153SAPE  C21116976   3.527   0.480  48.943  1.3314 -0.3150 -0.0285
  153SAPE  H11R16977   3.586   0.565  48.981  0.7446  0.1481 -0.1458
  153SAPE  C21216978   3.552   0.359  48.997  0.2129 -0.3074 -1.4667
  153SAPE  H12R16979   3.630   0.355  49.075 -0.4378  0.6682 -0.7512
  153SAPE  C21316980   3.494   0.227  48.972  0.2090 -0.4396 -0.8291
  153SAPE  H13R16981   3.526   0.210  48.866  1.9345 -0.0158 -0.4095
  153SAPE  H13S16982   3.383   0.220  48.968  0.1069  0.0433  0.6993
  153SAPE  C21416983   3.540   0.107  49.050 -0.6645 -0.2049 -0.2995
  153SAPE  H14R16984   3.578   0.026  48.985  0.8168  0.5051 -0.3402
  153SAPE  C21516985   3.529   0.074  49.174 -0.0804 -0.2726 -0.6796
  153SAPE  H15R16986   3.567  -0.023  49.210  1.2407 -1.2918 -4.2934
  153SAPE  C21616987   3.481   0.165  49.284  0.1421 -0.6348  0.6206
  153SAPE  H16R16988   3.386   0.129  49.330  1.4793 -1.8468  2.5403
  153SAPE  H16S16989   3.457   0.265  49.240 -1.1915 -0.5864  1.3862
  153SAPE  C21716990   3.593   0.193  49.384 -0.3931  0.7928 -0.0435
  153SAPE  H17R16991   3.556   0.281  49.441 -1.2455  0.1240  0.4614
  153SAPE  H17S16992   3.674   0.235  49.322 -1.7263  3.3998 -0.1397
  153SAPE  C21816993   3.640   0.071  49.475  0.2513  0.0791  0.3299
  153SAPE  H18R16994   3.692  -0.009  49.417  0.4005 -0.0255  0.6107
  153SAPE  H18S16995   3.548   0.046  49.532  1.8602  0.4874  3.3089
  153SAPE  C21916996   3.751   0.111  49.566 -0.3685  0.0508  0.0296
  153SAPE  H19R16997   3.718   0.210  49.605  0.0447  1.4139 -2.8044
  153SAPE  H19S16998   3.846   0.133  49.513 -0.2475 -2.2578 -0.8265
  153SAPE  C22016999   3.762  -0.001  49.676  0.5931  0.2933 -0.5049
  153SAPE  H20R17000   3.809  -0.097  49.646 -1.0668 -1.2930  1.6469
  153SAPE  H20S17001   3.658  -0.031  49.698  0.6484 -0.5561 -1.3000
  153SAPE  H20T17002   3.809   0.033  49.771 -3.4877 -3.0055  3.1145
  153SAPE   C3317003   3.031   1.764  48.097  0.1001  0.0811  0.1086
  153SAPE   H3X17004   2.971   1.691  48.038 -0.4054 -0.6933  1.5399
  153SAPE   H3Y17005   3.140   1.745  48.089  0.6012  2.1570  1.2292
  153SAPE   C3417006   2.969   1.897  48.049 -0.4633  0.3623  0.2390
  153SAPE   H4X17007   2.862   1.918  48.070 -0.5446  0.5328 -0.3158
  153SAPE   H4Y17008   2.962   1.882  47.939 -0.6330  0.6200  0.2122
  153SAPE   C3517009   3.060   2.018  48.081 -0.9391  0.5210 -1.0677
  153SAPE   H5X17010   3.162   2.002  48.039 -0.5759  2.7209 -1.1288
  153SAPE   H5Y17011   3.079   2.025  48.190  2.2025 -1.8647 -1.3155
  153SAPE   C3617012   3.009   2.152  48.036 -0.5476  0.9463 -0.1268
  153SAPE   H6X17013   2.898   2.149  48.043 -0.5518 -1.4530 -0.6026
  153SAPE   H6Y17014   3.044   2.161  47.931 -1.2451  0.5284 -0.4018
  153SAPE   C3717015   3.054   2.272  48.121 -0.1543  0.1963 -0.2691
  153SAPE   H7X17016   3.057   2.256  48.231  2.6477  0.6584 -0.1936
  153SAPE   H7Y17017   2.996   2.360  48.085  0.9666  0.6233 -1.0872
  153SAPE   C3817018   3.206   2.293  48.109 -0.2107  0.0305  0.0379
  153SAPE   H8X17019   3.226   2.345  48.013  0.0497 -2.5488 -1.4063
  153SAPE   H8Y17020   3.259   2.195  48.107 -1.8944 -0.9182 -2.3026
  153SAPE   C3917021   3.252   2.390  48.223  1.0828  0.9730  0.6724
  153SAPE   H9X17022   3.224   2.333  48.313 -0.5793 -1.5066 -1.2735
  153SAPE   H9Y17023   3.191   2.483  48.218 -1.1444 -0.1332  4.0049
  153SAPE  C31017024   3.402   2.421  48.218  0.8553  0.0821 -0.1896
  153SAPE  H10X17025   3.406   2.486  48.128 -4.1644 -2.4259 -2.6598
  153SAPE  H10Y17026   3.460   2.328  48.206  0.8085 -0.0486  0.5435
  153SAPE  C31117027   3.454   2.471  48.350 -1.4161 -0.0373  0.3384
  153SAPE  H11X17028   3.498   2.390  48.411 -3.0296  0.7303  2.6748
  153SAPE  H11Y17029   3.376   2.524  48.410 -2.9610  0.5341 -2.0246
  153SAPE  C31217030   3.560   2.575  48.313  0.4339 -0.1137  0.5136
  153SAPE  H12X17031   3.497   2.650  48.261 -0.8836 -1.8135 -0.4604
  153SAPE  H12Y17032   3.644   2.534  48.252  0.8950 -0.7869  1.5897
  153SAPE  C31317033   3.636   2.639  48.432 -0.6135 -0.3180  1.0559
  153SAPE  H13X17034   3.699   2.568  48.489 -0.8088 -1.1438  0.2773
  153SAPE  H13Y17035   3.561   2.681  48.502 -1.1760  1.0102 -0.2866
  153SAPE  C31417036   3.734   2.753  48.383 -0.2244 -0.5597 -0.5572
  153SAPE  H14X17037   3.659   2.823  48.340  0.8341  0.0531 -1.4483
  153SAPE  H14Y17038   3.794   2.709  48.300  0.8012  1.5263 -0.9910
  153SAPE  C31517039   3.832   2.807  48.489 -0.3526 -0.8901 -0.0613
  153SAPE  H15X17040   3.895   2.727  48.534  0.3501 -0.0239  0.5196
  153SAPE  H15Y17041   3.783   2.854  48.577  0.5656 -1.8885  1.0165
  153SAPE  C31617042   3.926   2.909  48.428 -0.3028  0.5606  0.5808
  153SAPE  H16X17043   3.880   2.989  48.365  1.1250 -0.8823 -2.5240
  153SAPE  H16Y17044   3.989   2.858  48.352 -0.2113 -1.0815  1.7300
  153SAPE  C31717045   4.013   2.970  48.532 -0.3967  0.2593  0.1199
  153SAPE  H17X17046   4.081   2.901  48.586  0.1445  0.2929 -0.5135
  153SAPE  H17Y17047   3.948   3.027  48.602 -2.5279 -0.5554 -1.0987
  153SAPE  C31817048   4.089   3.082  48.466 -0.4873  0.6441  0.3391
  153SAPE  H18X17049   4.017   3.158  48.427 -1.4880 -0.1165  0.6893
  153SAPE  H18Y17050   4.168   3.055  48.392 -0.1900  1.7955  0.2117
  153SAPE  H18Z17051   4.143   3.142  48.543  0.0544  0.1251  0.3721
  154SAPE     N17052   1.551   0.308  51.497 -0.5251  0.4440  0.6984
  154SAPE   HN117053   1.495   0.221  51.512  0.0184 -0.1075 -0.3222
  154SAPE   HN217054   1.623   0.314  51.571  0.5443  1.2193 -0.3639
  154SAPE   HN317055   1.488   0.390  51.491  0.0388  0.9241  1.2132
  154SAPE   C1217056   1.624   0.300  51.360  0.0233 -0.3537 -0.3012
  154SAPE  H12A17057   1.664   0.197  51.347  2.9317  0.7168 -0.7738
  154SAPE  H12B17058   1.706   0.375  51.363 -0.4561  0.2178 -1.0748
  154SAPE   C1117059   1.530   0.328  51.248 -0.6900  0.2965 -0.5480
  154SAPE  H11A17060   1.457   0.244  51.236 -1.1563 -0.0173  3.3531
  154SAPE  H11B17061   1.580   0.325  51.148 -0.4278 -1.4875 -0.4030
  154SAPE     P17062   1.510   0.588  51.274 -0.1773  0.3368  0.1446
  154SAPE   O1317063   1.440   0.672  51.173 -0.2471 -0.4128  0.5559
  154SAPE   O1417064   1.501   0.627  51.418  0.6321  0.0831 -0.4892
  154SAPE   O1217065   1.450   0.445  51.258 -0.0909  0.5059 -0.1140
  154SAPE   O1117066   1.664   0.577  51.240  0.4432 -0.0854  0.1748
  154SAPE    C117067   1.754   0.681  51.196 -0.0224  0.0810  0.7847
  154SAPE    HA17068   1.720   0.770  51.253  0.2540  0.7751 -0.1152
  154SAPE    HB17069   1.858   0.659  51.226 -0.4035  1.0931  3.0788
  154SAPE    C217070   1.756   0.718  51.043 -0.2800 -0.5028 -0.0498
  154SAPE    HS17071   1.654   0.726  51.002  0.0496  2.2030 -0.5048
  154SAPE   O2117072   1.848   0.625  50.976 -0.8545 -0.1130 -0.3862
  154SAPE   C2117073   1.791   0.508  50.941 -0.6992  0.0327 -0.7635
  154SAPE   O2217074   1.673   0.498  50.929 -0.1385  0.4132 -0.4279
  154SAPE   C2217075   1.900   0.400  50.912  0.0288 -0.3144  0.0017
  154SAPE   H2R17076   1.991   0.452  50.874 -0.0419 -1.1281 -1.3690
  154SAPE   H2S17077   1.905   0.344  51.007 -1.0774  2.5781  1.9145
  154SAPE    C317078   1.812   0.862  51.022  0.6628 -0.3352  0.4585
  154SAPE    HX17079   1.792   0.881  50.914  0.7397 -0.9097  0.3366
  154SAPE    HY17080   1.923   0.866  51.027  0.9182  1.0876 -3.0195
  154SAPE   O3117081   1.751   0.961  51.107 -0.4155  0.3509 -0.0718
  154SAPE   C3117082   1.637   1.001  51.060 -0.3319 -0.0903  0.4409
  154SAPE   O3217083   1.568   0.946  50.971 -0.1554  0.0470  0.3101
  154SAPE   C3217084   1.612   1.135  51.122 -0.6823  0.7382  0.0965
  154SAPE   H2X17085   1.696   1.168  51.186 -0.3688  0.8058 -0.3452
  154SAPE   H2Y17086   1.521   1.116  51.183 -0.5621 -1.9499 -0.4213
  154SAPE   C2317087   1.834   0.305  50.798 -0.3339  0.5636 -0.1298
  154SAPE   H3R17088   1.725   0.290  50.813 -0.3697 -0.9989 -1.7250
  154SAPE   H3S17089   1.879   0.206  50.820 -1.8926 -0.3755 -1.0177
  154SAPE   C2417090   1.872   0.349  50.659 -0.3679 -0.1469  0.9123
  154SAPE   H4R17091   1.976   0.328  50.625 -0.2778  0.2464  0.9359
  154SAPE   H4S17092   1.863   0.460  50.653  0.5210 -0.0818  0.6057
  154SAPE   C2517093   1.774   0.302  50.561 -0.7102  0.3265  0.3051
  154SAPE   H5R17094   1.677   0.274  50.603  0.1109  1.0245  2.8580
  154SAPE   C2617095   1.794   0.269  50.432  0.1826  0.8688  0.2164
  154SAPE   H6R17096   1.715   0.209  50.385  0.4777  0.2364  0.5152
  154SAPE   C2717097   1.916   0.294  50.348 -0.1379  0.3441 -0.5500
  154SAPE   H7R17098   1.891   0.249  50.250  3.8836 -0.6081 -1.2877
  154SAPE   H7S17099   1.992   0.225  50.390 -2.5454 -0.9592  1.9848
  154SAPE   C2817100   1.977   0.433  50.338 -0.2272  0.3378 -0.0682
  154SAPE   H8R17101   1.992   0.480  50.437 -1.1927  0.4199  0.0457
  154SAPE   C2917102   1.976   0.515  50.235  0.4546 -0.3981  0.6072
  154SAPE   H9R17103   2.023   0.612  50.255  0.1497  0.1557 -1.2013
  154SAPE  C21017104   1.933   0.496  50.086 -0.5604  0.3399 -0.5702
  154SAPE  H10R17105   1.886   0.594  50.065  1.2800  1.8662  1.9223
  154SAPE  H10S17106   1.855   0.417  50.085 -1.6272  1.3767 -1.5266
  154SAPE  C21117107   2.030   0.453  49.976 -0.2370  1.1370  0.2465
  154SAPE  H11R17108   2.106   0.383  50.013 -1.1805 -0.3271 -0.4883
  154SAPE  C21217109   2.020   0.483  49.848 -0.1237  0.2586  0.5943
  154SAPE  H12R17110   2.103   0.441  49.789 -1.3550  0.5438 -1.4201
  154SAPE  C21317111   1.912   0.556  49.773 -0.1762 -0.8092  0.2447
  154SAPE  H13R17112   1.948   0.660  49.763 -2.1394  0.3320  3.5787
  154SAPE  H13S17113   1.826   0.564  49.843  0.6667  2.4233  1.0492
  154SAPE  C21417114   1.877   0.510  49.636  0.0528 -0.5501 -0.1956
  154SAPE  H14R17115   1.954   0.523  49.558 -1.6214 -2.3370 -2.2764
  154SAPE  C21517116   1.786   0.420  49.603  0.0150 -0.3454  0.4107
  154SAPE  H15R17117   1.768   0.397  49.496 -3.6872 -3.4825  1.4661
  154SAPE  C21617118   1.669   0.366  49.691  0.0138  0.2498  0.1106
  154SAPE  H16R17119   1.576   0.414  49.652 -0.0735 -0.2021 -0.2384
  154SAPE  H16S17120   1.684   0.392  49.798 -2.0594 -1.0463  0.7760
  154SAPE  C21717121   1.650   0.213  49.679  0.0420  0.2155 -0.6573
  154SAPE  H17R17122   1.643   0.182  49.573 -1.1931  0.8509 -0.7707
  154SAPE  H17S17123   1.553   0.200  49.731  1.2416 -0.9516  1.4265
  154SAPE  C21817124   1.761   0.138  49.745 -0.0830 -0.2533  0.0580
  154SAPE  H18R17125   1.861   0.172  49.710 -0.5364 -1.4428 -2.6047
  154SAPE  H18S17126   1.744   0.038  49.701 -1.1271  0.9340 -2.4512
  154SAPE  C21917127   1.746   0.130  49.899 -0.2607 -0.3200 -0.1376
  154SAPE  H19R17128   1.637   0.112  49.917 -1.4926  1.5609 -4.5028
  154SAPE  H19S17129   1.778   0.222  49.951  0.5686 -0.5356 -0.2546
  154SAPE  C22017130   1.819   0.010  49.969 -0.1661 -0.5496  0.0800
  154SAPE  H20R17131   1.815   0.035  50.077 -1.3114  2.0350 -0.4777
  154SAPE  H20S17132   1.930   0.004  49.962  0.2452  3.8073 -0.3015
  154SAPE  H20T17133   1.760  -0.080  49.943  0.0394 -1.0446  1.2713
  154SAPE   C3317134   1.593   1.244  51.010  0.2324 -0.0072  0.2485
  154SAPE   H3X17135   1.593   1.343  51.059  0.1212 -0.0750  0.3874
  154SAPE   H3Y17136   1.486   1.232  50.979 -0.0610  1.8615  0.4252
  154SAPE   C3417137   1.694   1.235  50.891 -0.1297 -0.6806  0.2692
  154SAPE   H4X17138   1.661   1.150  50.828 -0.1764 -1.2173  1.0147
  154SAPE   H4Y17139   1.796   1.216  50.928  0.4187  2.4750  0.6776
  154SAPE   C3517140   1.688   1.356  50.796  0.0936  1.1725 -0.0257
  154SAPE   H5X17141   1.716   1.437  50.866 -1.9776  0.1883  2.0859
  154SAPE   H5Y17142   1.590   1.363  50.744  1.0808 -2.2496 -2.7281
  154SAPE   C3617143   1.789   1.350  50.677  0.0812  0.4789  0.8243
  154SAPE   H6X17144   1.739   1.385  50.585 -2.0601 -0.9674  1.3630
  154SAPE   H6Y17145   1.819   1.245  50.658  1.5352  0.9717  0.2415
  154SAPE   C3717146   1.899   1.455  50.703 -0.7822  0.3484  0.2623
  154SAPE   H7X17147   1.978   1.402  50.761 -0.9447 -1.2451 -0.8997
  154SAPE   H7Y17148   1.857   1.533  50.770  3.6815 -0.2096  4.3312
  154SAPE   C3817149   1.974   1.518  50.580  0.2792 -0.0103  0.0339
  154SAPE   H8X17150   1.901   1.515  50.497  0.0545 -1.5589  0.2550
  154SAPE   H8Y17151   2.061   1.450  50.565  1.3926  0.6192  2.8911
  154SAPE   C3917152   2.035   1.655  50.636  0.5688 -0.0122  0.1194
  154SAPE   H9X17153   2.096   1.640  50.729  0.3853  0.9820  0.4149
  154SAPE   H9Y17154   1.948   1.721  50.659  1.7126  1.8052 -0.5275
  154SAPE  C31017155   2.115   1.725  50.517 -0.4352 -0.0831 -0.3618
  154SAPE  H10X17156   2.171   1.809  50.565  1.4270 -1.6439  0.3520
  154SAPE  H10Y17157   2.042   1.768  50.446  0.6899  5.4625  1.3748
  154SAPE  C31117158   2.214   1.631  50.436  0.9583 -0.2487  0.2738
  154SAPE  H11X17159   2.158   1.556  50.377  1.6880  0.2415 -1.0870
  154SAPE  H11Y17160   2.284   1.582  50.507 -0.1464  0.9241  2.2800
  154SAPE  C31217161   2.308   1.712  50.347  0.6438 -0.0390  0.6309
  154SAPE  H12X17162   2.249   1.748  50.260 -1.7150 -1.8882  1.3662
  154SAPE  H12Y17163   2.376   1.631  50.312  2.1948  0.3085  2.6731
  154SAPE  C31317164   2.386   1.824  50.413  0.0391 -0.5490  0.2828
  154SAPE  H13X17165   2.318   1.907  50.444 -1.0699 -0.9744 -0.9177
  154SAPE  H13Y17166   2.420   1.869  50.317 -2.1331 -0.5280 -0.5332
  154SAPE  C31417167   2.486   1.795  50.530 -0.2308  0.6137 -0.2943
  154SAPE  H14X17168   2.565   1.745  50.469 -0.3315 -0.2352  0.2527
  154SAPE  H14Y17169   2.433   1.736  50.607  1.9838 -1.5105 -0.2851
  154SAPE  C31517170   2.552   1.933  50.572 -0.1518  0.2256  0.2453
  154SAPE  H15X17171   2.481   2.014  50.600  3.1538  3.2189  0.7275
  154SAPE  H15Y17172   2.609   1.972  50.485  0.7662 -1.6667 -0.0528
  154SAPE  C31617173   2.653   1.906  50.675 -1.0440 -0.0025  0.0349
  154SAPE  H16X17174   2.743   1.860  50.628 -2.5263 -2.6148 -0.3777
  154SAPE  H16Y17175   2.613   1.839  50.753 -0.7863 -0.2135 -0.0140
  154SAPE  C31717176   2.705   2.041  50.740 -0.3976  1.1131  0.3832
  154SAPE  H17X17177   2.703   2.127  50.670 -0.2557 -0.0342 -1.0787
  154SAPE  H17Y17178   2.813   2.026  50.764 -0.7823 -0.2097  1.3669
  154SAPE  C31817179   2.630   2.080  50.862 -0.2987 -0.2339  0.1075
  154SAPE  H18X17180   2.664   2.182  50.890 -0.3060  0.1363 -1.1912
  154SAPE  H18Y17181   2.664   2.009  50.941  2.6938  0.8375 -0.0709
  154SAPE  H18Z17182   2.521   2.083  50.846 -0.3225  0.8433  0.3744
  155SAPE     N17183   2.385   1.686  48.240  0.9373  0.6551 -0.0765
  155SAPE   HN117184   2.437   1.609  48.194  1.9904  2.6060 -2.3417
  155SAPE   HN217185   2.289   1.652  48.262  1.9312 -2.8272 -0.5205
  155SAPE   HN317186   2.384   1.775  48.187 -1.1305 -0.7257 -2.5719
  155SAPE   C1217187   2.458   1.713  48.369 -0.3130 -0.1072  0.1909
  155SAPE  H12A17188   2.462   1.628  48.441 -0.7390 -1.1041 -0.9381
  155SAPE  H12B17189   2.413   1.801  48.421  1.9649  1.0498  0.3092
  155SAPE   C1117190   2.610   1.748  48.343  0.2851 -0.2791  0.3110
  155SAPE  H11A17191   2.651   1.661  48.288  2.0847  1.6138 -1.5081
  155SAPE  H11B17192   2.657   1.760  48.443 -0.0879 -0.5930  0.5289
  155SAPE     P17193   2.612   2.015  48.304 -0.2823  0.0936 -0.5361
  155SAPE   O1317194   2.577   2.106  48.194 -0.2583  0.1234  0.3667
  155SAPE   O1417195   2.536   2.034  48.428  0.0625 -0.0498  0.2411
  155SAPE   O1217196   2.609   1.863  48.254 -0.0656 -0.5713  0.7028
  155SAPE   O1117197   2.757   2.056  48.346 -0.5055 -0.7987 -0.5377
  155SAPE    C117198   2.819   1.982  48.455  0.4129 -0.2845  0.5404
  155SAPE    HA17199   2.751   1.973  48.542 -2.0052  0.8552 -1.1285
  155SAPE    HB17200   2.856   1.884  48.418  0.9600  0.7767 -1.9602
  155SAPE    C217201   2.941   2.059  48.493 -0.0906  0.0481 -0.0462
  155SAPE    HS17202   2.987   2.088  48.397  1.4722 -1.2875  0.2628
  155SAPE   O2117203   3.033   1.979  48.576 -0.0815  0.5919  0.4822
  155SAPE   C2117204   3.153   2.033  48.623 -0.0614  0.3092 -0.3609
  155SAPE   O2217205   3.204   2.134  48.577  0.0044  0.7124  0.0698
  155SAPE   C2217206   3.216   1.942  48.729  0.5045  0.2392  0.3197
  155SAPE   H2R17207   3.254   1.848  48.684  3.7519  1.0785  1.0431
  155SAPE   H2S17208   3.307   2.002  48.754 -0.8599  2.0350  1.2086
  155SAPE    C317209   2.896   2.195  48.551 -0.0140  0.3670 -0.2629
  155SAPE    HX17210   2.809   2.232  48.493 -0.7259 -0.3695  0.3005
  155SAPE    HY17211   2.986   2.255  48.530 -0.6768  0.8609 -1.8040
  155SAPE   O3117212   2.867   2.178  48.692 -0.4804 -0.5886  0.6537
  155SAPE   C3117213   2.817   2.297  48.734  0.8742 -0.2134 -0.7786
  155SAPE   O3217214   2.767   2.382  48.664 -0.3196 -0.2366  0.1393
  155SAPE   C3217215   2.856   2.321  48.883  0.3663  0.7742 -0.4450
  155SAPE   H2X17216   2.956   2.278  48.903  0.3953  0.6244 -0.8864
  155SAPE   H2Y17217   2.776   2.277  48.946 -0.4603  2.2254 -0.4381
  155SAPE   C2317218   3.127   1.915  48.854 -0.4953 -0.6683 -0.1419
  155SAPE   H3R17219   3.036   1.853  48.842 -1.4925  0.5241  0.9853
  155SAPE   H3S17220   3.084   2.012  48.886 -1.6438 -1.0943 -0.3417
  155SAPE   C2417221   3.204   1.851  48.973 -0.2966 -0.2690  0.2441
  155SAPE   H4R17222   3.141   1.851  49.065  0.6385 -1.1783  0.9079
  155SAPE   H4S17223   3.282   1.928  48.988 -0.7094  0.0314  0.9568
  155SAPE   C2517224   3.243   1.710  48.941  1.2490  0.1449 -0.0534
  155SAPE   H5R17225   3.307   1.697  48.853  0.4663 -2.5495 -0.3095
  155SAPE   C2617226   3.200   1.603  49.015  0.0100 -0.4131  0.0559
  155SAPE   H6R17227   3.247   1.508  48.985 -1.2273 -0.7289 -0.9463
  155SAPE   C2717228   3.118   1.598  49.138 -0.5877 -0.2126  0.1335
  155SAPE   H7R17229   3.077   1.699  49.157  0.4821  0.1424  0.6444
  155SAPE   H7S17230   3.183   1.554  49.217 -0.5974 -1.6084 -0.6104
  155SAPE   C2817231   3.003   1.521  49.099  0.4348 -0.1200 -0.7369
  155SAPE   H8R17232   2.921   1.587  49.066 -0.9326 -0.9597  0.8431
  155SAPE   C2917233   2.981   1.385  49.096  0.4241 -0.4169 -0.0610
  155SAPE   H9R17234   2.885   1.363  49.047 -0.0097  4.2964 -1.8615
  155SAPE  C21017235   3.070   1.275  49.141  0.3910 -0.2606 -0.1045
  155SAPE  H10R17236   3.064   1.260  49.251 -0.1238  0.4743 -0.0226
  155SAPE  H10S17237   3.174   1.315  49.143  0.9653 -1.6628 -0.4243
  155SAPE  C21117238   3.043   1.138  49.085 -0.1023  0.5784 -0.4463
  155SAPE  H11R17239   2.953   1.089  49.125  1.5525 -0.1599  2.6624
  155SAPE  C21217240   3.134   1.064  49.020 -0.1171  0.5162  0.8319
  155SAPE  H12R17241   3.115   0.956  49.005  0.8179  0.1151  2.3822
  155SAPE  C21317242   3.270   1.102  48.975 -0.1585  0.1569 -1.0309
  155SAPE  H13R17243   3.282   1.213  48.968 -1.1002  0.2468 -1.4255
  155SAPE  H13S17244   3.279   1.060  48.873  0.4185  0.4072 -1.0876
  155SAPE  C21417245   3.370   1.047  49.073  0.2899  0.8776  0.1643
  155SAPE  H14R17246   3.326   0.978  49.147  3.1203  0.1125  1.2651
  155SAPE  C21517247   3.501   1.057  49.063 -0.2397  0.4620  0.4767
  155SAPE  H15R17248   3.565   1.021  49.145  0.5890  1.4819  0.2878
  155SAPE  C21617249   3.580   1.126  48.951 -0.7237 -0.1118 -0.7585
  155SAPE  H16R17250   3.508   1.164  48.875 -2.1944 -1.3778 -0.0311
  155SAPE  H16S17251   3.646   1.051  48.902 -1.6513 -1.1351 -0.4688
  155SAPE  C21717252   3.654   1.252  49.004 -1.1360  0.1141 -0.1635
  155SAPE  H17R17253   3.728   1.284  48.928 -3.2555  3.3542 -1.0725
  155SAPE  H17S17254   3.704   1.227  49.100 -3.6613  0.7308  1.4075
  155SAPE  C21817255   3.566   1.376  49.006  0.7751  0.4504  0.5338
  155SAPE  H18R17256   3.474   1.361  49.066  0.3139 -1.0080 -0.5002
  155SAPE  H18S17257   3.523   1.378  48.904 -1.0209  0.3629  1.2656
  155SAPE  C21917258   3.625   1.511  49.045 -0.4531  0.5616 -0.4679
  155SAPE  H19R17259   3.729   1.484  49.074 -0.1704  1.7205 -0.3262
  155SAPE  H19S17260   3.557   1.523  49.133 -0.6913  0.9800 -0.7055
  155SAPE  C22017261   3.632   1.629  48.945  0.6118  0.3841  0.1165
  155SAPE  H20R17262   3.542   1.645  48.882  1.6484  0.4498 -1.4051
  155SAPE  H20S17263   3.715   1.602  48.877  2.4593  2.2048  1.5404
  155SAPE  H20T17264   3.665   1.725  48.990 -1.6860  0.8271  0.9994
  155SAPE   C3317265   2.837   2.467  48.915 -0.6301 -0.5692 -0.2635
  155SAPE   H3X17266   2.731   2.493  48.895 -0.8444 -1.6775 -0.6647
  155SAPE   H3Y17267   2.903   2.545  48.871 -1.1122  1.6302  2.6460
  155SAPE   C3417268   2.842   2.492  49.068  0.2453  0.6493 -0.6675
  155SAPE   H4X17269   2.754   2.439  49.111  1.4144 -0.7798  0.0450
  155SAPE   H4Y17270   2.835   2.603  49.073  0.2894  0.6456 -0.5252
  155SAPE   C3517271   2.966   2.442  49.156  0.5251  1.0567 -0.2226
  155SAPE   H5X17272   2.967   2.513  49.242 -0.4125 -0.5779  1.1909
  155SAPE   H5Y17273   3.059   2.456  49.096  1.5848  0.8224  1.3228
  155SAPE   C3617274   2.958   2.292  49.211 -0.1910  0.5909  0.0008
  155SAPE   H6X17275   3.060   2.273  49.251 -0.9479  0.6664  2.1166
  155SAPE   H6Y17276   2.924   2.216  49.138 -0.7755  0.7432  0.1047
  155SAPE   C3717277   2.879   2.276  49.345 -0.0762 -0.0145  0.0316
  155SAPE   H7X17278   2.779   2.325  49.340  0.5327  1.3488  0.6550
  155SAPE   H7Y17279   2.937   2.325  49.425 -0.5862 -0.2119  0.5272
  155SAPE   C3817280   2.848   2.127  49.389  0.5344  0.1220  0.7058
  155SAPE   H8X17281   2.817   2.113  49.495  3.2340 -2.8019  1.2558
  155SAPE   H8Y17282   2.946   2.078  49.376 -0.5423 -1.8410 -0.4224
  155SAPE   C3917283   2.752   2.049  49.288 -0.4201 -0.4188 -0.2885
  155SAPE   H9X17284   2.787   2.053  49.182  0.8458  0.8230  0.1477
  155SAPE   H9Y17285   2.661   2.110  49.270 -0.0024 -0.1318 -1.5200
  155SAPE  C31017286   2.705   1.907  49.316  0.7453 -0.3194 -0.6251
  155SAPE  H10X17287   2.634   1.869  49.240  1.5702 -0.8441 -1.1504
  155SAPE  H10Y17288   2.654   1.905  49.415  2.8777 -0.8397  0.5429
  155SAPE  C31117289   2.809   1.800  49.322  0.5725  0.2105 -1.1232
  155SAPE  H11X17290   2.871   1.833  49.409 -0.1235 -0.6989 -0.2593
  155SAPE  H11Y17291   2.859   1.795  49.223 -0.8838 -0.8732 -1.8454
  155SAPE  C31217292   2.761   1.661  49.367  0.6618  0.2747  1.0158
  155SAPE  H12X17293   2.825   1.576  49.335 -1.6224 -1.2662  0.2980
  155SAPE  H12Y17294   2.665   1.644  49.313  1.0493 -0.7904  0.6498
  155SAPE  C31317295   2.726   1.647  49.514 -1.5808  0.7026 -0.7092
  155SAPE  H13X17296   2.684   1.545  49.527 -0.3844  0.1531 -1.0036
  155SAPE  H13Y17297   2.653   1.724  49.547 -1.2106  0.6391  0.2728
  155SAPE  C31417298   2.848   1.639  49.607  1.1608 -0.2316  0.4208
  155SAPE  H14X17299   2.934   1.625  49.538  0.3547 -2.4855 -0.2311
  155SAPE  H14Y17300   2.841   1.542  49.662  0.0988 -0.1807  0.3940
  155SAPE  C31517301   2.874   1.757  49.700  0.2130 -0.3466 -1.0666
  155SAPE  H15X17302   2.787   1.784  49.765 -1.7359 -0.5483 -3.4202
  155SAPE  H15Y17303   2.888   1.845  49.633 -2.7336  1.3299  0.2646
  155SAPE  C31617304   2.991   1.723  49.788 -1.2080 -0.1939 -0.7533
  155SAPE  H16X17305   3.046   1.815  49.817 -0.6930  0.1110 -2.5539
  155SAPE  H16Y17306   3.075   1.671  49.738  1.1354  1.4269  1.3043
  155SAPE  C31717307   2.961   1.651  49.913  0.4916  0.0928 -0.7219
  155SAPE  H17X17308   2.938   1.544  49.890 -0.0891  0.1791 -0.5441
  155SAPE  H17Y17309   2.866   1.683  49.960 -0.0416 -0.4919 -1.3678
  155SAPE  C31817310   3.080   1.659  50.005 -1.0415 -0.4098  0.0611
  155SAPE  H18X17311   3.063   1.586  50.087  3.0725 -0.6900  0.8907
  155SAPE  H18Y17312   3.088   1.761  50.049 -0.5081 -0.0550 -0.8475
  155SAPE  H18Z17313   3.164   1.633  49.937 -1.1262 -0.3420 -0.0692
  156SAPE     N17314   2.498   2.393  43.795 -0.0801  0.7723  0.3710
  156SAPE   HN117315   2.406   2.427  43.830 -1.2150 -2.1581  0.4996
  156SAPE   HN217316   2.491   2.325  43.717  0.8089  1.5210 -0.4084
  156SAPE   HN317317   2.538   2.341  43.875 -0.8062 -3.3346 -1.6577
  156SAPE   C1217318   2.574   2.514  43.755 -0.8753  0.0696  0.1181
  156SAPE  H12A17319   2.514   2.565  43.676 -0.3632 -1.4763 -1.3364
  156SAPE  H12B17320   2.669   2.472  43.713 -0.4712 -0.6528  1.6915
  156SAPE   C1117321   2.597   2.611  43.869 -0.2629 -0.0764 -0.2314
  156SAPE  H11A17322   2.495   2.654  43.883 -0.6413 -1.4382  1.5310
  156SAPE  H11B17323   2.666   2.692  43.836  3.3484 -3.6104 -2.1792
  156SAPE     P17324   2.582   2.555  44.121  0.2059 -0.2854  0.1145
  156SAPE   O1317325   2.435   2.528  44.105 -0.7847  0.1244  0.1149
  156SAPE   O1417326   2.642   2.482  44.231 -0.8938  0.4867 -0.3676
  156SAPE   O1217327   2.647   2.537  43.979 -0.1229 -0.4627  0.1647
  156SAPE   O1117328   2.612   2.711  44.130  0.2909 -0.8082  0.0983
  156SAPE    C117329   2.740   2.768  44.151 -0.3559 -0.7378  0.2999
  156SAPE    HA17330   2.809   2.689  44.187  0.7352 -0.3130 -0.7794
  156SAPE    HB17331   2.781   2.805  44.055  0.8183 -1.3839  0.5377
  156SAPE    C217332   2.727   2.875  44.267 -0.6128 -0.2445 -0.3855
  156SAPE    HS17333   2.662   2.825  44.342 -4.0720  2.9059 -0.9974
  156SAPE   O2117334   2.670   2.997  44.215  0.2103  0.7022  0.7832
  156SAPE   C2117335   2.563   3.038  44.276  0.0258 -0.7037 -0.0048
  156SAPE   O2217336   2.509   2.980  44.368  0.0121  0.7280 -0.4495
  156SAPE   C2217337   2.511   3.170  44.216  0.1913  0.5199  0.1670
  156SAPE   H2R17338   2.581   3.205  44.136  0.2607 -0.8401 -0.3957
  156SAPE   H2S17339   2.406   3.143  44.191  0.8966 -2.0175 -0.3242
  156SAPE    C317340   2.874   2.895  44.348 -0.4565 -0.8807 -0.4047
  156SAPE    HX17341   2.865   2.979  44.420  0.5971 -0.6115 -0.5676
  156SAPE    HY17342   2.953   2.931  44.278  0.2661 -0.5417  0.5623
  156SAPE   O3117343   2.912   2.773  44.413  0.4525  0.1524  0.2625
  156SAPE   C3117344   2.875   2.756  44.533  0.0269  0.0700  0.3804
  156SAPE   O3217345   2.801   2.824  44.599  0.0446 -0.2392  0.0134
  156SAPE   C3217346   2.935   2.625  44.586 -0.3613  0.5229  0.3116
  156SAPE   H2X17347   2.920   2.552  44.503 -0.3732  3.7341 -2.7166
  156SAPE   H2Y17348   2.885   2.596  44.681  1.0782 -1.6992  0.4717
  156SAPE   C2317349   2.505   3.289  44.321 -0.1194  0.2751  0.5384
  156SAPE   H3R17350   2.444   3.249  44.406  2.0122 -2.7962  0.8175
  156SAPE   H3S17351   2.443   3.370  44.278  0.0108 -0.9563 -2.1159
  156SAPE   C2417352   2.639   3.331  44.377 -0.0789 -0.1930  0.1880
  156SAPE   H4R17353   2.685   3.243  44.428  1.9191 -0.1699 -1.4412
  156SAPE   H4S17354   2.609   3.394  44.463 -1.1989 -0.8561  0.2970
  156SAPE   C2517355   2.723   3.407  44.277  0.3908 -0.4727  0.4977
  156SAPE   H5R17356   2.677   3.497  44.234 -2.7038 -1.9740  0.3666
  156SAPE   C2617357   2.852   3.382  44.242  0.6216 -0.1615 -0.0583
  156SAPE   H6R17358   2.891   3.448  44.163 -1.1298 -1.6431 -2.3125
  156SAPE   C2717359   2.927   3.261  44.276 -0.1688 -0.6376 -0.3192
  156SAPE   H7R17360   2.941   3.205  44.181 -0.3037 -2.0204  0.4499
  156SAPE   H7S17361   2.869   3.194  44.343 -1.2293 -0.5015 -1.0829
  156SAPE   C2817362   3.065   3.301  44.332 -0.4589 -0.2278 -0.4618
  156SAPE   H8R17363   3.153   3.301  44.267  0.6818  3.5009  0.8182
  156SAPE   C2917364   3.089   3.327  44.465  0.3295 -0.0918  0.1115
  156SAPE   H9R17365   3.192   3.361  44.483  1.1556 -2.4578  0.3069
  156SAPE  C21017366   2.985   3.324  44.571 -0.2374 -0.1591 -0.1414
  156SAPE  H10R17367   2.895   3.381  44.542  0.7429  0.8061 -1.3904
  156SAPE  H10S17368   3.027   3.382  44.656 -1.2064 -1.1157  1.0380
  156SAPE  C21117369   2.962   3.180  44.621 -0.1891 -0.4067  0.2619
  156SAPE  H11R17370   3.031   3.101  44.588  0.4439 -1.0017  2.7909
  156SAPE  C21217371   2.856   3.139  44.706  0.9538 -0.5974 -0.5864
  156SAPE  H12R17372   2.853   3.036  44.745  2.1663 -0.2030  0.6228
  156SAPE  C21317373   2.755   3.230  44.762 -0.4566 -0.3832  0.2752
  156SAPE  H13R17374   2.655   3.190  44.735 -1.0228  0.4388  1.0888
  156SAPE  H13S17375   2.757   3.327  44.707  2.5472  0.3642  1.5161
  156SAPE  C21417376   2.780   3.248  44.909 -0.5542  0.3152  0.4001
  156SAPE  H14R17377   2.755   3.159  44.969  0.3228  0.1170  0.4889
  156SAPE  C21517378   2.802   3.363  44.963  0.4907 -0.7735 -0.6572
  156SAPE  H15R17379   2.812   3.354  45.072 -1.8534 -0.4521 -0.3606
  156SAPE  C21617380   2.816   3.504  44.915 -0.6044 -0.0473  0.0972
  156SAPE  H16R17381   2.727   3.556  44.957 -0.5025 -0.2911  0.6216
  156SAPE  H16S17382   2.815   3.512  44.804  2.6033 -1.4817 -0.1360
  156SAPE  C21717383   2.951   3.554  44.973  0.0958  0.1004  0.8794
  156SAPE  H17R17384   3.036   3.500  44.925  2.3301  2.9701  1.2640
  156SAPE  H17S17385   2.945   3.550  45.084 -0.1635  0.8239  0.8975
  156SAPE  C21817386   2.969   3.702  44.945  0.1299 -0.0554  0.0808
  156SAPE  H18R17387   2.888   3.753  45.002  1.2470  2.2621 -0.3014
  156SAPE  H18S17388   2.954   3.734  44.840 -0.5256  2.9663  1.0038
  156SAPE  C21917389   3.111   3.758  44.984 -0.2701  0.0545  0.1972
  156SAPE  H19R17390   3.180   3.703  44.916 -0.6569 -1.1083  0.7195
  156SAPE  H19S17391   3.127   3.714  45.085  0.8776 -1.2397 -0.5093
  156SAPE  C22017392   3.131   3.912  44.984 -0.2649  0.1936  0.1737
  156SAPE  H20R17393   3.044   3.979  45.000 -0.0229  0.7212 -0.6638
  156SAPE  H20S17394   3.179   3.943  44.889 -3.8302  1.9056 -1.2213
  156SAPE  H20T17395   3.210   3.939  45.058 -0.8353 -2.1818  1.7581
  156SAPE   C3317396   3.084   2.631  44.627 -0.0989 -0.1038 -0.5640
  156SAPE   H3X17397   3.095   2.694  44.718  3.9426  0.3090 -1.1807
  156SAPE   H3Y17398   3.153   2.676  44.553 -1.6161  0.8150 -1.4692
  156SAPE   C3417399   3.133   2.491  44.656 -0.2429  0.0827 -0.2966
  156SAPE   H4X17400   3.102   2.416  44.580  2.1790 -1.6746  0.3292
  156SAPE   H4Y17401   3.098   2.444  44.751  2.3754 -1.6391 -0.0896
  156SAPE   C3517402   3.287   2.496  44.658 -0.4884  0.2336 -0.6251
  156SAPE   H5X17403   3.328   2.401  44.697  1.4463  1.2986  0.0801
  156SAPE   H5Y17404   3.334   2.565  44.732  1.7159 -1.3732 -0.4350
  156SAPE   C3617405   3.360   2.508  44.524  0.2664  0.5763  0.1423
  156SAPE   H6X17406   3.348   2.610  44.482  1.9848 -0.4794 -3.3516
  156SAPE   H6Y17407   3.303   2.449  44.449 -2.0805  2.0454  0.6770
  156SAPE   C3717408   3.503   2.454  44.527  0.0493 -0.1201 -0.5880
  156SAPE   H7X17409   3.545   2.475  44.426 -0.4261  0.1196 -0.7381
  156SAPE   H7Y17410   3.495   2.344  44.541  2.1313 -0.2049  0.3346
  156SAPE   C3817411   3.602   2.526  44.622  0.4201 -0.2055  0.4403
  156SAPE   H8X17412   3.698   2.472  44.630  0.9463  0.6985  0.3710
  156SAPE   H8Y17413   3.561   2.512  44.725  1.7174 -2.9418  0.6694
  156SAPE   C3917414   3.632   2.672  44.582  0.9570 -0.0141  0.2885
  156SAPE   H9X17415   3.532   2.713  44.607  0.6094 -0.9096  0.3827
  156SAPE   H9Y17416   3.661   2.694  44.476  1.3042  0.2817  0.4402
  156SAPE  C31017417   3.737   2.740  44.666 -0.5251 -0.7043 -0.0383
  156SAPE  H10X17418   3.836   2.697  44.638  0.1959 -1.8003  3.6250
  156SAPE  H10Y17419   3.728   2.732  44.777  3.6151 -1.2388  0.4455
  156SAPE  C31117420   3.757   2.889  44.616  0.5745 -0.7515  0.3766
  156SAPE  H11X17421   3.661   2.946  44.620  1.0104 -0.0656  1.7322
  156SAPE  H11Y17422   3.797   2.883  44.512  1.7234  2.4467  0.5367
  156SAPE  C31217423   3.865   2.974  44.689 -0.2476 -0.3508  0.1854
  156SAPE  H12X17424   3.962   2.920  44.683 -0.4906 -0.6401 -2.1077
  156SAPE  H12Y17425   3.837   2.972  44.796  1.1395  1.1488  0.6267
  156SAPE  C31317426   3.862   3.121  44.645  0.1113 -0.1981  0.8032
  156SAPE  H13X17427   3.758   3.158  44.653  0.1994  0.8003 -1.6288
  156SAPE  H13Y17428   3.889   3.122  44.537 -1.5666 -0.2784  0.3652
  156SAPE  C31417429   3.944   3.218  44.724 -0.2914  0.0750 -0.3892
  156SAPE  H14X17430   4.045   3.175  44.709  0.9665  2.4645  0.6740
  156SAPE  H14Y17431   3.909   3.216  44.829  1.8719  0.1909  0.3840
  156SAPE  C31517432   3.944   3.365  44.673  0.1252  0.1541  0.3160
  156SAPE  H15X17433   3.990   3.356  44.572 -0.7684  2.7527 -0.4173
  156SAPE  H15Y17434   3.999   3.438  44.736  2.7193 -1.4144  0.0071
  156SAPE  C31617435   3.809   3.421  44.637 -0.0665 -0.3909  0.7553
  156SAPE  H16X17436   3.756   3.434  44.733 -0.8844 -0.6688  0.3490
  156SAPE  H16Y17437   3.738   3.359  44.578 -0.7018 -0.5379  1.6647
  156SAPE  C31717438   3.813   3.560  44.568  0.4941  0.2048  0.1923
  156SAPE  H17X17439   3.884   3.618  44.631  0.5679 -0.9372  1.1964
  156SAPE  H17Y17440   3.711   3.604  44.572  0.6319  0.9251 -2.3129
  156SAPE  C31817441   3.850   3.553  44.421 -1.4674 -0.4673 -0.2304
  156SAPE  H18X17442   3.890   3.654  44.395 -3.1580  0.0971 -0.7658
  156SAPE  H18Y17443   3.766   3.542  44.350 -1.3583  1.0012 -0.6322
  156SAPE  H18Z17444   3.925   3.475  44.396 -0.0671  0.5052  0.7006
  157SAPE     N17445   2.216   0.302  41.991 -0.2849 -0.6949 -0.4767
  157SAPE   HN117446   2.315   0.313  42.021 -0.2262 -0.3470 -0.7928
  157SAPE   HN217447   2.177   0.228  42.054 -1.2918  0.0520 -0.1924
  157SAPE   HN317448   2.211   0.271  41.892 -1.1476  1.4139 -1.1464
  157SAPE   C1217449   2.146   0.441  41.997  0.6693 -0.1321 -0.0899
  157SAPE  H12A17450   2.035   0.433  41.989  0.7290  0.4756 -1.9191
  157SAPE  H12B17451   2.181   0.505  41.913  0.6113  0.2764  0.1957
  157SAPE   C1117452   2.180   0.512  42.127  0.6491  0.7353  0.3786
  157SAPE  H11A17453   2.105   0.592  42.139  0.4646  0.2757  2.8938
  157SAPE  H11B17454   2.281   0.558  42.129  0.4407  1.1666  1.1246
  157SAPE     P17455   2.058   0.407  42.339  0.3371 -0.4112  0.0436
  157SAPE   O1317456   1.928   0.380  42.272 -0.3425  0.2884 -0.0972
  157SAPE   O1417457   2.089   0.331  42.459 -0.6947  0.1002  0.3044
  157SAPE   O1217458   2.173   0.413  42.230 -0.3140  0.3555  0.1544
  157SAPE   O1117459   2.057   0.568  42.371  0.6350 -0.2376 -0.2234
  157SAPE    C117460   2.173   0.625  42.426  0.3336 -1.2936 -0.9155
  157SAPE    HA17461   2.249   0.553  42.462  0.9660 -0.0033  0.4571
  157SAPE    HB17462   2.230   0.684  42.351  2.0001  0.4232  1.5221
  157SAPE    C217463   2.143   0.734  42.540  0.0608 -1.0979 -0.1353
  157SAPE    HS17464   2.195   0.699  42.632  1.0701  2.4445  0.7670
  157SAPE   O2117465   2.000   0.758  42.565  0.0524 -0.1610  0.0823
  157SAPE   C2117466   1.941   0.662  42.637  0.6252 -0.2467  0.1895
  157SAPE   O2217467   1.998   0.560  42.680  0.0732  0.2891  0.2615
  157SAPE   C2217468   1.790   0.686  42.624  0.0855 -0.7429 -0.8395
  157SAPE   H2R17469   1.769   0.762  42.702  0.8915 -1.5498  0.1989
  157SAPE   H2S17470   1.759   0.731  42.528  2.0620 -1.7201 -2.0005
  157SAPE    C317471   2.205   0.869  42.499 -0.5961 -0.4979  1.0555
  157SAPE    HX17472   2.168   0.948  42.568  0.0068  1.2640 -0.5510
  157SAPE    HY17473   2.168   0.883  42.395  0.7576  1.2569  0.7548
  157SAPE   O3117474   2.346   0.878  42.510 -0.3920 -0.1997 -0.0663
  157SAPE   C3117475   2.409   0.966  42.423 -0.7659  0.1480 -0.4872
  157SAPE   O3217476   2.354   1.016  42.328 -0.0382  0.3223 -0.2600
  157SAPE   C3217477   2.552   0.988  42.477 -0.1388  0.0784  0.4286
  157SAPE   H2X17478   2.572   1.097  42.479  0.4487 -0.0366  2.7118
  157SAPE   H2Y17479   2.628   0.952  42.404 -0.1719 -0.7729  0.7995
  157SAPE   C2317480   1.712   0.561  42.660 -0.5681 -0.0453 -0.0150
  157SAPE   H3R17481   1.605   0.582  42.678 -0.4405  0.6331 -0.0190
  157SAPE   H3S17482   1.755   0.535  42.759 -2.1892 -0.7650  0.5231
  157SAPE   C2417483   1.722   0.450  42.552  0.5969 -0.9744 -0.0468
  157SAPE   H4R17484   1.777   0.491  42.464 -3.0046  0.4584 -1.8625
  157SAPE   H4S17485   1.617   0.430  42.520  0.8469 -1.7606 -0.3864
  157SAPE   C2517486   1.793   0.323  42.611  1.0042  0.0262 -0.5051
  157SAPE   H5R17487   1.895   0.309  42.571  0.9043  2.0830 -1.6282
  157SAPE   C2617488   1.750   0.242  42.709 -0.4628 -0.2456  0.1011
  157SAPE   H6R17489   1.818   0.155  42.709  0.6407  0.5735 -1.1751
  157SAPE   C2717490   1.624   0.239  42.790 -0.4411  0.2847 -0.2389
  157SAPE   H7R17491   1.566   0.157  42.742 -1.3120  0.8050 -0.0915
  157SAPE   H7S17492   1.564   0.331  42.770 -1.4119  0.1485  1.7497
  157SAPE   C2817493   1.632   0.228  42.940  0.6629 -0.2916  0.0358
  157SAPE   H8R17494   1.616   0.124  42.973  0.5919 -0.3369 -0.1419
  157SAPE   C2917495   1.630   0.316  43.039 -0.4603  0.7643 -0.9258
  157SAPE   H9R17496   1.635   0.270  43.139  2.3117 -1.7914 -2.0740
  157SAPE  C21017497   1.618   0.463  43.023  0.2665 -0.0584 -0.2557
  157SAPE  H10R17498   1.669   0.495  42.929 -2.4182  1.5160 -1.2985
  157SAPE  H10S17499   1.657   0.520  43.110  0.6341 -2.0659  0.9559
  157SAPE  C21117500   1.478   0.510  43.015  0.5456 -0.2902  0.2889
  157SAPE  H11R17501   1.408   0.430  42.987 -1.3412  0.7464  1.8338
  157SAPE  C21217502   1.425   0.628  43.053  0.2299  0.1791 -0.2538
  157SAPE  H12R17503   1.317   0.645  43.048  0.0662 -0.4209  0.8801
  157SAPE  C21317504   1.508   0.746  43.099  0.2123 -0.1011  0.4414
  157SAPE  H13R17505   1.491   0.837  43.037  0.3674 -1.2240 -1.3084
  157SAPE  H13S17506   1.617   0.730  43.091  0.2397  0.5808 -0.7687
  157SAPE  C21417507   1.485   0.782  43.247  0.2489 -0.6461 -0.1043
  157SAPE  H14R17508   1.567   0.752  43.314  0.3596 -0.5516 -0.1934
  157SAPE  C21517509   1.388   0.865  43.299  0.4141  0.5197  0.6056
  157SAPE  H15R17510   1.387   0.882  43.408 -0.3030  1.0597  0.5223
  157SAPE  C21617511   1.268   0.902  43.222  0.7054 -0.7588  1.4523
  157SAPE  H16R17512   1.193   0.825  43.194  0.7363 -1.5672  3.4250
  157SAPE  H16S17513   1.300   0.978  43.147  0.9384 -0.6383  1.6751
  157SAPE  C21717514   1.167   0.982  43.307 -0.3358 -0.5066 -0.1071
  157SAPE  H17R17515   1.102   1.030  43.231  1.0522  1.9357  0.1299
  157SAPE  H17S17516   1.218   1.071  43.350  0.5397  0.4116 -2.8225
  157SAPE  C21817517   1.078   0.907  43.404 -0.3509  0.3896  0.3691
  157SAPE  H18R17518   1.123   0.849  43.487  2.8882 -0.9334 -2.1205
  157SAPE  H18S17519   1.008   0.846  43.343  1.0075  0.0462 -0.8658
  157SAPE  C21917520   0.989   0.990  43.493 -0.7426  0.0180  0.3566
  157SAPE  H19R17521   0.923   1.059  43.437 -1.8030 -1.3360 -0.1213
  157SAPE  H19S17522   1.061   1.056  43.545 -1.7301  1.3062  0.1259
  157SAPE  C22017523   0.899   0.909  43.583  0.3450  0.1415  0.0136
  157SAPE  H20R17524   0.954   0.832  43.641 -0.5880  0.3736  1.2290
  157SAPE  H20S17525   0.822   0.859  43.521 -0.9197  1.2781  0.6147
  157SAPE  H20T17526   0.842   0.980  43.646 -0.4303  0.2825 -0.8309
  157SAPE   C3317527   2.581   0.932  42.621 -0.0367 -0.1295 -0.2423
  157SAPE   H3X17528   2.542   0.830  42.642 -0.3915  0.1058  0.2369
  157SAPE   H3Y17529   2.519   0.993  42.690  1.0359  1.7432 -0.8501
  157SAPE   C3417530   2.734   0.951  42.657  0.4344  0.3758 -0.1157
  157SAPE   H4X17531   2.782   1.043  42.617 -1.7363  1.6884  0.1608
  157SAPE   H4Y17532   2.782   0.860  42.614  2.5693  1.5522 -0.3609
  157SAPE   C3517533   2.764   0.964  42.801  0.7980  0.5870 -0.4035
  157SAPE   H5X17534   2.719   0.876  42.853  0.6753  0.1491 -1.2330
  157SAPE   H5Y17535   2.719   1.054  42.847 -1.1201 -0.4184 -0.1616
  157SAPE   C3617536   2.913   0.956  42.839 -0.2333  0.3176  0.0818
  157SAPE   H6X17537   2.964   1.042  42.789 -0.9272 -0.2327 -1.6680
  157SAPE   H6Y17538   2.957   0.862  42.800  1.0609  1.4605 -1.3899
  157SAPE   C3717539   2.925   0.974  42.994 -0.1426 -0.4139 -0.5441
  157SAPE   H7X17540   2.844   0.923  43.050 -2.9545  4.1968  0.1202
  157SAPE   H7Y17541   2.910   1.083  43.013 -1.1734 -0.9092  1.8341
  157SAPE   C3817542   3.063   0.926  43.051  0.7658 -0.7778 -0.6253
  157SAPE   H8X17543   3.145   0.993  43.018  0.4889  0.3293  0.8268
  157SAPE   H8Y17544   3.083   0.821  43.019 -0.0959 -0.5677 -1.9387
  157SAPE   C3917545   3.059   0.936  43.203  0.3655  0.3326 -0.6078
  157SAPE   H9X17546   2.968   0.887  43.243 -0.6493  2.4360 -0.2331
  157SAPE   H9Y17547   3.043   1.043  43.229  0.0869  0.1704 -0.1052
  157SAPE  C31017548   3.202   0.900  43.255  0.4569  0.2950  0.2492
  157SAPE  H10X17549   3.280   0.961  43.206 -2.8286  1.9560 -3.4027
  157SAPE  H10Y17550   3.227   0.793  43.235  0.1716 -0.2760  2.6887
  157SAPE  C31117551   3.227   0.913  43.403  0.1392 -0.0332  0.0741
  157SAPE  H11X17552   3.193   1.012  43.441 -0.9320 -0.0195 -0.8901
  157SAPE  H11Y17553   3.336   0.913  43.426  0.0189 -0.7502  0.6909
  157SAPE  C31217554   3.153   0.809  43.486 -0.4266 -0.0268 -0.2081
  157SAPE  H12X17555   3.173   0.702  43.463  1.3730  0.3629 -0.6816
  157SAPE  H12Y17556   3.044   0.829  43.477 -0.5319 -0.0390  0.9311
  157SAPE  C31317557   3.202   0.823  43.630 -0.2936  0.4136 -0.4761
  157SAPE  H13X17558   3.211   0.928  43.666  1.3036 -0.5982  2.3590
  157SAPE  H13Y17559   3.296   0.765  43.639  0.1156  1.1170 -0.0802
  157SAPE  C31417560   3.101   0.767  43.723  1.2578 -0.0807  0.4958
  157SAPE  H14X17561   3.083   0.659  43.703  0.1472  0.1217  0.3252
  157SAPE  H14Y17562   3.003   0.815  43.702  0.1538 -1.9020  1.1718
  157SAPE  C31517563   3.129   0.788  43.868 -0.4194  0.1350 -0.7778
  157SAPE  H15X17564   3.048   0.741  43.929  0.0247 -0.3255 -0.5428
  157SAPE  H15Y17565   3.129   0.898  43.886 -0.0385  0.4413 -2.4802
  157SAPE  C31617566   3.257   0.718  43.905 -0.2363 -0.3290 -0.2851
  157SAPE  H16X17567   3.348   0.747  43.849  1.9654  1.6641  3.8277
  157SAPE  H16Y17568   3.235   0.611  43.883 -1.4022  0.4274 -3.1663
  157SAPE  C31717569   3.301   0.751  44.050  1.7912  0.5513 -0.2009
  157SAPE  H17X17570   3.209   0.781  44.105  2.4914  0.8001  0.8674
  157SAPE  H17Y17571   3.356   0.847  44.044  2.1384  0.2845 -1.6169
  157SAPE  C31817572   3.381   0.647  44.131  0.5431  0.5066 -0.3825
  157SAPE  H18X17573   3.341   0.548  44.161 -2.2521  1.8696  0.7034
  157SAPE  H18Y17574   3.405   0.696  44.228 -1.0066  0.2424  0.1506
  157SAPE  H18Z17575   3.479   0.631  44.080  0.5437  0.9162 -0.5144
  158SAPE     N17576   0.611   2.334  53.264 -0.5792 -0.6274 -0.2937
  158SAPE   HN117577   0.574   2.422  53.223 -0.3959 -1.5387 -2.5199
  158SAPE   HN217578   0.567   2.253  53.218  0.6297 -0.0721 -2.5800
  158SAPE   HN317579   0.623   2.339  53.367  2.4290 -0.6070 -0.5537
  158SAPE   C1217580   0.761   2.337  53.226  0.9814  0.0241 -0.4516
  158SAPE  H12A17581   0.790   2.230  53.235 -0.4104 -0.4105 -0.8642
  158SAPE  H12B17582   0.816   2.399  53.301  0.2957  0.4117 -0.2644
  158SAPE   C1117583   0.797   2.386  53.086 -0.3817  0.0422  0.1696
  158SAPE  H11A17584   0.908   2.391  53.077 -0.1424  0.2756  2.6382
  158SAPE  H11B17585   0.761   2.491  53.082  0.3775  0.5640  3.7736
  158SAPE     P17586   0.702   2.352  52.841 -0.5206 -0.0199 -0.3808
  158SAPE   O1317587   0.594   2.450  52.850 -0.6236  0.6607  0.1467
  158SAPE   O1417588   0.829   2.404  52.775 -0.7200  0.0039 -0.2202
  158SAPE   O1217589   0.730   2.302  52.989 -0.4303  0.0609  0.3064
  158SAPE   O1117590   0.636   2.248  52.748  0.1507 -0.1326  0.1550
  158SAPE    C117591   0.653   2.108  52.760  0.5239 -0.1895  0.6993
  158SAPE    HA17592   0.632   2.074  52.656  2.7847  1.7120 -0.4964
  158SAPE    HB17593   0.753   2.071  52.792  1.5201  1.1762 -0.6473
  158SAPE    C217594   0.556   2.041  52.861 -0.3065  0.1630 -0.8995
  158SAPE    HS17595   0.522   1.944  52.817 -0.0508 -0.9406  1.1867
  158SAPE   O2117596   0.437   2.120  52.871 -0.5396 -0.0085 -0.2111
  158SAPE   C2117597   0.369   2.124  52.766 -0.3220  0.5293 -0.1724
  158SAPE   O2217598   0.363   2.058  52.664  0.4545  0.2789 -0.3326
  158SAPE   C2217599   0.267   2.234  52.796 -0.2352 -0.3286 -0.3111
  158SAPE   H2R17600   0.343   2.315  52.805  2.4442 -2.7445  0.1613
  158SAPE   H2S17601   0.199   2.239  52.708  0.7343 -0.1488 -1.0653
  158SAPE    C317602   0.613   2.008  53.005 -0.0018 -0.8530  0.9787
  158SAPE    HX17603   0.661   2.094  53.055 -1.1593 -0.0580  0.7719
  158SAPE    HY17604   0.698   1.938  52.988  0.0660 -0.4099 -0.7545
  158SAPE   O3117605   0.521   1.929  53.087 -0.1938  0.2885 -0.8761
  158SAPE   C3117606   0.462   2.004  53.182  0.0950 -0.6525 -1.0038
  158SAPE   O3217607   0.472   2.128  53.192  0.0287 -0.0857  0.2491
  158SAPE   C3217608   0.382   1.910  53.263  0.2452  0.4343 -0.0744
  158SAPE   H2X17609   0.443   1.888  53.354  0.9780 -1.1606 -0.9148
  158SAPE   H2Y17610   0.367   1.812  53.213  0.3642  0.0520  0.6177
  158SAPE   C2317611   0.189   2.221  52.923 -0.2662  0.3563 -0.6172
  158SAPE   H3R17612   0.168   2.322  52.966  0.3874  0.5736 -0.7985
  158SAPE   H3S17613   0.250   2.184  53.008  0.8686 -1.7996 -2.2911
  158SAPE   C2417614   0.052   2.148  52.917  0.1278 -0.3707  0.5034
  158SAPE   H4R17615  -0.005   2.181  52.828  2.2783  0.2807 -0.7011
  158SAPE   H4S17616  -0.012   2.170  53.005  0.1030 -2.1836  0.9827
  158SAPE   C2517617   0.073   2.002  52.897  0.4036  0.1575  0.3430
  158SAPE   H5R17618   0.145   1.960  52.968  0.1994  1.2528  1.2312
  158SAPE   C2617619   0.021   1.921  52.799  0.3306 -0.0169 -0.0164
  158SAPE   H6R17620   0.070   1.822  52.795  1.6302  0.6191 -0.4434
  158SAPE   C2717621  -0.080   1.949  52.693  0.0041  0.0867 -0.8179
  158SAPE   H7R17622  -0.183   1.975  52.727  0.0464 -0.8269  0.0435
  158SAPE   H7S17623  -0.105   1.847  52.657 -3.0976 -0.2964  1.8876
  158SAPE   C2817624  -0.016   2.032  52.577 -0.0207  0.1051  0.1701
  158SAPE   H8R17625   0.091   2.017  52.558 -0.2641 -1.2971 -0.2114
  158SAPE   C2917626  -0.094   2.093  52.481 -0.0541 -0.4470 -0.6361
  158SAPE   H9R17627  -0.055   2.168  52.411  2.5193 -0.7727  0.3554
  158SAPE  C21017628  -0.243   2.068  52.480  0.6577 -0.3194 -0.7325
  158SAPE  H10R17629  -0.264   1.971  52.531 -4.2652  1.5629  1.3996
  158SAPE  H10S17630  -0.264   2.042  52.374  0.2288  0.4201 -0.8302
  158SAPE  C21117631  -0.316   2.183  52.535  0.0293  0.1337 -0.9456
  158SAPE  H11R17632  -0.303   2.189  52.644  1.6970 -1.4965 -1.0329
  158SAPE  C21217633  -0.409   2.263  52.477 -0.6875 -0.1768  0.1554
  158SAPE  H12R17634  -0.465   2.339  52.534  0.1032  0.4690  0.0835
  158SAPE  C21317635  -0.448   2.263  52.330  0.3817  0.5487 -0.1023
  158SAPE  H13R17636  -0.403   2.171  52.285 -0.3498  0.4152 -0.5782
  158SAPE  H13S17637  -0.410   2.353  52.277 -2.0011  3.0687  2.2134
  158SAPE  C21417638  -0.599   2.258  52.310 -0.3432  0.6683  0.4842
  158SAPE  H14R17639  -0.644   2.157  52.302  1.9084 -0.2902 -1.0817
  158SAPE  C21517640  -0.685   2.361  52.303  0.4215 -0.8831 -0.6482
  158SAPE  H15R17641  -0.793   2.338  52.296  0.0350  1.0421 -1.5588
  158SAPE  C21617642  -0.651   2.504  52.310  0.1029 -0.2010 -0.1158
  158SAPE  H16R17643  -0.675   2.547  52.210 -0.9167  0.2707  0.3206
  158SAPE  H16S17644  -0.543   2.519  52.333 -0.2037 -1.0843  2.1366
  158SAPE  C21717645  -0.717   2.587  52.422  0.9242  0.2464  0.1492
  158SAPE  H17R17646  -0.694   2.529  52.514 -0.2191 -0.4127  0.0445
  158SAPE  H17S17647  -0.825   2.611  52.409  1.6786  2.5346 -3.3365
  158SAPE  C21817648  -0.648   2.729  52.440  0.6151 -0.1220 -0.9472
  158SAPE  H18R17649  -0.674   2.777  52.343  0.8597 -1.8097 -1.8685
  158SAPE  H18S17650  -0.538   2.743  52.450  0.6731 -0.2176 -1.4291
  158SAPE  C21917651  -0.729   2.804  52.554 -0.4300  0.3629 -0.1830
  158SAPE  H19R17652  -0.719   2.738  52.642 -0.9414 -1.4137 -1.3961
  158SAPE  H19S17653  -0.835   2.782  52.526 -0.8805  2.0992  0.0692
  158SAPE  C22017654  -0.690   2.937  52.573  0.0139  0.4095 -0.2181
  158SAPE  H20R17655  -0.730   2.979  52.668  0.2572 -1.6809  0.8450
  158SAPE  H20S17656  -0.710   2.997  52.482 -1.8866 -0.4613 -0.4383
  158SAPE  H20T17657  -0.580   2.932  52.583  0.2891  3.4245 -0.8041
  158SAPE   C3317658   0.252   1.981  53.296 -0.1113 -0.2337  0.8489
  158SAPE   H3X17659   0.196   1.992  53.201  1.0230 -1.8460 -0.0636
  158SAPE   H3Y17660   0.264   2.077  53.351 -0.6428 -1.3627  3.0508
  158SAPE   C3417661   0.166   1.888  53.387  0.1141  0.0217 -0.2470
  158SAPE   H4X17662   0.167   1.783  53.350 -4.6653 -0.2260 -0.2791
  158SAPE   H4Y17663   0.065   1.933  53.374 -0.1853 -1.1075 -2.1785
  158SAPE   C3517664   0.218   1.870  53.542  0.2679 -0.1913  0.3730
  158SAPE   H5X17665   0.231   1.970  53.589 -1.0142  1.4161 -2.4435
  158SAPE   H5Y17666   0.323   1.833  53.532  0.3210 -0.0182  0.2790
  158SAPE   C3617667   0.134   1.778  53.623  0.2884  0.5468 -1.1316
  158SAPE   H6X17668   0.143   1.687  53.560  4.4113 -0.8971  1.1824
  158SAPE   H6Y17669   0.026   1.802  53.629  0.0627 -0.7154  0.6709
  158SAPE   C3717670   0.198   1.739  53.762 -0.7485  0.4746  0.0263
  158SAPE   H7X17671   0.306   1.714  53.763 -1.1441 -1.3744  1.3320
  158SAPE   H7Y17672   0.195   1.836  53.817 -1.7459  0.3036  0.2915
  158SAPE   C3817673   0.113   1.625  53.834 -0.7677 -0.9415 -0.0480
  158SAPE   H8X17674   0.106   1.533  53.772 -0.8043 -1.5522  0.8306
  158SAPE   H8Y17675   0.013   1.661  53.866 -0.6378  0.5738 -1.2576
  158SAPE   C3917676   0.185   1.585  53.966 -0.2371  0.7427 -1.1428
  158SAPE   H9X17677   0.212   1.676  54.024  5.6665 -2.1557  1.4875
  158SAPE   H9Y17678   0.290   1.553  53.952  0.5291  2.3093  0.5253
  158SAPE  C31017679   0.117   1.485  54.062  0.8415  1.2801  0.0760
  158SAPE  H10X17680   0.123   1.387  54.010 -2.6181  0.1332  1.5470
  158SAPE  H10Y17681   0.011   1.518  54.056 -0.5203 -2.7003 -1.6679
  158SAPE  C31117682   0.183   1.480  54.201 -0.9776 -0.0218 -0.0073
  158SAPE  H11X17683   0.162   1.581  54.242 -1.1962 -0.3550  0.7178
  158SAPE  H11Y17684   0.292   1.462  54.188 -1.0466 -0.5205  0.1141
  158SAPE  C31217685   0.127   1.376  54.290  0.4025  0.1042 -1.4255
  158SAPE  H12X17686   0.138   1.276  54.242  1.0209 -1.3370  1.4706
  158SAPE  H12Y17687   0.017   1.389  54.295 -0.2112 -3.2803 -3.0996
  158SAPE  C31317688   0.176   1.349  54.433  0.1184 -0.0934  0.2354
  158SAPE  H13X17689   0.156   1.435  54.499  1.3223 -0.7146  1.4636
  158SAPE  H13Y17690   0.286   1.361  54.419  0.0536 -0.0410 -0.2674
  158SAPE  C31417691   0.125   1.216  54.502 -0.0316  0.3357 -0.0792
  158SAPE  H14X17692   0.037   1.260  54.553 -0.1348  1.4151 -1.1475
  158SAPE  H14Y17693   0.206   1.195  54.575 -1.3587 -1.2489  1.0301
  158SAPE  C31517694   0.098   1.095  54.418 -0.4305  0.2068 -0.2491
  158SAPE  H15X17695   0.187   1.076  54.355 -0.0983  2.1184 -0.4138
  158SAPE  H15Y17696   0.010   1.119  54.354 -0.6759 -0.0711 -0.0200
  158SAPE  C31617697   0.050   0.980  54.511 -0.2020  0.7198  0.6997
  158SAPE  H16X17698   0.133   0.951  54.580  0.5420  1.8758  0.3011
  158SAPE  H16Y17699   0.027   0.891  54.448  2.5785  0.5270 -0.1636
  158SAPE  C31717700  -0.074   1.009  54.603 -0.7457  0.5640 -1.3432
  158SAPE  H17X17701  -0.140   1.073  54.540 -2.3863  0.6336  0.3799
  158SAPE  H17Y17702  -0.053   1.085  54.682  0.9929  0.2319 -1.4410
  158SAPE  C31817703  -0.136   0.886  54.674 -0.5526  0.0629  0.3020
  158SAPE  H18X17704  -0.210   0.926  54.747  1.3619  0.0857  2.3133
  158SAPE  H18Y17705  -0.061   0.827  54.731 -1.7541 -0.8076  1.0320
  158SAPE  H18Z17706  -0.196   0.821  54.607 -1.3703 -0.8012  1.7993
  159SAPE     N17707   1.888   0.316  38.128  0.7583 -0.1707  0.3507
  159SAPE   HN117708   1.893   0.223  38.173 -1.8974 -1.1852 -1.1604
  159SAPE   HN217709   1.896   0.402  38.187  1.2438  2.5698 -3.3110
  159SAPE   HN317710   1.799   0.310  38.074  1.5576 -0.6777 -0.9564
  159SAPE   C1217711   1.996   0.311  38.022  0.8399 -0.1611  0.2102
  159SAPE  H12A17712   1.986   0.390  37.944 -0.9429 -0.1829  0.3869
  159SAPE  H12B17713   1.983   0.217  37.964 -0.5901  0.1284  0.0266
  159SAPE   C1117714   2.132   0.327  38.080  0.0107  0.1588  0.1673
  159SAPE  H11A17715   2.145   0.434  38.108  1.0544 -0.0237  0.4336
  159SAPE  H11B17716   2.211   0.319  38.002  0.8507  3.3586  0.5406
  159SAPE     P17717   2.221   0.104  38.169 -0.3666 -0.1296  0.1281
  159SAPE   O1317718   2.155   0.044  38.056 -0.2877 -0.0463  0.0467
  159SAPE   O1417719   2.364   0.139  38.150 -0.7956  0.0570  0.2972
  159SAPE   O1217720   2.149   0.239  38.198  0.1346  0.3360  0.4746
  159SAPE   O1117721   2.203   0.020  38.309  0.3071 -0.4795  0.4782
  159SAPE    C117722   2.132  -0.106  38.308  0.6669 -0.4573  0.5070
  159SAPE    HA17723   2.037  -0.098  38.252  1.2701  1.9885 -0.3293
  159SAPE    HB17724   2.186  -0.184  38.250  0.3069 -0.4561  0.1662
  159SAPE    C217725   2.112  -0.165  38.447 -0.0703  0.1660  0.1685
  159SAPE    HS17726   2.078  -0.269  38.423  2.2867 -0.3328 -1.4016
  159SAPE   O2117727   2.021  -0.095  38.537  0.0284 -0.6153 -0.1234
  159SAPE   C2117728   1.894  -0.124  38.514  0.2541 -0.0427 -0.5638
  159SAPE   O2217729   1.856  -0.204  38.426 -0.1764  0.4760 -0.4971
  159SAPE   C2217730   1.813  -0.040  38.600 -0.5873 -0.6890 -0.0808
  159SAPE   H2R17731   1.870   0.042  38.649  2.0958 -2.8533  0.6555
  159SAPE   H2S17732   1.722   0.004  38.553 -0.6370 -1.1623 -0.4393
  159SAPE    C317733   2.257  -0.186  38.513  0.3957 -0.3535  0.0590
  159SAPE    HX17734   2.308  -0.089  38.496  0.6906 -0.4388  0.4415
  159SAPE    HY17735   2.318  -0.256  38.451  2.5234  2.3998 -1.1622
  159SAPE   O3117736   2.249  -0.236  38.654  0.0044 -0.1274 -0.3074
  159SAPE   C3117737   2.266  -0.143  38.745 -0.2151  0.0312  0.0969
  159SAPE   O3217738   2.309  -0.032  38.721  0.5433  0.4140  0.0782
  159SAPE   C3217739   2.239  -0.192  38.889 -0.1807  0.6668  0.3304
  159SAPE   H2X17740   2.286  -0.291  38.907  0.1176  0.9797  1.3586
  159SAPE   H2Y17741   2.128  -0.197  38.884 -0.1365  0.1357 -0.1412
  159SAPE   C2317742   1.737  -0.130  38.698 -0.7868  0.2144 -0.6970
  159SAPE   H3R17743   1.682  -0.209  38.642  0.9662  0.6862 -3.2508
  159SAPE   H3S17744   1.663  -0.066  38.750  0.0738 -0.5945  1.6191
  159SAPE   C2417745   1.838  -0.205  38.794  0.5230  0.3072  0.1377
  159SAPE   H4R17746   1.898  -0.126  38.845 -1.4183  2.5451 -0.8218
  159SAPE   H4S17747   1.905  -0.282  38.751  2.2738  2.9529 -2.2898
  159SAPE   C2517748   1.745  -0.273  38.894 -0.2611 -0.0257  0.1385
  159SAPE   H5R17749   1.639  -0.275  38.865 -0.5948  1.6574  1.0812
  159SAPE   C2617750   1.773  -0.310  39.018 -0.2630  0.6101  0.3099
  159SAPE   H6R17751   1.692  -0.356  39.077 -0.0239 -0.2827 -0.0407
  159SAPE   C2717752   1.905  -0.311  39.095  0.1339  0.8486  0.0939
  159SAPE   H7R17753   1.979  -0.272  39.022  1.3040  0.4192  1.0235
  159SAPE   H7S17754   1.939  -0.414  39.117  0.6396  0.2123 -3.0940
  159SAPE   C2817755   1.888  -0.217  39.215 -0.8147  0.6480  0.1935
  159SAPE   H8R17756   1.875  -0.110  39.191 -1.0577  0.7783  0.8622
  159SAPE   C2917757   1.887  -0.258  39.344  0.3952  0.3904  0.2932
  159SAPE   H9R17758   1.884  -0.183  39.424  4.0121 -0.6080  1.5758
  159SAPE  C21017759   1.895  -0.407  39.390 -0.0693 -0.3048  0.7802
  159SAPE  H10R17760   2.004  -0.424  39.394 -0.1008 -0.5563  0.5272
  159SAPE  H10S17761   1.843  -0.472  39.317  0.4452  0.0570  0.0798
  159SAPE  C21117762   1.839  -0.435  39.526  0.0118  0.2203  0.3937
  159SAPE  H11R17763   1.737  -0.399  39.548 -0.3499  1.1430 -2.4057
  159SAPE  C21217764   1.903  -0.499  39.628  0.0716 -0.6387 -0.1097
  159SAPE  H12R17765   1.855  -0.508  39.727 -0.1323 -0.1845 -0.1645
  159SAPE  C21317766   2.034  -0.575  39.625  0.2825 -0.4525 -0.1547
  159SAPE  H13R17767   2.051  -0.621  39.525 -1.4646 -2.5633  0.4528
  159SAPE  H13S17768   2.029  -0.664  39.691 -1.4855  0.6661  1.2692
  159SAPE  C21417769   2.148  -0.485  39.649  0.2399 -0.0960 -0.3840
  159SAPE  H14R17770   2.166  -0.412  39.568 -2.0454  0.1852 -0.6837
  159SAPE  C21517771   2.218  -0.469  39.758 -0.3012  0.0321  0.6860
  159SAPE  H15R17772   2.297  -0.393  39.747  0.0226 -0.7359 -4.9585
  159SAPE  C21617773   2.197  -0.540  39.885 -0.5485  0.3977 -0.4435
  159SAPE  H16R17774   2.242  -0.641  39.877 -0.9268  0.2791 -1.1110
  159SAPE  H16S17775   2.089  -0.557  39.901 -0.4027  0.1706  0.3591
  159SAPE  C21717776   2.257  -0.468  40.004  0.1491  0.4749 -0.2831
  159SAPE  H17R17777   2.206  -0.370  40.021  0.4145  0.4389  0.8199
  159SAPE  H17S17778   2.366  -0.449  39.990  0.3738  0.0558  0.8168
  159SAPE  C21817779   2.232  -0.551  40.139 -0.5955 -0.3280 -0.2035
  159SAPE  H18R17780   2.313  -0.627  40.143 -0.6352 -0.3193  0.9183
  159SAPE  H18S17781   2.133  -0.600  40.127 -0.6484  0.0389 -1.4790
  159SAPE  C21917782   2.237  -0.461  40.263  0.7492 -0.1868 -0.1375
  159SAPE  H19R17783   2.314  -0.382  40.260  0.1664  0.4555  1.0417
  159SAPE  H19S17784   2.238  -0.525  40.354  0.2406 -1.5366 -1.0432
  159SAPE  C22017785   2.103  -0.384  40.282 -0.1705 -0.4031 -0.1735
  159SAPE  H20R17786   2.102  -0.304  40.205  1.2911  1.9099  2.0769
  159SAPE  H20S17787   2.100  -0.336  40.382  1.6968 -1.8157  0.6245
  159SAPE  H20T17788   2.018  -0.454  40.273 -0.9810  0.3376  1.3099
  159SAPE   C3317789   2.300  -0.112  38.998 -0.0377  0.5340  0.3356
  159SAPE   H3X17790   2.252  -0.013  39.014  1.3150  1.1357  0.7949
  159SAPE   H3Y17791   2.406  -0.085  38.981  0.3545  0.0771  1.8594
  159SAPE   C3417792   2.306  -0.196  39.132  0.9172  0.0247  1.2177
  159SAPE   H4X17793   2.358  -0.288  39.099 -0.0831  0.2171 -1.1213
  159SAPE   H4Y17794   2.203  -0.220  39.165  0.7345 -1.9194 -0.5647
  159SAPE   C3517795   2.381  -0.115  39.231 -0.1832 -0.2350  0.3859
  159SAPE   H5X17796   2.333  -0.015  39.244  1.9816  0.6315  2.5326
  159SAPE   H5Y17797   2.483  -0.103  39.189 -0.2812 -3.0889 -0.8998
  159SAPE   C3617798   2.397  -0.185  39.369  0.0093  0.3279 -0.5574
  159SAPE   H6X17799   2.293  -0.206  39.400  0.7207  0.0037  1.7696
  159SAPE   H6Y17800   2.436  -0.109  39.440  0.4917  1.4096 -1.9070
  159SAPE   C3717801   2.473  -0.323  39.369 -0.6530 -0.2349  0.0986
  159SAPE   H7X17802   2.565  -0.294  39.315 -0.7273  1.2176  0.6981
  159SAPE   H7Y17803   2.419  -0.399  39.309 -1.1120 -1.0409  1.4870
  159SAPE   C3817804   2.493  -0.399  39.500 -0.3988 -0.6778  0.0926
  159SAPE   H8X17805   2.548  -0.493  39.480 -1.1146 -1.4704  1.6540
  159SAPE   H8Y17806   2.398  -0.448  39.532 -0.3169 -0.1106  1.2305
  159SAPE   C3917807   2.542  -0.310  39.616  0.3133 -0.6097  0.0345
  159SAPE   H9X17808   2.451  -0.264  39.660 -0.8238  1.2937 -3.8122
  159SAPE   H9Y17809   2.600  -0.234  39.559 -2.0270 -1.0432 -3.2600
  159SAPE  C31017810   2.614  -0.384  39.729 -0.2924  0.2248  0.3066
  159SAPE  H10X17811   2.681  -0.458  39.681  0.3330  1.5685 -0.9750
  159SAPE  H10Y17812   2.535  -0.438  39.785  0.6651 -0.2523  1.2301
  159SAPE  C31117813   2.677  -0.283  39.816 -0.1572  0.4580 -0.2464
  159SAPE  H11X17814   2.713  -0.191  39.764  0.4761  0.7639  0.7103
  159SAPE  H11Y17815   2.764  -0.328  39.867 -0.9225 -1.9310 -0.9315
  159SAPE  C31217816   2.596  -0.230  39.939  0.0861  0.8330  0.2172
  159SAPE  H12X17817   2.543  -0.319  39.979  2.6973 -1.2734 -0.6353
  159SAPE  H12Y17818   2.521  -0.159  39.899  0.5558  1.0053 -0.3833
  159SAPE  C31317819   2.691  -0.171  40.044  0.4143 -0.7595 -0.5650
  159SAPE  H13X17820   2.752  -0.083  40.013  0.0737 -0.7279 -1.1638
  159SAPE  H13Y17821   2.760  -0.253  40.069  0.0775 -0.4177  1.7061
  159SAPE  C31417822   2.615  -0.128  40.175 -0.1995 -0.3415 -0.1282
  159SAPE  H14X17823   2.524  -0.190  40.193 -0.4368  0.2627  0.8621
  159SAPE  H14Y17824   2.571  -0.030  40.147  1.5967  0.9313  1.3229
  159SAPE  C31517825   2.696  -0.142  40.313 -0.0491 -0.3526  0.3706
  159SAPE  H15X17826   2.791  -0.087  40.295 -1.1842  1.5262 -0.1636
  159SAPE  H15Y17827   2.720  -0.250  40.324  3.8801  0.2898 -0.1517
  159SAPE  C31617828   2.628  -0.081  40.436 -0.3744 -0.2670  1.0473
  159SAPE  H16X17829   2.623   0.029  40.424 -1.5383 -0.1786  2.1385
  159SAPE  H16Y17830   2.694  -0.104  40.523 -2.4774 -1.9909  2.2925
  159SAPE  C31717831   2.498  -0.138  40.463  0.2395  0.1772  0.6879
  159SAPE  H17X17832   2.499  -0.244  40.429  2.4043  0.8003 -1.4927
  159SAPE  H17Y17833   2.420  -0.101  40.393 -0.0617 -1.0347  0.3463
  159SAPE  C31817834   2.449  -0.135  40.607 -0.6387 -0.6975  0.0226
  159SAPE  H18X17835   2.496  -0.212  40.672 -1.7903  0.2223  2.0542
  159SAPE  H18Y17836   2.340  -0.153  40.610 -1.7578  4.5541 -0.2976
  159SAPE  H18Z17837   2.467  -0.035  40.652  3.2610 -0.7474 -0.9859
  160SAPE     N17838   0.774   2.163  51.492  0.5571  0.1820  0.4528
  160SAPE   HN117839   0.684   2.209  51.466  1.2362  0.6414 -1.2405
  160SAPE   HN217840   0.839   2.141  51.414  1.0059 -1.3951  1.2280
  160SAPE   HN317841   0.747   2.074  51.538 -0.7583  1.7028  2.7511
  160SAPE   C1217842   0.835   2.251  51.596  1.4861 -0.3479  0.6800
  160SAPE  H12A17843   0.923   2.311  51.565  1.5140 -1.1734 -0.9696
  160SAPE  H12B17844   0.865   2.178  51.674 -1.6935 -2.2117  0.3720
  160SAPE   C1117845   0.720   2.337  51.647  0.4856 -0.1413 -0.8338
  160SAPE  H11A17846   0.759   2.409  51.723  0.4524 -0.2190 -0.7421
  160SAPE  H11B17847   0.657   2.270  51.710  1.9300 -0.5642  0.2216
  160SAPE     P17848   0.604   2.535  51.527 -0.0833 -0.4668 -0.2995
  160SAPE   O1317849   0.578   2.581  51.385 -0.3311 -0.1553 -0.9614
  160SAPE   O1417850   0.488   2.546  51.610 -0.2404 -0.6171 -0.4566
  160SAPE   O1217851   0.646   2.384  51.523  0.2017 -0.0834 -0.3603
  160SAPE   O1117852   0.728   2.611  51.584  0.3676  0.1637  0.1361
  160SAPE    C117853   0.788   2.722  51.508  0.5190  0.1995  0.2781
  160SAPE    HA17854   0.718   2.778  51.442 -0.1368 -0.9078 -0.0002
  160SAPE    HB17855   0.811   2.802  51.582 -3.5077  0.5382  1.4174
  160SAPE    C217856   0.910   2.664  51.435  0.4599 -0.5624 -0.0917
  160SAPE    HS17857   0.960   2.740  51.371 -1.3191  1.9919  1.4333
  160SAPE   O2117858   0.873   2.561  51.341  0.4847 -0.2890  0.1148
  160SAPE   C2117859   0.808   2.589  51.228 -0.2405 -0.2044 -0.1107
  160SAPE   O2217860   0.788   2.702  51.198 -0.1124 -0.0086 -0.1463
  160SAPE   C2217861   0.770   2.465  51.144  0.0515  0.7420  0.3658
  160SAPE   H2R17862   0.661   2.452  51.164 -0.2734  2.0680 -0.3686
  160SAPE   H2S17863   0.789   2.479  51.035 -0.2022  1.2890  0.3873
  160SAPE    C317864   1.028   2.613  51.525  0.6076 -0.1697  0.0481
  160SAPE    HX17865   0.982   2.545  51.600  2.2593  1.3373  2.5936
  160SAPE    HY17866   1.069   2.696  51.587 -0.0094 -0.6620  1.1513
  160SAPE   O3117867   1.125   2.529  51.463 -0.3978  0.3615 -0.2859
  160SAPE   C3117868   1.216   2.587  51.387  0.8489  0.1069 -0.3242
  160SAPE   O3217869   1.213   2.702  51.351  0.3548  0.1248 -0.7179
  160SAPE   C3217870   1.327   2.487  51.383 -1.0886 -0.2168  0.6052
  160SAPE   H2X17871   1.294   2.396  51.327 -1.4048  1.4153 -2.0387
  160SAPE   H2Y17872   1.361   2.454  51.484 -0.9049  3.2312  1.7907
  160SAPE   C2317873   0.827   2.329  51.183 -0.0542  0.3118  0.1258
  160SAPE   H3R17874   0.768   2.248  51.137  0.7499  0.0078 -0.3999
  160SAPE   H3S17875   0.819   2.325  51.294 -0.9719 -4.2091  0.0785
  160SAPE   C2417876   0.972   2.297  51.142 -0.9393  0.2828  0.4004
  160SAPE   H4R17877   1.005   2.214  51.209  0.1081  0.6999  0.4105
  160SAPE   H4S17878   1.035   2.380  51.180 -1.3825  0.6453  0.3570
  160SAPE   C2517879   1.018   2.272  51.000 -0.1866  0.3893  1.0581
  160SAPE   H5R17880   1.037   2.167  50.975  0.9744  0.7626  0.3024
  160SAPE   C2617881   1.055   2.365  50.903 -0.3361 -0.2186  0.1544
  160SAPE   H6R17882   1.104   2.323  50.814 -1.1353  2.6962 -1.7884
  160SAPE   C2717883   1.067   2.508  50.931  0.0396  0.0199 -0.1556
  160SAPE   H7R17884   1.114   2.533  51.028 -0.7951 -1.2208  0.5983
  160SAPE   H7S17885   0.962   2.536  50.953 -0.4851 -2.1370  0.3524
  160SAPE   C2817886   1.127   2.576  50.812 -0.1412  0.1457  0.2008
  160SAPE   H8R17887   1.222   2.534  50.777 -1.6574 -4.1936  0.6644
  160SAPE   C2917888   1.062   2.683  50.765  0.4521  0.0063 -0.6116
  160SAPE   H9R17889   1.104   2.732  50.676  2.4374 -0.4472  0.0051
  160SAPE  C21017890   0.934   2.744  50.812 -0.8737 -0.4086  0.3569
  160SAPE  H10R17891   0.941   2.754  50.923  0.7887 -1.0056  0.3236
  160SAPE  H10S17892   0.844   2.682  50.794 -1.3264  0.2268  0.3658
  160SAPE  C21117893   0.905   2.886  50.755 -0.0753 -0.4279 -0.5467
  160SAPE  H11R17894   0.895   2.966  50.830 -2.3047 -2.0717  1.0381
  160SAPE  C21217895   0.874   2.918  50.629  0.5889 -0.0764 -0.4952
  160SAPE  H12R17896   0.841   3.020  50.604 -2.5883 -0.4788  1.4662
  160SAPE  C21317897   0.893   2.824  50.514 -0.3838 -0.0159  0.4829
  160SAPE  H13R17898   0.864   2.718  50.529  0.2495  0.0308  2.1577
  160SAPE  H13S17899   1.000   2.829  50.485 -1.0138  1.6534 -1.8714
  160SAPE  C21417900   0.815   2.885  50.399 -1.0707 -0.2733 -0.1375
  160SAPE  H14R17901   0.723   2.936  50.429 -0.9817 -2.6474  5.4407
  160SAPE  C21517902   0.855   2.883  50.271  0.4200 -0.2426 -0.2589
  160SAPE  H15R17903   0.800   2.936  50.192  1.0246  2.1463  0.8183
  160SAPE  C21617904   0.984   2.814  50.219 -0.3406  0.5974  0.0173
  160SAPE  H16R17905   0.964   2.723  50.158  0.7740 -1.5813  2.6746
  160SAPE  H16S17906   1.040   2.774  50.307 -1.1076  0.4103  0.4334
  160SAPE  C21717907   1.064   2.919  50.141  0.1369  1.2349  0.4886
  160SAPE  H17R17908   1.081   2.995  50.220  0.4336 -0.8836  2.5567
  160SAPE  H17S17909   1.014   2.945  50.045 -0.2449 -2.4765 -0.4658
  160SAPE  C21817910   1.203   2.867  50.100 -1.1235 -0.8622 -0.3895
  160SAPE  H18R17911   1.191   2.803  50.010 -1.0231  0.3681 -1.2958
  160SAPE  H18S17912   1.264   2.825  50.183 -0.0722 -2.2521 -1.8082
  160SAPE  C21917913   1.288   2.990  50.058 -0.0560 -0.3046  0.5805
  160SAPE  H19R17914   1.327   3.019  50.157  0.0902  3.4070 -0.4243
  160SAPE  H19S17915   1.225   3.064  50.003 -1.8087 -1.0521  1.4951
  160SAPE  C22017916   1.411   2.941  49.981 -0.1961  0.0028  0.7544
  160SAPE  H20R17917   1.389   2.940  49.872  0.5518  0.9463  0.5855
  160SAPE  H20S17918   1.455   2.842  50.006 -0.2989 -0.0716  0.6422
  160SAPE  H20T17919   1.490   3.016  50.003 -2.1784  1.9346  1.6548
  160SAPE   C3317920   1.455   2.549  51.316 -0.8074 -0.1810  0.4341
  160SAPE   H3X17921   1.543   2.488  51.345  0.2619  1.9558  1.9378
  160SAPE   H3Y17922   1.486   2.649  51.353 -0.5884  1.5129 -3.7288
  160SAPE   C3417923   1.438   2.556  51.160 -0.5389  0.2089  0.4317
  160SAPE   H4X17924   1.361   2.634  51.141 -1.0172 -0.6303 -1.2090
  160SAPE   H4Y17925   1.389   2.461  51.131 -1.0072  1.4565 -3.4686
  160SAPE   C3517926   1.561   2.600  51.091  0.0514  0.4391  0.1516
  160SAPE   H5X17927   1.656   2.555  51.127  0.8552  1.7601 -0.2446
  160SAPE   H5Y17928   1.580   2.709  51.101 -2.6802  1.0927 -0.9455
  160SAPE   C3617929   1.551   2.576  50.937  1.2508 -0.1695 -0.8641
  160SAPE   H6X17930   1.481   2.642  50.883  2.4793  1.4389 -0.5615
  160SAPE   H6Y17931   1.527   2.469  50.919  1.1580 -0.9259  2.8646
  160SAPE   C3717932   1.688   2.623  50.882  0.0099  0.0717  0.1540
  160SAPE   H7X17933   1.780   2.584  50.930  0.7652  0.4448 -0.9351
  160SAPE   H7Y17934   1.691   2.733  50.897 -2.9796 -0.1603  3.5886
  160SAPE   C3817935   1.706   2.587  50.736  0.3463  0.1510  1.2880
  160SAPE   H8X17936   1.631   2.647  50.679 -0.6242 -1.8111  0.4080
  160SAPE   H8Y17937   1.679   2.482  50.713 -0.0152  0.4521  0.2530
  160SAPE   C3917938   1.848   2.599  50.676  0.4821 -0.3383 -0.1353
  160SAPE   H9X17939   1.922   2.523  50.709  1.9014  1.9466  2.2355
  160SAPE   H9Y17940   1.876   2.699  50.713  3.4943 -1.1600  0.0437
  160SAPE  C31017941   1.832   2.577  50.524 -0.2570 -0.1411 -0.4384
  160SAPE  H10X17942   1.756   2.626  50.460  0.9936 -1.6771 -3.3301
  160SAPE  H10Y17943   1.810   2.470  50.503 -0.0485 -0.0454 -1.2010
  160SAPE  C31117944   1.960   2.600  50.443 -0.4330  0.1547 -0.4829
  160SAPE  H11X17945   2.042   2.543  50.491 -2.5759  1.2160  5.2940
  160SAPE  H11Y17946   1.992   2.706  50.449 -0.8430  0.3461 -1.4064
  160SAPE  C31217947   1.938   2.565  50.296 -0.7718 -0.1696 -1.1639
  160SAPE  H12X17948   1.842   2.594  50.248 -0.1916  2.2514 -0.9830
  160SAPE  H12Y17949   1.953   2.455  50.293 -1.5741 -0.3400  0.3679
  160SAPE  C31317950   2.053   2.612  50.208  0.6031 -0.9242  0.3775
  160SAPE  H13X17951   2.018   2.709  50.167 -1.1169 -2.1098 -1.1621
  160SAPE  H13Y17952   2.068   2.548  50.119  0.9158 -1.9726  1.1572
  160SAPE  C31417953   2.193   2.649  50.265  0.4231  0.3059  0.0892
  160SAPE  H14X17954   2.230   2.566  50.329  1.7802  1.6744  1.1555
  160SAPE  H14Y17955   2.192   2.737  50.334 -1.8877  0.2079  0.2420
  160SAPE  C31517956   2.289   2.684  50.149  0.1062  0.7299 -0.4787
  160SAPE  H15X17957   2.302   2.596  50.082  3.4505  0.9132 -0.2569
  160SAPE  H15Y17958   2.395   2.694  50.183 -0.2355 -1.8017  1.6609
  160SAPE  C31617959   2.249   2.795  50.059  1.4437 -0.3741  0.7910
  160SAPE  H16X17960   2.229   2.877  50.131  1.5433 -1.2238  1.8060
  160SAPE  H16Y17961   2.149   2.762  50.022  0.4580  0.0281  2.9452
  160SAPE  C31717962   2.354   2.835  49.952 -0.2855  0.5366 -1.0144
  160SAPE  H17X17963   2.409   2.755  49.898  1.5030  2.6011 -2.3800
  160SAPE  H17Y17964   2.427   2.892  50.013 -1.7512  0.7856  0.5772
  160SAPE  C31817965   2.306   2.928  49.844 -0.1206  0.7778  1.2703
  160SAPE  H18X17966   2.260   3.024  49.874  0.8839  1.9033 -0.5887
  160SAPE  H18Y17967   2.242   2.870  49.774  0.9567  0.5296  0.4479
  160SAPE  H18Z17968   2.396   2.948  49.782  1.5118 -4.6429  1.3205
  161SOPE     N17969   0.298   0.186  57.009 -0.2378 -0.0182 -0.0000
  161SOPE   HN117970   0.261   0.259  57.073 -2.1274 -1.8689  1.1308
  161SOPE   HN217971   0.263   0.206  56.913  0.6859 -3.8321 -1.3149
  161SOPE   HN317972   0.257   0.093  57.032  1.7797 -0.5463  1.7992
  161SOPE   C1217973   0.448   0.181  57.012  0.6553 -0.1876 -0.2697
  161SOPE  H12A17974   0.485   0.087  57.057  2.0901 -0.1648 -1.3350
  161SOPE  H12B17975   0.484   0.270  57.069  1.4523  0.5597 -1.8681
  161SOPE   C1117976   0.499   0.180  56.868  0.3432 -0.0630 -0.3345
  161SOPE  H11A17977   0.469   0.081  56.827  1.4043  0.3567 -2.2418
  161SOPE  H11B17978   0.610   0.167  56.871  0.2478 -0.9751 -0.2425
  161SOPE     P17979   0.542   0.420  56.772  0.3801  0.1879  0.0506
  161SOPE   O1317980   0.562   0.476  56.908  0.5426  0.2246  0.3742
  161SOPE   O1417981   0.473   0.496  56.668 -0.3574  0.2627 -0.6808
  161SOPE   O1217982   0.457   0.293  56.795  0.1135 -0.4640 -0.2272
  161SOPE   O1117983   0.683   0.379  56.724  0.8730  0.9121 -0.3635
  161SOPE    C117984   0.717   0.314  56.602 -0.6496 -0.1543 -0.2683
  161SOPE    HA17985   0.819   0.352  56.581  0.0610 -0.5313  2.1697
  161SOPE    HB17986   0.652   0.349  56.519 -0.8869  2.4581  0.9199
  161SOPE    C217987   0.722   0.160  56.598  0.3246  0.7627  0.8030
  161SOPE    HS17988   0.653   0.114  56.673 -2.1312 -1.3325 -2.4472
  161SOPE   O2117989   0.861   0.115  56.622  0.1082  0.9867 -0.6736
  161SOPE   C2117990   0.872  -0.002  56.674  0.1201  0.7350 -0.0458
  161SOPE   O2217991   0.778  -0.068  56.719  0.6323  0.8960 -0.0299
  161SOPE   C2217992   1.018  -0.047  56.670 -0.4946  0.6803  0.1919
  161SOPE   H2R17993   1.076   0.020  56.737 -0.1951  0.8714 -0.2500
  161SOPE   H2S17994   1.045  -0.024  56.564 -1.5874 -1.8619 -0.7169
  161SOPE    C317995   0.652   0.107  56.465 -0.5676 -0.0890 -1.1001
  161SOPE    HX17996   0.549   0.144  56.482  0.1103  1.4617 -0.0211
  161SOPE    HY17997   0.651  -0.004  56.472  0.7900 -0.0354  3.9783
  161SOPE   O3117998   0.715   0.172  56.354  0.0899 -0.0071  0.3500
  161SOPE   C3117999   0.748   0.086  56.253  0.1870  0.0337 -0.6665
  161SOPE   O3218000   0.721  -0.032  56.247  0.2359 -0.2300  0.3578
  161SOPE   C3218001   0.825   0.176  56.137  0.2305  0.3441  0.3966
  161SOPE   H2X18002   0.932   0.180  56.164  0.8289 -1.5088 -1.3954
  161SOPE   H2Y18003   0.786   0.280  56.148 -1.9580 -0.5791  2.2443
  161SOPE   C2318004   1.026  -0.197  56.700 -0.1753 -0.2977 -0.0539
  161SOPE   H3R18005   0.977  -0.262  56.624 -0.1845  1.1794 -1.3719
  161SOPE   H3S18006   0.998  -0.240  56.799  1.4596 -5.3580 -1.5136
  161SOPE   C2418007   1.178  -0.257  56.694 -0.2397  0.4900 -0.2588
  161SOPE   H4R18008   1.235  -0.195  56.767 -1.5220 -2.1929  3.2966
  161SOPE   H4S18009   1.166  -0.353  56.748 -0.0729 -0.0145 -1.1091
  161SOPE   C2518010   1.233  -0.296  56.555  0.4972 -0.8897 -0.4115
  161SOPE   H5R18011   1.152  -0.336  56.490 -1.1089  0.6203  0.5541
  161SOPE   H5S18012   1.263  -0.201  56.507 -0.8863 -1.6350 -3.0010
  161SOPE   C2618013   1.347  -0.390  56.576  0.4014  0.1599 -0.2904
  161SOPE   H6R18014   1.437  -0.333  56.608  0.4391  1.2868 -2.1944
  161SOPE   H6S18015   1.334  -0.451  56.668 -0.4724  3.4236  1.9321
  161SOPE   C2718016   1.392  -0.474  56.454 -0.6096  0.9510  0.2086
  161SOPE   H7R18017   1.380  -0.430  56.353 -1.8092 -2.5067 -1.2916
  161SOPE   H7S18018   1.501  -0.489  56.469 -0.4858  0.4595 -1.1169
  161SOPE   C2818019   1.320  -0.610  56.440 -0.9708 -0.8725  0.2854
  161SOPE   H8R18020   1.354  -0.651  56.343 -2.2499 -0.1019 -0.5110
  161SOPE   H8S18021   1.357  -0.680  56.518 -0.7525 -2.1977 -0.9839
  161SOPE   C2918022   1.168  -0.606  56.417  0.0543  0.4837 -0.4198
  161SOPE   H9118023   1.105  -0.597  56.507 -0.3108 -0.0573 -0.6185
  161SOPE  C21018024   1.100  -0.611  56.298 -0.4304 -0.4652 -0.9545
  161SOPE  H10118025   0.990  -0.610  56.290 -0.2997 -0.6904 -4.1573
  161SOPE  C21118026   1.149  -0.631  56.155  0.3400 -0.6542 -0.0850
  161SOPE  H11R18027   1.233  -0.561  56.136 -0.9208  0.0508 -4.0690
  161SOPE  H11S18028   1.063  -0.622  56.085 -0.8280  0.1591  1.3777
  161SOPE  C21218029   1.218  -0.769  56.140 -0.9363  0.7395  0.2271
  161SOPE  H12R18030   1.158  -0.851  56.183  1.7501 -1.7298 -0.4188
  161SOPE  H12S18031   1.317  -0.772  56.191  0.0339  0.1267 -1.5871
  161SOPE  C21318032   1.236  -0.804  55.996  1.0493  0.5042  0.1006
  161SOPE  H13R18033   1.145  -0.764  55.945  0.2763 -1.3378 -0.0615
  161SOPE  H13S18034   1.228  -0.915  55.987 -4.3513  0.1391  4.1926
  161SOPE  C21418035   1.354  -0.738  55.915 -0.1462  0.3189  0.0307
  161SOPE  H14R18036   1.439  -0.718  55.983 -0.3713  4.4822 -0.6403
  161SOPE  H14S18037   1.310  -0.636  55.903 -1.9209 -0.5526 -1.2952
  161SOPE  C21518038   1.380  -0.801  55.770  1.1023 -0.4053  0.7236
  161SOPE  H15R18039   1.462  -0.745  55.720  0.6869 -0.1099  0.3607
  161SOPE  H15S18040   1.295  -0.781  55.701  0.7787  0.8425  1.4475
  161SOPE  C21618041   1.404  -0.957  55.783  0.1453  0.1981  0.3926
  161SOPE  H16R18042   1.312  -1.003  55.823  0.9201  0.5707  2.7502
  161SOPE  H16S18043   1.501  -0.973  55.836  0.4500 -1.4754 -0.5688
  161SOPE  C21718044   1.441  -1.029  55.650  0.2495  0.1225 -0.0095
  161SOPE  H17R18045   1.535  -0.982  55.615  0.8100  1.0557  2.5309
  161SOPE  H17S18046   1.369  -1.031  55.566 -1.6557  1.7235  1.4781
  161SOPE  C21818047   1.483  -1.178  55.684  0.9892  0.0458 -0.1252
  161SOPE  H18R18048   1.393  -1.221  55.733  0.1213  1.2645 -0.5936
  161SOPE  H18S18049   1.572  -1.177  55.751  3.0778 -0.2481 -2.7004
  161SOPE  H18T18050   1.524  -1.237  55.599  2.3372 -1.9650  1.8142
  161SOPE   C3318051   0.790   0.115  55.998 -0.4706  0.5413  0.5905
  161SOPE   H3X18052   0.680   0.098  56.000 -0.3596 -2.0213 -3.5206
  161SOPE   H3Y18053   0.838   0.016  55.989 -1.0241  0.1793  1.5529
  161SOPE   C3418054   0.821   0.208  55.881 -0.2342  0.2534  0.8469
  161SOPE   H4X18055   0.929   0.232  55.874 -0.9076  3.2038 -1.1927
  161SOPE   H4Y18056   0.761   0.302  55.888 -0.2860  0.1580  1.8561
  161SOPE   C3518057   0.770   0.138  55.753 -0.2451  0.0137  0.0927
  161SOPE   H5X18058   0.659   0.132  55.764  0.0126 -0.6369  2.8906
  161SOPE   H5Y18059   0.796   0.030  55.757 -1.1014 -0.1670  1.4046
  161SOPE   C3618060   0.801   0.219  55.628  0.0942  0.0953  0.1207
  161SOPE   H6X18061   0.899   0.270  55.634  2.4056 -3.9831  1.4938
  161SOPE   H6Y18062   0.717   0.292  55.628  0.7080  0.8023 -0.2518
  161SOPE   C3718063   0.776   0.147  55.495 -0.1981 -0.4257  0.7139
  161SOPE   H7X18064   0.776   0.235  55.427  4.5784  0.0954  1.0254
  161SOPE   H7Y18065   0.674   0.103  55.490 -0.5639  0.5056 -1.2199
  161SOPE   C3818066   0.881   0.057  55.447  0.1337 -0.4090  0.1990
  161SOPE   H8X18067   0.844  -0.016  55.373  0.1631  1.4206 -1.6934
  161SOPE   H8Y18068   0.933  -0.008  55.521  0.4308 -1.9374 -1.3081
  161SOPE   C3918069   1.000   0.134  55.372 -0.5359  0.1951  0.5271
  161SOPE   H9X18070   1.047   0.208  55.440 -3.4331  0.7879  2.0548
  161SOPE   H9Y18071   0.955   0.203  55.297 -0.9246  1.8217  2.1829
  161SOPE  C31018072   1.105   0.036  55.330 -0.3772  0.9192  0.0056
  161SOPE  H10X18073   1.053  -0.061  55.317  1.8277 -0.6384  2.1102
  161SOPE  H10Y18074   1.180   0.018  55.410 -0.1337  1.1204 -0.1742
  161SOPE  C31118075   1.185   0.094  55.214 -1.0207  0.2912  0.0703
  161SOPE  H11X18076   1.249   0.168  55.266 -1.8316  0.1077  1.3754
  161SOPE  H11Y18077   1.118   0.134  55.135 -1.3232 -0.1867  0.0780
  161SOPE  C31218078   1.294  -0.005  55.160 -0.2977 -0.6417  0.5598
  161SOPE  H12X18079   1.238  -0.063  55.084  0.1999  1.1089 -1.2559
  161SOPE  H12Y18080   1.331  -0.074  55.238 -1.5811 -0.3267  1.4735
  161SOPE  C31318081   1.413   0.046  55.081  0.0753  0.0026  0.8954
  161SOPE  H13X18082   1.477   0.116  55.139 -2.0743  1.6094  1.4551
  161SOPE  H13Y18083   1.365   0.117  55.011  0.8580 -0.1306  0.2033
  161SOPE  C31418084   1.498  -0.050  55.000  0.2035 -0.1201 -0.0232
  161SOPE  H14X18085   1.555   0.015  54.930 -0.5936  1.1761  0.4913
  161SOPE  H14Y18086   1.435  -0.115  54.936  1.4707  2.0918 -3.7819
  161SOPE  C31518087   1.579  -0.155  55.074 -0.0613  0.5142  0.4451
  161SOPE  H15X18088   1.520  -0.234  55.124  4.9470 -2.0679  3.0358
  161SOPE  H15Y18089   1.618  -0.097  55.161 -1.5392  0.5650  1.1059
  161SOPE  C31618090   1.700  -0.217  55.003  0.1875 -0.5373  0.0826
  161SOPE  H16X18091   1.675  -0.273  54.910  0.3205 -3.0190  1.4460
  161SOPE  H16Y18092   1.724  -0.308  55.064 -0.3154 -1.0073 -0.4141
  161SOPE  C31718093   1.810  -0.115  54.995  0.1093  0.9185 -0.6549
  161SOPE  H17X18094   1.826  -0.070  55.095 -2.5035 -0.0201  0.2726
  161SOPE  H17Y18095   1.775  -0.044  54.917 -0.2384 -0.1475 -1.4972
  161SOPE  C31818096   1.934  -0.189  54.949  0.3532  0.1167  0.2230
  161SOPE  H18X18097   1.937  -0.201  54.839 -1.6282  0.0132  0.1557
  161SOPE  H18Y18098   1.932  -0.290  54.996 -2.1927  0.8874  1.9974
  161SOPE  H18Z18099   2.023  -0.129  54.980  0.4254 -0.3971  1.0446
  162SOPE     N18100   0.188   1.651  66.637 -0.5442  0.1288  0.6238
  162SOPE   HN118101   0.231   1.719  66.702 -0.3599  3.1882 -2.3902
  162SOPE   HN218102   0.180   1.558  66.683  0.2597 -0.5362 -0.5119
  162SOPE   HN318103   0.247   1.625  66.555 -1.9236  2.4672 -1.2697
  162SOPE   C1218104   0.048   1.670  66.604  0.0443 -0.2069  0.0105
  162SOPE  H12A18105   0.028   1.590  66.530 -0.2103  0.7202 -0.9538
  162SOPE  H12B18106   0.046   1.760  66.539 -0.4497  0.4272  0.8818
  162SOPE   C1118107  -0.049   1.711  66.719  0.1671 -0.4158  0.0049
  162SOPE  H11A18108  -0.156   1.690  66.698  0.3410  0.5514 -2.1672
  162SOPE  H11B18109  -0.054   1.822  66.705  3.1244 -0.2414 -0.4090
  162SOPE     P18110   0.014   1.766  66.973  0.2783  0.1960 -0.3798
  162SOPE   O1318111   0.115   1.870  66.951 -0.1096 -0.4259 -1.0746
  162SOPE   O1418112   0.023   1.683  67.094 -0.8827  1.2287  0.3329
  162SOPE   O1218113  -0.007   1.671  66.847 -0.2086 -0.1318  0.0530
  162SOPE   O1118114  -0.125   1.843  66.990  0.2906 -0.1261 -0.0213
  162SOPE    C118115  -0.129   1.959  67.069 -0.7713  0.2910  0.8941
  162SOPE    HA18116  -0.031   2.013  67.063 -1.0388  0.8950  1.7318
  162SOPE    HB18117  -0.149   1.939  67.176 -1.0411 -0.5046  0.6970
  162SOPE    C218118  -0.232   2.060  67.020  0.4471 -0.2622 -0.4581
  162SOPE    HS18119  -0.241   2.136  67.101  0.4255 -2.6083  1.8758
  162SOPE   O2118120  -0.356   2.002  67.007  0.7162  0.0034  0.4623
  162SOPE   C2118121  -0.395   1.918  67.097  0.4512 -0.7793 -0.2982
  162SOPE   O2218122  -0.387   1.931  67.221 -0.1713 -0.1391 -0.1603
  162SOPE   C2218123  -0.451   1.790  67.023  0.0765 -0.7008  1.4566
  162SOPE   H2R18124  -0.523   1.741  67.092  0.5973 -0.2287  2.3571
  162SOPE   H2S18125  -0.364   1.722  67.009  1.8297  0.7679  4.2345
  162SOPE    C318126  -0.195   2.131  66.883  0.5654 -0.1169  0.5390
  162SOPE    HX18127  -0.199   2.059  66.798 -0.7329  2.6179 -1.8681
  162SOPE    HY18128  -0.090   2.167  66.882 -0.3505  3.3257  4.0386
  162SOPE   O3118129  -0.280   2.237  66.856  0.4279 -0.3873 -0.3125
  162SOPE   C3118130  -0.261   2.304  66.738  0.4822 -0.3426  0.4662
  162SOPE   O3218131  -0.167   2.284  66.663 -0.1077  0.3916 -0.1045
  162SOPE   C3218132  -0.376   2.406  66.729 -0.6345 -0.6916  0.4141
  162SOPE   H2X18133  -0.336   2.485  66.662  3.9187  0.3342  3.8247
  162SOPE   H2Y18134  -0.390   2.460  66.825  1.2849 -0.9456  0.8698
  162SOPE   C2318135  -0.508   1.814  66.874  0.6138  0.9121  0.2854
  162SOPE   H3R18136  -0.479   1.914  66.836  0.7366  1.3980  1.5790
  162SOPE   H3S18137  -0.619   1.804  66.880  0.6004 -0.8761 -1.8262
  162SOPE   C2418138  -0.457   1.721  66.766 -0.3100  0.0907 -0.1860
  162SOPE   H4R18139  -0.347   1.728  66.750 -0.0084 -4.2601 -1.1313
  162SOPE   H4S18140  -0.470   1.611  66.770 -1.7853  0.1802 -1.7024
  162SOPE   C2518141  -0.521   1.758  66.629  0.1956  0.5522 -0.3024
  162SOPE   H5R18142  -0.545   1.867  66.631 -1.9868  0.1226 -1.2084
  162SOPE   H5S18143  -0.438   1.731  66.560  0.6982 -2.6069  1.3341
  162SOPE   C2618144  -0.654   1.688  66.603  0.4449 -0.0773 -0.1539
  162SOPE   H6R18145  -0.636   1.581  66.628 -0.2932  0.1816  1.6125
  162SOPE   H6S18146  -0.725   1.726  66.680 -1.4700 -3.0017 -0.3399
  162SOPE   C2718147  -0.699   1.714  66.463 -0.3428 -0.0634 -0.0689
  162SOPE   H7R18148  -0.639   1.669  66.381  0.9647 -1.5292  1.6187
  162SOPE   H7S18149  -0.795   1.661  66.449 -0.5005  0.0410  0.5840
  162SOPE   C2818150  -0.735   1.862  66.433  0.6617  0.8845  0.8777
  162SOPE   H8R18151  -0.648   1.932  66.431 -0.1996  1.9634  0.5772
  162SOPE   H8S18152  -0.775   1.857  66.330  2.0285 -0.5158  0.3623
  162SOPE   C2918153  -0.847   1.918  66.514  0.2060  0.5834  0.3834
  162SOPE   H9118154  -0.869   1.838  66.586  1.4979 -0.3434 -0.1986
  162SOPE  C21018155  -0.904   2.038  66.502  0.2804  0.0461 -0.1864
  162SOPE  H10118156  -0.997   2.059  66.557 -0.0378  3.6035 -1.7918
  162SOPE  C21118157  -0.874   2.144  66.403  0.2910 -0.1748  0.0406
  162SOPE  H11R18158  -0.766   2.168  66.397  0.1472  1.6636  2.8658
  162SOPE  H11S18159  -0.891   2.248  66.439  0.9619  0.1980 -0.7016
  162SOPE  C21218160  -0.948   2.138  66.261 -0.6273  0.0423  0.6781
  162SOPE  H12R18161  -1.057   2.155  66.275 -0.0621  3.7039  1.5867
  162SOPE  H12S18162  -0.929   2.036  66.220  2.4422  0.3369  1.1609
  162SOPE  C21318163  -0.849   2.214  66.160  0.2715  0.6110  0.9466
  162SOPE  H13R18164  -0.859   2.184  66.054 -1.9722  3.4150  0.2355
  162SOPE  H13S18165  -0.744   2.178  66.170  0.3103  0.1551 -0.7689
  162SOPE  C21418166  -0.837   2.376  66.157  0.7356  0.3858 -0.2820
  162SOPE  H14R18167  -0.832   2.411  66.262 -1.4362  0.2225 -0.0929
  162SOPE  H14S18168  -0.926   2.428  66.115 -2.2315 -2.1618  2.3531
  162SOPE  C21518169  -0.710   2.425  66.087 -0.8065 -0.5311 -0.2152
  162SOPE  H15R18170  -0.714   2.536  66.082  2.7946 -0.1070  2.3778
  162SOPE  H15S18171  -0.715   2.375  65.988 -0.8641 -2.9977  0.9603
  162SOPE  C21618172  -0.573   2.398  66.148  0.0770  0.3884  0.1621
  162SOPE  H16R18173  -0.506   2.405  66.060 -0.2645 -2.3175 -0.4194
  162SOPE  H16S18174  -0.572   2.294  66.187  2.0687  1.1850  2.5191
  162SOPE  C21718175  -0.540   2.492  66.269 -0.9428  0.2347  0.7466
  162SOPE  H17R18176  -0.566   2.437  66.361  1.6073 -0.1835  1.2976
  162SOPE  H17S18177  -0.610   2.575  66.294 -2.2674 -0.9021  0.9332
  162SOPE  C21818178  -0.390   2.525  66.296  0.3671  0.6437  0.0851
  162SOPE  H18R18179  -0.345   2.589  66.216 -2.1026  0.6480 -1.3953
  162SOPE  H18S18180  -0.328   2.433  66.293  0.4149  0.4991  2.8506
  162SOPE  H18T18181  -0.376   2.576  66.394 -1.7588 -0.4216  1.0008
  162SOPE   C3318182  -0.510   2.343  66.684 -0.1707  0.3464 -0.1151
  162SOPE   H3X18183  -0.499   2.295  66.584 -2.2457 -1.1976  0.3373
  162SOPE   H3Y18184  -0.572   2.434  66.666  1.5991  1.4667 -0.8066
  162SOPE   C3418185  -0.567   2.253  66.789 -0.0531 -0.3455 -0.2533
  162SOPE   H4X18186  -0.580   2.296  66.891 -1.3907  0.3080 -0.6788
  162SOPE   H4Y18187  -0.510   2.159  66.799 -1.0360 -1.2680 -2.5769
  162SOPE   C3518188  -0.717   2.217  66.763  0.1059  0.8018 -0.7500
  162SOPE   H5X18189  -0.722   2.174  66.660 -0.8967  1.5177 -1.0105
  162SOPE   H5Y18190  -0.788   2.302  66.749  0.7146  1.1872 -1.6500
  162SOPE   C3618191  -0.766   2.113  66.865  0.6262  0.5029 -0.3540
  162SOPE   H6X18192  -0.715   2.142  66.959  0.7009  1.5538 -0.7042
  162SOPE   H6Y18193  -0.723   2.014  66.837  0.5391  1.3486 -3.9721
  162SOPE   C3718194  -0.917   2.095  66.879 -0.2407 -0.0020  0.1577
  162SOPE   H7X18195  -0.939   2.054  66.778  1.1791 -2.7014  0.8724
  162SOPE   H7Y18196  -0.949   2.200  66.897 -1.9319 -0.8396  2.4326
  162SOPE   C3818197  -0.948   2.002  66.993  0.1227  0.1309 -0.3052
  162SOPE   H8X18198  -0.887   2.028  67.082 -2.0679  1.1036  1.0120
  162SOPE   H8Y18199  -0.930   1.892  66.983  2.4608  0.5250 -0.8815
  162SOPE   C3918200  -1.094   2.017  67.041  0.3892 -0.8740  0.3874
  162SOPE   H9X18201  -1.163   1.974  66.966  0.0644 -1.6672  1.1217
  162SOPE   H9Y18202  -1.114   2.126  67.043  0.6663 -0.4933 -4.6827
  162SOPE  C31018203  -1.132   1.936  67.167  0.0249 -0.2567 -0.6567
  162SOPE  H10X18204  -1.060   1.936  67.252 -1.0715  3.0634  0.4046
  162SOPE  H10Y18205  -1.124   1.832  67.127  1.5834 -0.3375 -0.1817
  162SOPE  C31118206  -1.275   1.957  67.216 -0.1549  0.0259  0.1157
  162SOPE  H11X18207  -1.339   1.987  67.130  2.9202  0.1927 -2.3049
  162SOPE  H11Y18208  -1.287   2.043  67.285  1.7126 -0.1970  0.7749
  162SOPE  C31218209  -1.337   1.838  67.285  0.1705  0.4738  0.3452
  162SOPE  H12X18210  -1.444   1.866  67.301  0.2315  0.6999  0.3566
  162SOPE  H12Y18211  -1.291   1.835  67.386 -0.5544 -0.2329  0.6709
  162SOPE  C31318212  -1.337   1.700  67.208  0.8457  0.9134  0.0508
  162SOPE  H13X18213  -1.416   1.636  67.254  3.0729 -2.1822 -0.1361
  162SOPE  H13Y18214  -1.236   1.658  67.228 -0.3393 -0.8857  2.9594
  162SOPE  C31418215  -1.368   1.717  67.058  0.2145 -0.3041  0.3572
  162SOPE  H14X18216  -1.309   1.649  66.994 -1.3650 -3.3993  1.9599
  162SOPE  H14Y18217  -1.346   1.824  67.035 -1.2157 -0.2783 -1.0634
  162SOPE  C31518218  -1.520   1.695  67.009 -0.1733  0.1649 -0.3546
  162SOPE  H15X18219  -1.510   1.701  66.898 -1.4990  4.4398 -0.4260
  162SOPE  H15Y18220  -1.581   1.781  67.045 -2.7595  0.0838 -3.9185
  162SOPE  C31618221  -1.601   1.570  67.056  0.4974  0.0666  0.6268
  162SOPE  H16X18222  -1.706   1.581  67.021 -0.3071 -4.2415  1.1235
  162SOPE  H16Y18223  -1.610   1.583  67.166  1.1195  2.3904  0.4563
  162SOPE  C31718224  -1.555   1.431  67.015  0.0414  0.4147  0.9659
  162SOPE  H17X18225  -1.623   1.362  67.068 -0.4856  1.1312  1.2403
  162SOPE  H17Y18226  -1.454   1.412  67.058 -0.0924  0.4101  1.2796
  162SOPE  C31818227  -1.542   1.413  66.861  0.0506 -0.3003  0.3310
  162SOPE  H18X18228  -1.486   1.500  66.820 -1.0163  1.0888  1.7110
  162SOPE  H18Y18229  -1.643   1.406  66.816 -0.5512 -1.0060  1.7394
  162SOPE  H18Z18230  -1.480   1.323  66.841 -0.7523 -0.5128 -1.3933
  163SOPE     N18231   0.078   0.404  69.804  0.2890 -0.2779 -0.4217
  163SOPE   HN118232   0.136   0.481  69.765 -0.7887  1.9884  2.1237
  163SOPE   HN218233   0.012   0.436  69.877 -1.5400 -2.3471 -1.0395
  163SOPE   HN318234   0.136   0.330  69.849  0.8297  2.0761  3.1110
  163SOPE   C1218235   0.004   0.340  69.693  0.2567  0.3453  0.9011
  163SOPE  H12A18236   0.082   0.326  69.615  0.1455 -0.6845  0.9662
  163SOPE  H12B18237  -0.075   0.409  69.655 -0.1165  1.2702  3.2267
  163SOPE   C1118238  -0.052   0.203  69.733  0.5337  0.7362  0.0761
  163SOPE  H11A18239  -0.110   0.156  69.651  0.5397 -0.6272  0.8367
  163SOPE  H11B18240  -0.122   0.220  69.818 -1.3486  0.7648 -1.4120
  163SOPE     P18241   0.027  -0.023  69.834 -0.0435 -0.5431 -0.5810
  163SOPE   O1318242  -0.023   0.014  69.967  0.5325 -1.2696 -0.0932
  163SOPE   O1418243   0.144  -0.115  69.827  0.1959 -0.3534  0.1106
  163SOPE   O1218244   0.055   0.110  69.759  0.5074 -0.3601  0.1970
  163SOPE   O1118245  -0.093  -0.085  69.753 -0.3251 -0.0633  0.3213
  163SOPE    C118246  -0.206  -0.157  69.808  0.0601 -0.4528 -1.3299
  163SOPE    HA18247  -0.198  -0.172  69.918 -0.7037 -2.7088 -1.5402
  163SOPE    HB18248  -0.217  -0.255  69.757  0.5098  0.0580 -2.4524
  163SOPE    C218249  -0.335  -0.075  69.779 -0.1128  0.4230  0.1181
  163SOPE    HS18250  -0.322   0.017  69.839  2.1320  0.6889 -0.6890
  163SOPE   O2118251  -0.453  -0.156  69.824  0.4555  0.2458 -0.1788
  163SOPE   C2118252  -0.475  -0.139  69.953 -0.8463  0.7308 -0.3228
  163SOPE   O2218253  -0.406  -0.069  70.030 -0.0717  0.5358 -0.2595
  163SOPE   C2218254  -0.610  -0.201  69.996  0.3450  0.0500 -0.1125
  163SOPE   H2R18255  -0.668  -0.218  69.902  2.3347 -2.9894 -0.9530
  163SOPE   H2S18256  -0.657  -0.113  70.045 -1.1252 -0.9564  0.3497
  163SOPE    C318257  -0.356  -0.035  69.630  0.1261  0.9130  0.0234
  163SOPE    HX18258  -0.385  -0.125  69.571  0.5438  0.5453  0.3743
  163SOPE    HY18259  -0.259   0.001  69.590  2.8260 -0.5131  4.5721
  163SOPE   O3118260  -0.458   0.057  69.628 -0.1685 -0.0150  0.6118
  163SOPE   C3118261  -0.518   0.080  69.508 -0.2174  1.0146  0.7842
  163SOPE   O3218262  -0.477   0.040  69.398 -0.4351  0.2022 -1.0022
  163SOPE   C3218263  -0.628   0.187  69.530  0.0317 -0.0278  0.8189
  163SOPE   H2X18264  -0.607   0.279  69.471 -0.5617  0.4574  1.3623
  163SOPE   H2Y18265  -0.625   0.223  69.634 -3.1673  1.2037  0.5937
  163SOPE   C2318266  -0.599  -0.309  70.102  0.2757 -0.2682  0.3094
  163SOPE   H3R18267  -0.530  -0.391  70.073  1.1075  0.1464  1.0763
  163SOPE   H3S18268  -0.699  -0.356  70.113  0.2672 -0.1375  0.7869
  163SOPE   C2418269  -0.570  -0.270  70.239 -0.9128  0.2832  0.5610
  163SOPE   H4R18270  -0.481  -0.203  70.242  0.2917 -1.2734  2.2343
  163SOPE   H4S18271  -0.655  -0.208  70.275  0.8174  1.9670  1.9499
  163SOPE   C2518272  -0.534  -0.381  70.342  0.0497  0.6483 -0.0473
  163SOPE   H5R18273  -0.624  -0.446  70.344 -0.1282  0.8878 -0.1550
  163SOPE   H5S18274  -0.461  -0.448  70.291  0.3411 -0.5814  1.9001
  163SOPE   C2618275  -0.505  -0.311  70.472 -0.2932  0.7229 -0.2643
  163SOPE   H6R18276  -0.403  -0.272  70.452  0.3255 -0.0070  1.3675
  163SOPE   H6S18277  -0.577  -0.230  70.496 -0.9482  0.5320 -1.4881
  163SOPE   C2718278  -0.507  -0.418  70.585 -0.0897  0.1041  1.2361
  163SOPE   H7R18279  -0.603  -0.473  70.594  0.7035 -1.2070  2.1867
  163SOPE   H7S18280  -0.431  -0.498  70.577  1.1951  1.4343 -0.7270
  163SOPE   C2818281  -0.470  -0.348  70.715  0.9124  0.2914  0.6547
  163SOPE   H8R18282  -0.376  -0.289  70.705 -0.8264  3.2071  0.4494
  163SOPE   H8S18283  -0.551  -0.274  70.730  0.0897  0.0758 -2.1996
  163SOPE   C2918284  -0.449  -0.443  70.836  0.3397 -0.6543  0.1165
  163SOPE   H9118285  -0.427  -0.549  70.815  1.7472 -0.1252 -1.2596
  163SOPE  C21018286  -0.475  -0.407  70.967 -0.3962 -0.3481  0.4785
  163SOPE  H10118287  -0.458  -0.485  71.042  2.5125  0.8256  1.1774
  163SOPE  C21118288  -0.527  -0.274  71.001 -0.7479  0.0766 -0.1735
  163SOPE  H11R18289  -0.471  -0.207  70.932  2.7837 -2.4451  0.0084
  163SOPE  H11S18290  -0.503  -0.243  71.106 -2.5295 -2.9542  1.2631
  163SOPE  C21218291  -0.672  -0.255  70.977  0.6466 -0.3185  0.6468
  163SOPE  H12R18292  -0.734  -0.328  71.034 -0.4250 -0.3037 -0.4520
  163SOPE  H12S18293  -0.684  -0.271  70.868  0.4398 -0.2542  0.6603
  163SOPE  C21318294  -0.732  -0.115  71.014  0.1245  0.0013  0.6009
  163SOPE  H13R18295  -0.688  -0.083  71.110  2.3497 -0.0623 -0.3533
  163SOPE  H13S18296  -0.843  -0.121  71.019  0.1905 -1.3308  0.8592
  163SOPE  C21418297  -0.696  -0.005  70.914  0.5170  0.2298  0.4166
  163SOPE  H14R18298  -0.711  -0.051  70.814  1.2318 -0.7975  0.7680
  163SOPE  H14S18299  -0.588   0.017  70.927  0.9591 -0.6609 -1.4499
  163SOPE  C21518300  -0.781   0.121  70.929  0.0269  0.0113 -0.1975
  163SOPE  H15R18301  -0.831   0.117  71.028  0.7335 -0.0762  0.1582
  163SOPE  H15S18302  -0.863   0.099  70.858  1.7309 -0.3464 -2.1812
  163SOPE  C21618303  -0.697   0.251  70.896  0.3004  0.2713 -0.2501
  163SOPE  H16R18304  -0.613   0.211  70.834 -0.5839 -0.9391 -0.7124
  163SOPE  H16S18305  -0.656   0.304  70.984  0.5531 -2.7863  1.6322
  163SOPE  C21718306  -0.786   0.336  70.815  0.1427 -0.0839 -0.2440
  163SOPE  H17R18307  -0.871   0.378  70.873  1.4117  3.2136 -0.5880
  163SOPE  H17S18308  -0.844   0.281  70.737 -2.7236  0.0279  1.6293
  163SOPE  C21818309  -0.696   0.449  70.743  0.0218  0.2835  0.0859
  163SOPE  H18R18310  -0.668   0.533  70.811 -2.9477  0.0489  1.7518
  163SOPE  H18S18311  -0.763   0.502  70.671 -2.0723 -0.2997  1.5261
  163SOPE  H18T18312  -0.610   0.403  70.689 -0.4513 -0.1082 -0.3421
  163SOPE   C3318313  -0.762   0.124  69.506 -0.1932  0.3042  0.3229
  163SOPE   H3X18314  -0.768   0.061  69.414  3.0452  2.2857 -1.4412
  163SOPE   H3Y18315  -0.833   0.206  69.483  1.0148  1.5315  0.8273
  163SOPE   C3418316  -0.815   0.072  69.641  0.6971  0.5549  0.8708
  163SOPE   H4X18317  -0.855   0.156  69.702  0.0370 -0.7280  2.2529
  163SOPE   H4Y18318  -0.724   0.030  69.689  1.5610 -0.5404 -1.5760
  163SOPE   C3518319  -0.931  -0.027  69.627  0.1985  0.1487  0.6325
  163SOPE   H5X18320  -0.894  -0.123  69.585 -0.6675 -0.7318  1.8151
  163SOPE   H5Y18321  -1.013   0.010  69.562 -0.3775 -0.2355  1.1238
  163SOPE   C3618322  -0.980  -0.064  69.767  0.9432  0.4379  0.1692
  163SOPE   H6X18323  -1.061   0.002  69.802 -0.3150 -0.1947 -1.4018
  163SOPE   H6Y18324  -0.892  -0.060  69.834  1.3766  0.6500 -0.4032
  163SOPE   C3718325  -1.030  -0.211  69.765 -0.1314  0.5480 -0.4590
  163SOPE   H7X18326  -0.956  -0.273  69.710 -0.1945  1.6801 -1.8691
  163SOPE   H7Y18327  -1.114  -0.222  69.692 -0.3010 -0.5724 -0.1217
  163SOPE   C3818328  -1.058  -0.275  69.903 -0.3156  0.3922 -0.1073
  163SOPE   H8X18329  -1.141  -0.214  69.946 -2.8075  0.9209 -4.9379
  163SOPE   H8Y18330  -0.965  -0.270  69.963 -0.2907  0.5005 -0.1546
  163SOPE   C3918331  -1.102  -0.424  69.909  0.4826  0.4511  0.1718
  163SOPE   H9X18332  -1.108  -0.440  70.019  0.6878  1.4520  0.3417
  163SOPE   H9Y18333  -1.049  -0.507  69.859 -3.3936 -2.9358  1.0763
  163SOPE  C31018334  -1.248  -0.470  69.853 -0.5196 -0.1543  0.0139
  163SOPE  H10X18335  -1.269  -0.560  69.915 -0.3110  1.2676  2.2594
  163SOPE  H10Y18336  -1.242  -0.507  69.748  0.0276 -1.0722  0.3556
  163SOPE  C31118337  -1.369  -0.373  69.869  1.1243 -0.6155 -0.0988
  163SOPE  H11X18338  -1.448  -0.426  69.812 -0.4369  1.9860 -0.5299
  163SOPE  H11Y18339  -1.355  -0.272  69.823 -2.5973  0.9512  1.8352
  163SOPE  C31218340  -1.419  -0.330  70.009  0.5152 -0.1262 -0.7490
  163SOPE  H12X18341  -1.521  -0.287  70.002  1.3218  2.6715  2.2479
  163SOPE  H12Y18342  -1.358  -0.250  70.057  1.2037 -1.7130  1.1196
  163SOPE  C31318343  -1.450  -0.446  70.118 -0.1514  0.8873  1.0546
  163SOPE  H13X18344  -1.486  -0.405  70.215 -0.2165  0.6713  1.1190
  163SOPE  H13Y18345  -1.352  -0.495  70.134 -1.4021 -2.0479  0.2748
  163SOPE  C31418346  -1.562  -0.536  70.065 -0.2626  0.1257  0.1141
  163SOPE  H14X18347  -1.528  -0.593  69.976 -3.0084 -2.1161  0.3743
  163SOPE  H14Y18348  -1.647  -0.472  70.033 -1.5824 -0.0192  3.0537
  163SOPE  C31518349  -1.620  -0.620  70.171 -1.0293  0.7283  1.2276
  163SOPE  H15X18350  -1.680  -0.555  70.238 -1.5512  1.8440 -0.2562
  163SOPE  H15Y18351  -1.537  -0.661  70.233  0.1774 -1.0161 -1.3468
  163SOPE  C31618352  -1.709  -0.732  70.115  0.5622 -0.5262 -0.1810
  163SOPE  H16X18353  -1.641  -0.800  70.059  1.6642 -3.2338  3.9664
  163SOPE  H16Y18354  -1.793  -0.689  70.057 -1.4117 -0.7377  2.3336
  163SOPE  C31718355  -1.759  -0.815  70.231  0.3242  0.0169 -0.1541
  163SOPE  H17X18356  -1.870  -0.810  70.231  0.3421  1.1729  1.4856
  163SOPE  H17Y18357  -1.726  -0.760  70.322  1.7950 -1.3928  0.2301
  163SOPE  C31818358  -1.716  -0.952  70.239  0.3444  0.4229 -0.4723
  163SOPE  H18X18359  -1.767  -1.006  70.321  0.7374  0.7323 -0.0162
  163SOPE  H18Y18360  -1.605  -0.960  70.248  0.4019  2.7550  1.8816
  163SOPE  H18Z18361  -1.739  -1.017  70.151 -3.6543  0.9219  0.0253
  164SOPE     N18362   1.541   2.639  63.969  0.9072 -0.6649  0.7881
  164SOPE   HN118363   1.604   2.718  63.995  3.8640 -2.5777 -0.1247
  164SOPE   HN218364   1.590   2.548  63.980  0.8009 -0.8337 -0.1005
  164SOPE   HN318365   1.513   2.652  63.870  3.0214  1.5475  0.3635
  164SOPE   C1218366   1.431   2.640  64.061 -0.0073  0.3717 -0.2063
  164SOPE  H12A18367   1.467   2.613  64.163 -2.4565 -3.0441 -0.0549
  164SOPE  H12B18368   1.366   2.555  64.030 -0.3005  1.1947 -1.9645
  164SOPE   C1118369   1.358   2.776  64.049 -0.4576 -0.1632  0.3062
  164SOPE  H11A18370   1.261   2.745  64.092  0.2240 -3.7071 -0.4531
  164SOPE  H11B18371   1.346   2.799  63.940 -1.0631  2.1298  0.7839
  164SOPE     P18372   1.505   2.993  64.040 -0.1873  0.1860  0.3533
  164SOPE   O1318373   1.544   3.108  64.124  0.7611 -0.4526  0.0118
  164SOPE   O1418374   1.440   3.042  63.918  0.3371 -0.5917  0.9905
  164SOPE   O1218375   1.423   2.879  64.113 -0.0203  0.0350  0.7421
  164SOPE   O1118376   1.635   2.903  63.997  0.1860  0.0678  0.4135
  164SOPE    C118377   1.717   2.927  63.883  0.3262  0.0573 -1.1169
  164SOPE    HA18378   1.653   2.938  63.793 -0.6691 -0.7209 -0.5186
  164SOPE    HB18379   1.775   2.833  63.870  2.4257  0.6562  2.6534
  164SOPE    C218380   1.823   3.045  63.890 -0.2574 -0.6766 -0.1812
  164SOPE    HS18381   1.908   3.026  63.822 -2.6013 -4.2977 -2.4257
  164SOPE   O2118382   1.851   3.073  64.028 -0.1666  0.5300  0.5831
  164SOPE   C2118383   1.929   2.978  64.084 -0.8600  0.7818 -0.3705
  164SOPE   O2218384   1.978   2.884  64.017  0.3328 -0.9218 -1.1588
  164SOPE   C2218385   1.960   3.010  64.231 -0.2470 -0.5634 -0.5454
  164SOPE   H2R18386   1.959   3.120  64.247  0.2887 -0.2142 -2.5707
  164SOPE   H2S18387   2.063   2.973  64.254  0.0868  1.2638  1.1297
  164SOPE    C318388   1.772   3.175  63.831  0.3463  1.0292  0.1186
  164SOPE    HX18389   1.699   3.225  63.897 -0.1294  2.2075 -1.2464
  164SOPE    HY18390   1.725   3.145  63.734  2.5546 -0.8987 -0.4650
  164SOPE   O3118391   1.887   3.268  63.805  0.1398  0.6816  0.2626
  164SOPE   C3118392   1.853   3.393  63.771  0.9078  0.0199 -0.3324
  164SOPE   O3218393   1.742   3.423  63.729  0.3814  0.4100 -0.1271
  164SOPE   C3218394   1.968   3.489  63.789 -0.0724  0.8215 -0.4692
  164SOPE   H2X18395   1.937   3.594  63.771  0.1754  1.0891  0.5804
  164SOPE   H2Y18396   2.043   3.450  63.716  2.5073 -0.4616  2.6089
  164SOPE   C2318397   1.857   2.944  64.331  0.8684 -0.0496 -0.9865
  164SOPE   H3R18398   1.845   2.834  64.316 -1.7143  0.1855 -1.2456
  164SOPE   H3S18399   1.757   2.986  64.305  1.1307  2.6192  1.8137
  164SOPE   C2418400   1.904   2.982  64.474  0.2471 -0.0466 -0.6456
  164SOPE   H4R18401   1.903   3.091  64.496 -4.1326  0.2093 -1.2507
  164SOPE   H4S18402   1.840   2.935  64.551  2.3273 -0.3548  0.9789
  164SOPE   C2518403   2.045   2.927  64.531  0.2504 -0.6767  0.4484
  164SOPE   H5R18404   2.125   2.990  64.488 -0.9548  1.4449  1.1589
  164SOPE   H5S18405   2.045   2.946  64.640  1.3704 -3.8472  1.1075
  164SOPE   C2618406   2.071   2.772  64.499  0.2982 -0.1130 -0.2704
  164SOPE   H6R18407   1.976   2.725  64.532  1.9484 -1.7451  2.6024
  164SOPE   H6S18408   2.106   2.770  64.394 -1.8350 -0.2297 -1.0134
  164SOPE   C2718409   2.173   2.693  64.591 -0.4721 -0.1178  0.3092
  164SOPE   H7R18410   2.203   2.603  64.532  1.0578  2.3153 -2.9722
  164SOPE   H7S18411   2.266   2.754  64.600  0.1298 -0.7348 -1.3150
  164SOPE   C2818412   2.108   2.655  64.726 -1.1083  0.3447 -0.4197
  164SOPE   H8R18413   2.084   2.750  64.778  0.6435 -0.7156  2.5824
  164SOPE   H8S18414   2.008   2.608  64.712 -0.7732 -0.9555  1.2526
  164SOPE   C2918415   2.205   2.574  64.801 -0.5746  0.5069  0.3854
  164SOPE   H9118416   2.248   2.494  64.738  0.8420  0.0493  1.8782
  164SOPE  C21018417   2.225   2.567  64.937  0.7854 -0.8064  0.8025
  164SOPE  H10118418   2.301   2.502  64.984  1.9824  1.3675  1.9926
  164SOPE  C21118419   2.154   2.643  65.044  0.7664 -0.0374  0.2554
  164SOPE  H11R18420   2.076   2.577  65.089 -0.2022  0.4148 -0.7167
  164SOPE  H11S18421   2.087   2.712  64.988  2.8546  0.2602 -2.0070
  164SOPE  C21218422   2.226   2.725  65.156  0.8071 -0.1427 -0.0141
  164SOPE  H12R18423   2.309   2.781  65.108  1.6485 -1.8815 -0.6731
  164SOPE  H12S18424   2.281   2.648  65.215  0.9948 -1.3666 -1.7013
  164SOPE  C21318425   2.152   2.815  65.249  0.6981 -0.8658 -0.7937
  164SOPE  H13R18426   2.079   2.749  65.301  1.0743 -0.9673 -0.3890
  164SOPE  H13S18427   2.105   2.899  65.192 -1.4863 -0.2655  1.6624
  164SOPE  C21418428   2.228   2.891  65.361  0.4152 -0.9914  0.1667
  164SOPE  H14R18429   2.329   2.912  65.319  0.4226  0.8610  1.0121
  164SOPE  H14S18430   2.255   2.823  65.446  1.6034 -0.8123 -0.0394
  164SOPE  C21518431   2.174   3.013  65.422  0.2031 -0.6646 -0.6733
  164SOPE  H15R18432   2.066   3.008  65.395 -0.2567 -2.0717  1.3030
  164SOPE  H15S18433   2.225   3.104  65.382 -1.9021  1.8666  1.9206
  164SOPE  C21618434   2.193   2.998  65.578 -0.0006 -0.5032 -0.2072
  164SOPE  H16R18435   2.184   3.102  65.618  1.3397  0.0243 -1.1742
  164SOPE  H16S18436   2.301   2.974  65.592  0.2112  1.0808  1.1733
  164SOPE  C21718437   2.097   2.901  65.661 -0.0319 -0.6115 -0.7914
  164SOPE  H17R18438   2.093   2.794  65.633 -0.1352 -0.9424  0.4294
  164SOPE  H17S18439   1.996   2.931  65.627  0.7416  1.9293 -1.0544
  164SOPE  C21818440   2.089   2.926  65.811 -0.0163  0.0853 -0.3282
  164SOPE  H18R18441   2.188   2.926  65.862 -2.1706  0.6343  4.4007
  164SOPE  H18S18442   2.021   2.850  65.856 -1.1547  1.4347  0.2924
  164SOPE  H18T18443   2.053   3.031  65.812  1.6571  0.7071 -1.6508
  164SOPE   C3318444   2.023   3.460  63.936 -0.7003 -0.0920 -0.3244
  164SOPE   H3X18445   2.093   3.375  63.920  0.2992  0.5258  0.6207
  164SOPE   H3Y18446   1.949   3.436  64.015 -0.5591  0.4912 -0.0166
  164SOPE   C3418447   2.100   3.586  63.990  0.1703  0.5156  0.7473
  164SOPE   H4X18448   2.034   3.671  63.963 -3.2920 -1.2353  2.9709
  164SOPE   H4Y18449   2.193   3.597  63.930  0.8649 -3.7787  0.7052
  164SOPE   C3518450   2.128   3.572  64.143  1.2158 -0.4140 -0.6917
  164SOPE   H5X18451   2.181   3.477  64.166 -0.9704 -1.3446  0.7750
  164SOPE   H5Y18452   2.031   3.551  64.192 -0.0538 -1.5711 -3.4897
  164SOPE   C3618453   2.204   3.694  64.196 -1.2846 -0.6264  0.2694
  164SOPE   H6X18454   2.158   3.787  64.156  2.0747  0.6387 -1.0874
  164SOPE   H6Y18455   2.308   3.695  64.156 -0.2358  0.2882  2.7512
  164SOPE   C3718456   2.230   3.714  64.352  0.8021 -0.3604 -0.1891
  164SOPE   H7X18457   2.316   3.784  64.361  1.1633 -1.0047  1.8715
  164SOPE   H7Y18458   2.269   3.615  64.385  3.2440  0.7331  0.4698
  164SOPE   C3818459   2.099   3.732  64.436  0.1415 -0.5046  0.3334
  164SOPE   H8X18460   2.081   3.657  64.515 -2.6485  0.8058  1.0454
  164SOPE   H8Y18461   2.015   3.723  64.364 -1.3146 -2.9997  2.1554
  164SOPE   C3918462   2.096   3.866  64.507  1.0860  0.1704 -0.0593
  164SOPE   H9X18463   1.991   3.890  64.531  0.5156 -3.1095  1.2781
  164SOPE   H9Y18464   2.124   3.947  64.436 -1.1061 -0.1174 -1.3451
  164SOPE  C31018465   2.157   3.880  64.636 -0.0495  0.0117 -1.0048
  164SOPE  H10X18466   2.266   3.859  64.640 -0.0883 -0.0381  1.1703
  164SOPE  H10Y18467   2.116   3.794  64.693  0.5691  0.3641 -0.0006
  164SOPE  C31118468   2.127   4.015  64.691 -1.1297  0.0883 -1.2079
  164SOPE  H11X18469   2.018   4.033  64.704 -0.9876  1.5651 -1.8587
  164SOPE  H11Y18470   2.172   4.091  64.624 -0.2895 -0.1162 -0.8940
  164SOPE  C31218471   2.180   4.016  64.836 -0.0517  0.2583  0.7197
  164SOPE  H12X18472   2.124   3.946  64.900  1.6045 -1.3200  0.5193
  164SOPE  H12Y18473   2.141   4.116  64.864  0.6225  1.3209 -1.8380
  164SOPE  C31318474   2.336   4.006  64.843  0.4968  0.4137  0.5574
  164SOPE  H13X18475   2.375   4.094  64.787  3.0060 -0.6362  0.4845
  164SOPE  H13Y18476   2.375   3.912  64.797  0.4073  1.3203 -1.4531
  164SOPE  C31418477   2.376   3.993  64.990 -1.0386 -0.6760 -0.4258
  164SOPE  H14X18478   2.375   3.885  65.019 -0.3396 -0.7859 -0.7874
  164SOPE  H14Y18479   2.298   4.053  65.040 -0.4821  3.3603 -3.8647
  164SOPE  C31518480   2.516   4.045  65.032 -0.0847  0.3626 -0.4001
  164SOPE  H15X18481   2.523   4.008  65.137 -0.2046  1.5344  0.0392
  164SOPE  H15Y18482   2.500   4.154  65.021  0.1149  0.3240 -1.0941
  164SOPE  C31618483   2.643   4.009  64.955  0.2140  0.8401 -0.1984
  164SOPE  H16X18484   2.721   4.087  64.944 -0.6105  1.7497  0.2254
  164SOPE  H16Y18485   2.618   3.956  64.861 -1.0723  0.8208  0.1331
  164SOPE  C31718486   2.725   3.905  65.038  0.8947  0.7601 -0.8650
  164SOPE  H17X18487   2.649   3.830  65.066  0.5866  0.4167 -2.5588
  164SOPE  H17Y18488   2.772   3.957  65.125  1.4092 -0.1976 -0.5680
  164SOPE  C31818489   2.836   3.836  64.959 -0.7734  0.6729 -1.6489
  164SOPE  H18X18490   2.912   3.795  65.029 -0.8035  1.3711 -1.2020
  164SOPE  H18Y18491   2.903   3.896  64.894  1.0083 -1.1840 -1.6421
  164SOPE  H18Z18492   2.782   3.774  64.884 -3.9112  0.5890  0.4975
  165SOPE     N18493   0.631   0.812  57.609 -0.4241  0.4784  0.7457
  165SOPE   HN118494   0.637   0.808  57.713  1.9567 -2.7853  0.6476
  165SOPE   HN218495   0.531   0.790  57.591  0.0515 -0.3542 -1.0628
  165SOPE   HN318496   0.687   0.729  57.581 -1.3891  0.0898 -0.1258
  165SOPE   C1218497   0.683   0.945  57.552 -0.7112 -0.1838  0.1841
  165SOPE  H12A18498   0.726   0.927  57.451 -1.5161 -0.9368 -0.0325
  165SOPE  H12B18499   0.767   0.986  57.613  0.3636  1.3470 -2.1785
  165SOPE   C1118500   0.578   1.064  57.556  0.6030  0.1335  0.3254
  165SOPE  H11A18501   0.515   1.074  57.466  1.5931 -0.0754 -0.4045
  165SOPE  H11B18502   0.636   1.158  57.544 -0.1487  0.4231 -1.1693
  165SOPE     P18503   0.567   1.131  57.802 -0.2157  0.3606 -0.1531
  165SOPE   O1318504   0.664   1.034  57.847 -0.4961 -0.2099  0.1471
  165SOPE   O1418505   0.469   1.179  57.903 -0.4609 -0.0003 -0.1312
  165SOPE   O1218506   0.498   1.063  57.674  0.9770 -0.2995 -0.0928
  165SOPE   O1118507   0.636   1.258  57.729  0.1554  0.4051 -0.9389
  165SOPE    C118508   0.566   1.378  57.704  0.9672 -0.8041 -0.7517
  165SOPE    HA18509   0.530   1.411  57.804  0.0455 -1.0868 -0.9804
  165SOPE    HB18510   0.471   1.358  57.651 -0.5168  4.1662 -0.4691
  165SOPE    C218511   0.643   1.485  57.621 -0.7110  0.0004  0.7631
  165SOPE    HS18512   0.736   1.511  57.676 -0.5425 -0.5876  0.7659
  165SOPE   O2118513   0.548   1.598  57.612  0.2462  0.0296 -0.2544
  165SOPE   C2118514   0.608   1.716  57.602  0.4103 -0.6798 -0.3212
  165SOPE   O2218515   0.730   1.730  57.610 -0.3450 -0.4261 -0.3484
  165SOPE   C2218516   0.514   1.840  57.560  0.6863  0.2400 -0.9064
  165SOPE   H2R18517   0.591   1.915  57.533 -1.6253  2.5712 -1.3580
  165SOPE   H2S18518   0.447   1.877  57.640 -1.0215  0.9900 -2.6161
  165SOPE    C318519   0.681   1.433  57.473  0.2998 -0.3624 -0.6476
  165SOPE    HX18520   0.756   1.352  57.486 -0.9188 -1.5398 -0.7897
  165SOPE    HY18521   0.731   1.526  57.436 -2.3983  2.0221  1.2850
  165SOPE   O3118522   0.565   1.405  57.406 -0.0793  0.2224 -0.0317
  165SOPE   C3118523   0.589   1.328  57.296 -0.3777  0.3378 -0.3904
  165SOPE   O3218524   0.706   1.297  57.267 -0.5208  0.0867  0.1071
  165SOPE   C3218525   0.460   1.284  57.226 -0.4154  0.1715 -0.8311
  165SOPE   H2X18526   0.382   1.335  57.285 -1.4644 -2.5240  0.2734
  165SOPE   H2Y18527   0.455   1.174  57.238 -0.6618  0.3871  1.2858
  165SOPE   C2318528   0.425   1.806  57.443  0.1951  0.2387  0.6888
  165SOPE   H3R18529   0.352   1.733  57.486 -1.2523  1.0451 -0.3382
  165SOPE   H3S18530   0.482   1.755  57.362  3.0032  1.7197  1.5908
  165SOPE   C2418531   0.357   1.919  57.366 -0.9943  0.4419  0.6331
  165SOPE   H4R18532   0.333   1.882  57.264  1.4260  0.3424  0.0410
  165SOPE   H4S18533   0.269   1.954  57.424 -0.5605  1.7190  0.5543
  165SOPE   C2518534   0.440   2.038  57.329 -0.2284  0.4274 -0.1871
  165SOPE   H5R18535   0.372   2.111  57.282 -0.7675  0.8946  1.2449
  165SOPE   H5S18536   0.477   2.088  57.422  2.5730  1.7514 -1.8818
  165SOPE   C2618537   0.557   2.004  57.239 -0.8130 -0.6140  0.5335
  165SOPE   H6R18538   0.602   1.906  57.265  1.7408 -0.7455 -3.5635
  165SOPE   H6S18539   0.517   2.004  57.135  0.2625  0.8776  0.0961
  165SOPE   C2718540   0.667   2.114  57.231  1.1235 -0.0668  0.4363
  165SOPE   H7R18541   0.650   2.202  57.165 -0.7965 -0.1005  0.8296
  165SOPE   H7S18542   0.685   2.150  57.335 -0.7462  1.2937  0.3293
  165SOPE   C2818543   0.811   2.051  57.196  0.2785  0.6097  0.4274
  165SOPE   H8R18544   0.893   2.122  57.219  0.8063 -0.1687  0.9729
  165SOPE   H8S18545   0.840   1.958  57.250  0.4424  0.1001 -0.5177
  165SOPE   C2918546   0.806   2.016  57.044  0.2496 -0.4570 -0.6980
  165SOPE   H9118547   0.710   1.966  57.025 -1.4795  2.3787 -0.1514
  165SOPE  C21018548   0.895   2.059  56.950 -0.1854 -0.7483  0.1915
  165SOPE  H10118549   0.886   2.020  56.847 -1.0629 -0.4720  0.1577
  165SOPE  C21118550   1.025   2.127  56.975 -0.0945 -0.3642 -0.2098
  165SOPE  H11R18551   1.020   2.202  57.057  1.9264  0.7883 -1.0654
  165SOPE  H11S18552   1.048   2.178  56.879 -2.1503  0.9068 -0.0907
  165SOPE  C21218553   1.148   2.047  57.010  0.0226  0.6223 -0.9069
  165SOPE  H12R18554   1.157   1.952  56.953 -1.3232  0.1333 -0.3396
  165SOPE  H12S18555   1.131   2.022  57.117  0.6792 -0.7052 -1.0852
  165SOPE  C21318556   1.283   2.117  56.998  0.8774 -0.3651  0.2565
  165SOPE  H13R18557   1.276   2.213  57.053 -1.5713 -0.3815  0.1076
  165SOPE  H13S18558   1.291   2.150  56.892 -0.9675 -0.6180 -0.0032
  165SOPE  C21418559   1.403   2.029  57.035 -0.2839  0.1795  0.3346
  165SOPE  H14R18560   1.418   1.947  56.961 -0.9670  0.6439 -0.3304
  165SOPE  H14S18561   1.373   1.982  57.131 -0.8861 -0.1042  0.0145
  165SOPE  C21518562   1.539   2.111  57.041 -0.4440 -0.8253  0.0882
  165SOPE  H15R18563   1.634   2.055  57.057  0.5867  1.2075  1.4497
  165SOPE  H15S18564   1.539   2.185  57.123  1.8109 -0.4342 -0.2190
  165SOPE  C21618565   1.561   2.200  56.920 -0.7940 -0.2211  0.1433
  165SOPE  H16R18566   1.501   2.293  56.915 -1.4773 -0.7175 -1.5546
  165SOPE  H16S18567   1.522   2.138  56.837 -1.3093 -1.5819  1.3548
  165SOPE  C21718568   1.697   2.256  56.903  0.2432  0.4094  0.5878
  165SOPE  H17R18569   1.762   2.166  56.909  0.3682  0.4781  0.2932
  165SOPE  H17S18570   1.728   2.325  56.985  2.1424  3.2901 -2.2984
  165SOPE  C21818571   1.713   2.317  56.765  0.1965  0.9525  0.3806
  165SOPE  H18R18572   1.679   2.241  56.691 -0.5370  1.3015  0.3569
  165SOPE  H18S18573   1.822   2.335  56.749  0.3132 -1.1292 -1.8175
  165SOPE  H18T18574   1.671   2.418  56.747  1.8900  1.2950 -2.3219
  165SOPE   C3318575   0.455   1.320  57.071  0.0431  0.1652 -0.6039
  165SOPE   H3X18576   0.378   1.256  57.024  1.6695 -2.5020  0.1165
  165SOPE   H3Y18577   0.556   1.284  57.039 -0.9692 -4.4871  0.5948
  165SOPE   C3418578   0.426   1.471  57.059 -0.0581 -0.8429 -0.3943
  165SOPE   H4X18579   0.511   1.517  57.115  0.1515 -3.2474  1.4771
  165SOPE   H4Y18580   0.326   1.502  57.097  1.2606  4.2507 -0.4044
  165SOPE   C3518581   0.437   1.502  56.915  0.2127 -0.0497  0.1202
  165SOPE   H5X18582   0.365   1.435  56.864 -0.4402 -0.6077  1.7207
  165SOPE   H5Y18583   0.531   1.471  56.864  0.0587  0.9697 -0.7983
  165SOPE   C3618584   0.421   1.651  56.884 -0.1479  0.1302 -0.2220
  165SOPE   H6X18585   0.503   1.709  56.930  0.7484 -1.6161  0.4849
  165SOPE   H6Y18586   0.320   1.687  56.915 -0.0840 -1.2770  1.8226
  165SOPE   C3718587   0.435   1.672  56.728 -0.3510 -0.4480 -0.4803
  165SOPE   H7X18588   0.345   1.613  56.699 -0.4134 -0.2192 -0.7456
  165SOPE   H7Y18589   0.525   1.623  56.686  1.1462  0.3902  1.5820
  165SOPE   C3818590   0.430   1.823  56.704  0.4403 -0.6673  0.0204
  165SOPE   H8X18591   0.535   1.851  56.680  0.2258 -0.6759 -0.9614
  165SOPE   H8Y18592   0.403   1.868  56.801  0.7012  1.7205 -0.9455
  165SOPE   C3918593   0.358   1.884  56.581  0.3693 -0.2165  0.4035
  165SOPE   H9X18594   0.378   1.993  56.577  3.2756 -0.7084 -1.1798
  165SOPE   H9Y18595   0.248   1.867  56.586  0.0314  0.9576 -2.0252
  165SOPE  C31018596   0.387   1.823  56.438 -0.0342  0.2697  0.4181
  165SOPE  H10X18597   0.403   1.714  56.448 -1.9573  0.0099  1.2454
  165SOPE  H10Y18598   0.481   1.877  56.412  0.0579 -0.1728 -0.1774
  165SOPE  C31118599   0.261   1.855  56.352  1.2302 -0.0833 -0.0850
  165SOPE  H11X18600   0.280   1.940  56.283 -0.0482 -0.8624 -1.4556
  165SOPE  H11Y18601   0.174   1.880  56.417  0.9274 -1.2605 -0.0185
  165SOPE  C31218602   0.208   1.736  56.264  0.9117 -0.2461  0.4735
  165SOPE  H12X18603   0.296   1.679  56.228  0.4757 -1.6958  1.5752
  165SOPE  H12Y18604   0.170   1.780  56.170  0.5116  0.6668  1.0545
  165SOPE  C31318605   0.114   1.641  56.331 -0.0878  0.1004 -0.1608
  165SOPE  H13X18606   0.053   1.588  56.255  0.4790 -0.0319 -0.5274
  165SOPE  H13Y18607   0.044   1.677  56.409  0.7042  0.0889  0.5750
  165SOPE  C31418608   0.198   1.528  56.394  0.3266  0.0702 -0.7412
  165SOPE  H14X18609   0.242   1.549  56.494 -1.3038  2.3248 -0.4028
  165SOPE  H14Y18610   0.289   1.497  56.339  1.1749 -0.5550  0.9483
  165SOPE  C31518611   0.113   1.399  56.431 -0.1975 -0.1605 -0.8950
  165SOPE  H15X18612   0.017   1.442  56.468  2.2248  3.0323  2.3059
  165SOPE  H15Y18613   0.173   1.350  56.511 -0.3290 -0.9692 -1.2704
  165SOPE  C31618614   0.097   1.313  56.305 -0.4994 -0.2699  0.4995
  165SOPE  H16X18615   0.201   1.289  56.273 -1.0141  1.1931 -2.6127
  165SOPE  H16Y18616   0.032   1.372  56.237 -1.7793 -1.8133  0.3322
  165SOPE  C31718617   0.037   1.179  56.332 -0.0106  1.2293  0.1296
  165SOPE  H17X18618   0.001   1.121  56.244  1.3417 -0.8506  0.8517
  165SOPE  H17Y18619  -0.040   1.179  56.412  1.5741  4.3893  1.7990
  165SOPE  C31818620   0.130   1.081  56.411 -0.2808  0.5223 -0.0438
  165SOPE  H18X18621   0.223   1.051  56.358 -0.9023 -0.6154 -0.5245
  165SOPE  H18Y18622   0.076   0.984  56.416  3.2343 -1.8077 -2.3139
  165SOPE  H18Z18623   0.155   1.119  56.512 -2.1165  3.7310 -0.6687
  166SOPE     N18624   2.372   0.727  59.146  0.6085  0.8926  0.2382
  166SOPE   HN118625   2.270   0.727  59.126 -0.0679 -2.0259  2.8875
  166SOPE   HN218626   2.416   0.689  59.059 -1.7569 -0.6011 -0.3907
  166SOPE   HN318627   2.400   0.655  59.215  0.9321  1.0773  0.3062
  166SOPE   C1218628   2.420   0.865  59.188  0.2969 -0.3790 -0.5172
  166SOPE  H12A18629   2.417   0.861  59.299  0.1342 -0.1649 -0.5120
  166SOPE  H12B18630   2.352   0.942  59.145 -0.8039 -0.4715  0.9953
  166SOPE   C1118631   2.568   0.902  59.167  0.9357  0.4186  0.1187
  166SOPE  H11A18632   2.570   1.011  59.188  0.2114  0.3333  0.6696
  166SOPE  H11B18633   2.590   0.873  59.062  1.6492 -2.4167  0.9547
  166SOPE     P18634   2.785   0.788  59.237  0.0364  0.1068 -0.0340
  166SOPE   O1318635   2.775   0.700  59.119  0.1800 -0.8648 -0.4549
  166SOPE   O1418636   2.821   0.718  59.358  0.1469  0.2195 -0.1178
  166SOPE   O1218637   2.639   0.831  59.274  0.6987  0.0222  0.3187
  166SOPE   O1118638   2.859   0.925  59.214 -0.1268  0.0052 -0.2701
  166SOPE    C118639   2.880   1.028  59.325 -0.5496  0.5052  0.3714
  166SOPE    HA18640   2.986   1.021  59.356 -0.8331 -1.4033  1.0901
  166SOPE    HB18641   2.814   1.008  59.412 -2.4913 -1.7188 -1.4406
  166SOPE    C218642   2.851   1.177  59.271 -0.1689 -0.3395  1.7952
  166SOPE    HS18643   2.915   1.253  59.320 -0.4063  2.5293 -1.8824
  166SOPE   O2118644   2.715   1.210  59.291  0.3407 -0.0228  0.2913
  166SOPE   C2118645   2.674   1.236  59.414  0.1059 -0.7433  0.4907
  166SOPE   O2218646   2.740   1.242  59.517  0.3390  0.1303 -0.1384
  166SOPE   C2218647   2.532   1.296  59.401  0.7725  0.2570  0.5840
  166SOPE   H2R18648   2.479   1.202  59.372  1.9411 -0.6547  1.3467
  166SOPE   H2S18649   2.536   1.367  59.316 -0.3506 -0.1105  0.2003
  166SOPE    C318650   2.894   1.207  59.119  0.3479 -0.0247 -0.6351
  166SOPE    HX18651   2.812   1.147  59.075  1.6196 -0.3867 -2.6519
  166SOPE    HY18652   2.992   1.159  59.098 -0.1945 -0.7233 -1.6434
  166SOPE   O3118653   2.884   1.348  59.092  0.5234 -0.5472 -0.5787
  166SOPE   C3118654   2.975   1.422  59.152  0.1729 -0.6626  0.9110
  166SOPE   O3218655   3.075   1.387  59.209  0.3759  0.5166  0.0638
  166SOPE   C3218656   2.929   1.568  59.138 -0.0605  0.9620 -0.1609
  166SOPE   H2X18657   2.826   1.565  59.097  0.5516  1.3666 -1.8072
  166SOPE   H2Y18658   2.990   1.629  59.068  2.9741 -2.2995 -0.6477
  166SOPE   C2318659   2.484   1.369  59.529  0.8055  0.0334  0.2909
  166SOPE   H3R18660   2.515   1.474  59.543 -1.7496  0.7442  1.1747
  166SOPE   H3S18661   2.526   1.313  59.616 -1.5634  0.4889  1.8157
  166SOPE   C2418662   2.326   1.384  59.521 -0.2563  0.8105 -0.6709
  166SOPE   H4R18663   2.308   1.469  59.451 -0.6303 -1.9196 -4.1705
  166SOPE   H4S18664   2.274   1.290  59.495  1.1528 -0.7583  1.7545
  166SOPE   C2518665   2.284   1.441  59.657  0.5604 -1.0564  0.7837
  166SOPE   H5R18666   2.277   1.364  59.737  0.8729 -2.2716 -0.3326
  166SOPE   H5S18667   2.351   1.523  59.690 -1.3084  0.8106  0.1725
  166SOPE   C2618668   2.147   1.513  59.645 -0.7068  0.0057  0.4388
  166SOPE   H6R18669   2.161   1.593  59.568  0.8966 -1.1444 -0.5163
  166SOPE   H6S18670   2.059   1.456  59.607 -4.0790  3.8567  1.7012
  166SOPE   C2718671   2.126   1.579  59.780  0.3799  0.4054  0.4712
  166SOPE   H7R18672   2.146   1.494  59.848  3.2120  1.4772  1.1035
  166SOPE   H7S18673   2.204   1.652  59.812  2.2691 -2.2131  2.1775
  166SOPE   C2818674   1.983   1.639  59.790  0.5570 -0.3870 -1.3801
  166SOPE   H8R18675   1.959   1.712  59.710 -2.5358  0.5304  0.2469
  166SOPE   H8S18676   1.907   1.558  59.783  1.5579 -1.4570 -0.3543
  166SOPE   C2918677   1.965   1.735  59.910 -0.0784  0.2352  0.8316
  166SOPE   H9118678   1.975   1.837  59.873  1.1492 -0.2229 -0.1596
  166SOPE  C21018679   1.945   1.696  60.038  0.2477 -0.2776  0.3389
  166SOPE  H10118680   1.950   1.768  60.121 -0.5558  0.8538 -0.5588
  166SOPE  C21118681   1.950   1.560  60.101 -0.3580  0.0224 -0.1896
  166SOPE  H11R18682   1.927   1.485  60.023  1.1154  0.1902 -0.8165
  166SOPE  H11S18683   1.857   1.541  60.159 -1.4923  2.2647 -1.1375
  166SOPE  C21218684   2.082   1.526  60.170  0.1804 -0.4119 -0.6755
  166SOPE  H12R18685   2.096   1.606  60.245 -0.0775  1.4549 -2.5419
  166SOPE  H12S18686   2.162   1.545  60.096  0.2015  0.6828 -0.3904
  166SOPE  C21318687   2.101   1.385  60.239 -0.2393 -0.2815  0.6354
  166SOPE  H13R18688   2.209   1.382  60.268 -0.4180  0.0682  1.3622
  166SOPE  H13S18689   2.091   1.299  60.170  3.2308 -1.0150  0.8591
  166SOPE  C21418690   1.998   1.365  60.349 -0.3194  0.1376 -0.3761
  166SOPE  H14R18691   1.905   1.329  60.300  0.3976  2.9042 -4.2249
  166SOPE  H14S18692   1.975   1.463  60.399 -1.4135 -0.0222 -0.5379
  166SOPE  C21518693   2.064   1.290  60.463  1.0684 -0.1307  0.3960
  166SOPE  H15R18694   2.155   1.343  60.498 -0.2542  1.6622  1.2739
  166SOPE  H15S18695   2.092   1.187  60.433  1.1315 -0.7099  2.3457
  166SOPE  C21618696   1.976   1.264  60.587 -0.0480  0.8286 -0.0128
  166SOPE  H16R18697   2.026   1.192  60.655 -3.2515 -3.7715 -2.0727
  166SOPE  H16S18698   1.888   1.204  60.555  1.7004 -1.3384 -0.9788
  166SOPE  C21718699   1.935   1.387  60.665 -0.0226 -0.4474 -0.3694
  166SOPE  H17R18700   1.863   1.450  60.608  0.3255 -0.7027 -1.1036
  166SOPE  H17S18701   2.026   1.446  60.691  0.3742 -1.1807 -0.0735
  166SOPE  C21818702   1.856   1.356  60.792 -0.7070  0.0863 -0.3283
  166SOPE  H18R18703   1.806   1.258  60.777  2.6349 -1.7560 -0.3282
  166SOPE  H18S18704   1.789   1.440  60.818  0.3525  0.2034  2.3803
  166SOPE  H18T18705   1.910   1.350  60.889 -2.0598 -1.2763  0.3735
  166SOPE   C3318706   2.948   1.650  59.257  0.9798  0.3538 -0.1845
  166SOPE   H3X18707   2.926   1.758  59.241 -1.0705 -0.2368 -1.7507
  166SOPE   H3Y18708   3.050   1.634  59.298  0.8327  2.0726  0.9429
  166SOPE   C3418709   2.853   1.624  59.378  0.1074  0.2319 -0.4893
  166SOPE   H4X18710   2.873   1.520  59.412 -0.6319 -0.3520 -1.7678
  166SOPE   H4Y18711   2.748   1.630  59.341  0.8638  0.5496 -2.7286
  166SOPE   C3518712   2.876   1.725  59.496 -0.6395 -0.5596  0.3970
  166SOPE   H5X18713   2.899   1.820  59.444  1.4645 -0.2166  1.8317
  166SOPE   H5Y18714   2.967   1.698  59.552 -0.7462 -1.6727  0.0677
  166SOPE   C3618715   2.749   1.750  59.575 -1.2147  0.1372 -0.0057
  166SOPE   H6X18716   2.710   1.651  59.607 -1.1928 -0.7847 -2.6349
  166SOPE   H6Y18717   2.670   1.780  59.502 -2.7859 -1.2280  1.0446
  166SOPE   C3718718   2.764   1.857  59.684 -0.6877  1.1119 -0.1184
  166SOPE   H7X18719   2.843   1.839  59.759 -1.7539 -0.3603  0.7092
  166SOPE   H7Y18720   2.675   1.867  59.749  0.0125 -1.2871  1.3319
  166SOPE   C3818721   2.775   1.997  59.624  0.6159  0.1970  0.0627
  166SOPE   H8X18722   2.692   1.990  59.551 -1.7350 -0.7608  2.6818
  166SOPE   H8Y18723   2.876   2.008  59.578  0.0956  3.9142 -0.4952
  166SOPE   C3918724   2.751   2.104  59.724  0.5326  0.6626  0.8120
  166SOPE   H9X18725   2.822   2.082  59.807  2.2849  2.3171 -0.1658
  166SOPE   H9Y18726   2.654   2.110  59.777  0.4253  2.3547  0.4754
  166SOPE  C31018727   2.784   2.243  59.669 -0.7563  0.7703 -0.9973
  166SOPE  H10X18728   2.757   2.253  59.562  0.1747 -1.7273 -1.5308
  166SOPE  H10Y18729   2.894   2.257  59.671 -0.7756  0.8900  0.0786
  166SOPE  C31118730   2.737   2.354  59.769  0.2864 -0.1168  1.1154
  166SOPE  H11X18731   2.787   2.332  59.866  1.6655  1.4441  0.8041
  166SOPE  H11Y18732   2.629   2.334  59.754  0.7563  0.0059 -4.4593
  166SOPE  C31218733   2.771   2.486  59.701 -0.5613 -0.3832 -0.6542
  166SOPE  H12X18734   2.734   2.572  59.759  0.7845  1.0377 -1.8164
  166SOPE  H12Y18735   2.705   2.497  59.612 -1.4879 -0.1140  0.0548
  166SOPE  C31318736   2.918   2.531  59.668 -0.1691  1.2902 -0.1866
  166SOPE  H13X18737   2.948   2.502  59.565  2.7780  1.6804  0.4611
  166SOPE  H13Y18738   2.971   2.456  59.731 -3.3944 -0.0599  1.1479
  166SOPE  C31418739   2.951   2.677  59.703  0.6409 -0.2111 -0.5400
  166SOPE  H14X18740   2.905   2.711  59.799  1.2080 -0.6007 -0.1272
  166SOPE  H14Y18741   2.916   2.735  59.614 -1.4013  0.1550  0.4388
  166SOPE  C31518742   3.100   2.692  59.734  0.3140  0.3220 -0.1460
  166SOPE  H15X18743   3.158   2.659  59.644 -3.8554 -1.1302 -2.6190
  166SOPE  H15Y18744   3.115   2.618  59.815  0.6321  1.6974  1.0737
  166SOPE  C31618745   3.144   2.827  59.801 -0.0914 -0.4752  0.0510
  166SOPE  H16X18746   3.075   2.859  59.883 -1.4953  1.4191 -1.7751
  166SOPE  H16Y18747   3.132   2.912  59.731  2.6560  1.3001  1.5643
  166SOPE  C31718748   3.286   2.831  59.870  0.2072  0.0067 -0.1950
  166SOPE  H17X18749   3.363   2.808  59.793  1.2617 -1.9314  1.3419
  166SOPE  H17Y18750   3.282   2.743  59.938  1.5464 -2.1746 -2.7225
  166SOPE  C31818751   3.320   2.960  59.949  0.2197 -0.4858 -0.7081
  166SOPE  H18X18752   3.277   3.061  59.936  0.6713 -0.1246  0.4738
  166SOPE  H18Y18753   3.430   2.969  59.935  0.4876  0.3728  1.6051
  166SOPE  H18Z18754   3.319   2.944  60.059  0.8407  0.6099 -0.5280
  167SOPE     N18755   0.414   2.353  37.986  0.0104 -0.6224 -0.3938
  167SOPE   HN118756   0.316   2.386  37.999  0.9052  1.9940  0.4941
  167SOPE   HN218757   0.424   2.250  37.996  1.3696 -0.5435 -0.8092
  167SOPE   HN318758   0.460   2.393  38.071 -0.7593  1.8001 -1.0353
  167SOPE   C1218759   0.460   2.401  37.857  0.1964  0.1426 -0.2301
  167SOPE  H12A18760   0.465   2.512  37.861 -0.1083  0.1627 -0.4380
  167SOPE  H12B18761   0.388   2.368  37.780 -0.2209  1.1609 -0.2838
  167SOPE   C1118762   0.600   2.350  37.837 -0.2790  0.2065 -0.2556
  167SOPE  H11A18763   0.629   2.378  37.734  2.1266  0.9041  0.5322
  167SOPE  H11B18764   0.606   2.239  37.840  1.0512  0.2634 -0.2671
  167SOPE     P18765   0.768   2.538  37.912 -0.0218  0.4306  0.1297
  167SOPE   O1318766   0.697   2.656  37.956  0.0444 -0.8248 -0.6926
  167SOPE   O1418767   0.804   2.535  37.766  0.3232 -0.9356 -0.8383
  167SOPE   O1218768   0.685   2.402  37.941 -0.5808  0.3182 -0.9081
  167SOPE   O1118769   0.903   2.535  37.988 -0.6781 -0.2327 -0.2378
  167SOPE    C118770   0.960   2.416  38.037  0.1166  0.0666 -0.7290
  167SOPE    HA18771   1.069   2.436  38.030 -0.0944  0.8239 -2.2224
  167SOPE    HB18772   0.929   2.327  37.978  0.9300 -0.4526 -0.3953
  167SOPE    C218773   0.924   2.384  38.181 -0.5482 -1.1622  0.4265
  167SOPE    HS18774   0.813   2.389  38.181 -0.6971 -2.6369 -2.4310
  167SOPE   O2118775   0.983   2.493  38.259 -0.7387  0.5566  0.1923
  167SOPE   C2118776   0.910   2.568  38.343 -0.0571  0.2814 -0.1839
  167SOPE   O2218777   0.786   2.555  38.356 -0.4594  0.0848  0.1359
  167SOPE   C2218778   0.994   2.655  38.433  0.5917  0.1814 -0.1719
  167SOPE   H2R18779   1.004   2.747  38.373 -0.3401  0.2770 -0.1932
  167SOPE   H2S18780   1.094   2.608  38.439  1.2461  1.3646 -1.2834
  167SOPE    C318781   0.964   2.238  38.230 -0.2525 -0.5746  0.0784
  167SOPE    HX18782   1.074   2.230  38.238 -0.4074 -1.5234  1.4782
  167SOPE    HY18783   0.935   2.175  38.143 -1.5130  0.2117 -0.1021
  167SOPE   O3118784   0.910   2.200  38.360  0.3547 -0.1207 -0.3766
  167SOPE   C3118785   0.779   2.172  38.358 -0.2781 -0.7460  0.1067
  167SOPE   O3218786   0.709   2.175  38.257 -0.0143  0.4805  0.2738
  167SOPE   C3218787   0.729   2.157  38.502 -0.3331 -0.5342  0.6409
  167SOPE   H2X18788   0.734   2.259  38.546  0.6847 -0.6237  0.7598
  167SOPE   H2Y18789   0.792   2.079  38.551 -0.8507 -1.1703  0.3114
  167SOPE   C2318790   0.926   2.678  38.569 -0.3238 -0.2570  0.2508
  167SOPE   H3R18791   0.968   2.604  38.641 -1.4058  0.0974  1.2783
  167SOPE   H3S18792   0.815   2.675  38.564 -0.4241 -0.1513  1.7739
  167SOPE   C2418793   0.969   2.811  38.643 -0.2589  0.1501 -0.5016
  167SOPE   H4R18794   0.947   2.897  38.577  1.4866  0.9205 -0.1359
  167SOPE   H4S18795   0.906   2.828  38.733  0.5001 -0.6157  0.1970
  167SOPE   C2518796   1.120   2.833  38.676 -0.0624  0.2001 -0.1721
  167SOPE   H5R18797   1.187   2.810  38.590 -0.2112 -0.7480 -0.0545
  167SOPE   H5S18798   1.143   2.936  38.709  2.5883 -0.1897 -0.5139
  167SOPE   C2618799   1.158   2.748  38.799  0.0584  0.0025  0.9404
  167SOPE   H6R18800   1.093   2.759  38.889  0.7335  0.8263  1.3449
  167SOPE   H6S18801   1.154   2.642  38.766 -0.4820 -0.5126  2.5502
  167SOPE   C2718802   1.304   2.780  38.851 -0.6321 -0.0699  0.1384
  167SOPE   H7R18803   1.385   2.756  38.779 -2.6065 -3.1333 -1.2881
  167SOPE   H7S18804   1.311   2.888  38.876  2.8518  0.3218 -1.9760
  167SOPE   C2818805   1.358   2.713  38.979 -0.3177  0.6187 -0.9943
  167SOPE   H8R18806   1.275   2.706  39.053  1.6028 -0.3431  1.2190
  167SOPE   H8S18807   1.380   2.604  38.969 -0.2746  0.6128 -0.8500
  167SOPE   C2918808   1.483   2.778  39.041  0.3536 -0.7633  0.2050
  167SOPE   H9118809   1.576   2.746  38.992  1.3570 -0.1767  1.6532
  167SOPE  C21018810   1.492   2.861  39.148  1.2133 -0.4492 -0.5168
  167SOPE  H10118811   1.588   2.906  39.177  0.1012  1.6945  0.1019
  167SOPE  C21118812   1.373   2.917  39.220 -0.2977  0.2610  0.5822
  167SOPE  H11R18813   1.373   2.907  39.331 -1.2946  1.2522  0.6880
  167SOPE  H11S18814   1.281   2.874  39.175 -0.8496  1.4931  0.4977
  167SOPE  C21218815   1.345   3.067  39.191 -0.1686 -0.3289 -0.7831
  167SOPE  H12R18816   1.238   3.081  39.213 -0.0859 -2.1683  1.1233
  167SOPE  H12S18817   1.364   3.109  39.090 -0.2036  2.4069  0.2562
  167SOPE  C21318818   1.432   3.150  39.288  0.5441  0.7200  1.0084
  167SOPE  H13R18819   1.538   3.131  39.261 -0.5330 -3.1128 -1.3610
  167SOPE  H13S18820   1.425   3.125  39.397  0.1763 -0.5770  0.7118
  167SOPE  C21418821   1.397   3.300  39.286 -0.7109  0.0177 -0.4162
  167SOPE  H14R18822   1.290   3.318  39.312 -0.1253 -0.6959  2.8460
  167SOPE  H14S18823   1.405   3.339  39.182  0.4359  2.2938  0.4608
  167SOPE  C21518824   1.485   3.393  39.360 -0.2657  0.0945 -0.0094
  167SOPE  H15R18825   1.585   3.390  39.312 -1.0454  0.6348 -1.7173
  167SOPE  H15S18826   1.498   3.352  39.463 -1.5132 -0.8092 -0.1883
  167SOPE  C21618827   1.452   3.541  39.357  0.4210  0.0453  0.3100
  167SOPE  H16R18828   1.455   3.572  39.251 -0.0219 -2.1970 -0.4185
  167SOPE  H16S18829   1.523   3.604  39.414 -0.7832  2.1491 -0.4348
  167SOPE  C21718830   1.308   3.577  39.400 -0.4091  0.2784  0.1035
  167SOPE  H17R18831   1.276   3.533  39.497  0.2897 -1.2903 -0.3532
  167SOPE  H17S18832   1.248   3.525  39.323  0.5228 -1.6527  0.6282
  167SOPE  C21818833   1.278   3.729  39.405  0.1732  0.0269 -0.1515
  167SOPE  H18R18834   1.171   3.745  39.427  0.0259 -1.0944  0.0438
  167SOPE  H18S18835   1.296   3.774  39.305  0.5381  0.2522  0.0138
  167SOPE  H18T18836   1.351   3.772  39.476  0.7870 -1.5852  0.2493
  167SOPE   C3318837   0.578   2.111  38.511 -0.0132 -0.3962 -0.1869
  167SOPE   H3X18838   0.571   2.042  38.424  1.1057 -1.1643  0.3115
  167SOPE   H3Y18839   0.512   2.200  38.503 -0.0568 -0.5541 -1.8156
  167SOPE   C3418840   0.529   2.031  38.630  0.0356 -0.8093 -0.3638
  167SOPE   H4X18841   0.605   1.956  38.661 -2.1564 -2.2905  1.8275
  167SOPE   H4Y18842   0.426   1.991  38.617 -1.2000  2.3512 -1.1697
  167SOPE   C3518843   0.508   2.114  38.761 -0.1257  0.4520  0.9126
  167SOPE   H5X18844   0.415   2.173  38.750 -0.7120 -0.4788  0.7680
  167SOPE   H5Y18845   0.601   2.174  38.772 -0.1645  0.9619 -1.0647
  167SOPE   C3618846   0.481   2.022  38.877 -0.1905 -0.1206 -0.0914
  167SOPE   H6X18847   0.551   1.936  38.887 -1.0175 -0.9965 -1.4610
  167SOPE   H6Y18848   0.376   1.985  38.868 -0.5970  0.7023  1.0752
  167SOPE   C3718849   0.488   2.080  39.021  0.1930  0.0201 -0.6637
  167SOPE   H7X18850   0.388   2.123  39.039 -0.4858 -0.4791 -2.9345
  167SOPE   H7Y18851   0.566   2.159  39.016  1.3970 -1.0506  0.3557
  167SOPE   C3818852   0.514   1.979  39.129  0.4675 -0.1260  0.2690
  167SOPE   H8X18853   0.607   1.922  39.105 -0.2892 -0.9122 -0.9595
  167SOPE   H8Y18854   0.445   1.891  39.133  1.5096 -1.0011 -0.3438
  167SOPE   C3918855   0.506   2.038  39.266  0.7679 -0.4647  0.3837
  167SOPE   H9X18856   0.400   2.069  39.275  1.5768  2.8149  0.0881
  167SOPE   H9Y18857   0.548   2.140  39.281  1.3311 -0.7993  1.1778
  167SOPE  C31018858   0.551   1.947  39.376  0.9829  0.7110  0.3847
  167SOPE  H10X18859   0.658   1.917  39.377  0.9464  0.5753  1.5451
  167SOPE  H10Y18860   0.484   1.859  39.369  0.0362  1.4999 -0.7645
  167SOPE  C31118861   0.532   2.008  39.518  0.3876  0.8379  0.2783
  167SOPE  H11X18862   0.424   2.021  39.539 -0.1007 -1.2406 -0.7150
  167SOPE  H11Y18863   0.578   2.110  39.514 -1.3499  1.6488  0.0465
  167SOPE  C31218864   0.602   1.926  39.627  0.1927 -0.0199  0.1915
  167SOPE  H12X18865   0.712   1.924  39.612  0.3193 -0.0763  1.0956
  167SOPE  H12Y18866   0.563   1.822  39.625  1.7079 -0.6099 -1.6617
  167SOPE  C31318867   0.574   1.983  39.768 -0.4122  0.2122 -0.1152
  167SOPE  H13X18868   0.465   2.002  39.780 -0.5400 -1.3352  1.5889
  167SOPE  H13Y18869   0.636   2.075  39.769  0.8189 -0.5019 -2.9855
  167SOPE  C31418870   0.624   1.899  39.883 -0.4846  0.2529  0.3375
  167SOPE  H14X18871   0.732   1.909  39.859 -0.2318 -1.8768  0.4146
  167SOPE  H14Y18872   0.588   1.794  39.877 -0.7220  0.3151  0.6854
  167SOPE  C31518873   0.568   1.949  40.017  0.5989 -0.1704  0.5631
  167SOPE  H15X18874   0.465   1.909  40.028  0.3786  0.5882  1.4103
  167SOPE  H15Y18875   0.550   2.058  40.025 -1.8405 -0.4320 -0.3593
  167SOPE  C31618876   0.651   1.897  40.134  0.0727  0.0555  0.2630
  167SOPE  H16X18877   0.694   1.794  40.125 -1.3392 -0.4440 -1.1458
  167SOPE  H16Y18878   0.594   1.898  40.229  0.1781 -0.4425  0.3393
  167SOPE  C31718879   0.773   1.981  40.154 -0.1505 -0.4980  0.0324
  167SOPE  H17X18880   0.727   2.080  40.176 -0.0474 -0.3588 -0.3690
  167SOPE  H17Y18881   0.834   1.988  40.062  1.1180 -1.9321  0.7377
  167SOPE  C31818882   0.854   1.942  40.270 -1.0139  0.3841 -0.0006
  167SOPE  H18X18883   0.802   1.979  40.361 -1.4334 -0.2763  0.0380
  167SOPE  H18Y18884   0.954   1.989  40.260 -0.0073 -1.8718 -1.3165
  167SOPE  H18Z18885   0.878   1.834  40.284  2.2105  0.5430 -3.0321
  168SOPE     N18886   2.549   2.267  45.042 -0.3456 -0.4403 -0.1019
  168SOPE   HN118887   2.457   2.232  45.078 -0.2605 -0.5675 -0.0074
  168SOPE   HN218888   2.582   2.315  45.129 -4.0059  2.3513 -0.0115
  168SOPE   HN318889   2.525   2.341  44.973  1.9495  2.4005  1.9028
  168SOPE   C1218890   2.643   2.157  44.981  0.0469  0.4568 -0.6280
  168SOPE  H12A18891   2.641   2.064  45.042 -2.5744  0.5301 -0.4950
  168SOPE  H12B18892   2.746   2.198  44.984 -0.3119  1.5004 -1.6377
  168SOPE   C1118893   2.602   2.129  44.840  0.7603 -0.1212  0.4024
  168SOPE  H11A18894   2.507   2.072  44.843  0.7941 -0.1998  0.0056
  168SOPE  H11B18895   2.686   2.068  44.801  2.9273  1.5840  2.1107
  168SOPE     P18896   2.688   2.323  44.691 -0.1233 -0.1036  0.0364
  168SOPE   O1318897   2.816   2.288  44.754  0.3850 -0.9589 -0.3381
  168SOPE   O1418898   2.650   2.464  44.690 -0.1970 -0.1132 -0.1477
  168SOPE   O1218899   2.575   2.245  44.765 -0.0007  0.2939 -0.0116
  168SOPE   O1118900   2.689   2.267  44.544 -0.7701 -0.3442 -0.5750
  168SOPE    C118901   2.794   2.299  44.459 -0.3454 -0.0742 -0.0718
  168SOPE    HA18902   2.877   2.334  44.524 -0.1618 -0.8156  0.1063
  168SOPE    HB18903   2.764   2.370  44.379 -0.9828 -0.7987 -0.4971
  168SOPE    C218904   2.860   2.166  44.390 -0.4911  0.4140  0.5291
  168SOPE    HS18905   2.795   2.150  44.301 -1.5552 -1.9462  1.6214
  168SOPE   O2118906   2.866   2.054  44.493 -0.2524 -0.5141  0.4103
  168SOPE   C2118907   2.770   1.973  44.478 -0.2117 -0.4953 -1.0678
  168SOPE   O2218908   2.676   1.986  44.401 -0.3126  0.3182  0.2902
  168SOPE   C2218909   2.786   1.865  44.577 -0.9602 -0.6555  0.4642
  168SOPE   H2R18910   2.683   1.823  44.589 -1.6244  0.7561 -0.0312
  168SOPE   H2S18911   2.823   1.910  44.671  0.4926  1.1944 -0.9076
  168SOPE    C318912   3.006   2.198  44.348  0.1550 -0.3554 -0.2918
  168SOPE    HX18913   3.047   2.123  44.277  2.7728  2.9174 -2.5916
  168SOPE    HY18914   3.066   2.203  44.441  0.3782  0.1059 -0.4547
  168SOPE   O3118915   3.025   2.323  44.277  0.8441  0.5542  0.2998
  168SOPE   C3118916   2.983   2.314  44.145  0.1319 -0.1600 -1.0842
  168SOPE   O3218917   2.924   2.219  44.099  0.4300  0.2132 -0.0259
  168SOPE   C3218918   3.012   2.449  44.071 -0.1089 -0.0518  0.0242
  168SOPE   H2X18919   3.113   2.487  44.098 -0.3104  0.0050  0.7189
  168SOPE   H2Y18920   2.937   2.521  44.109 -0.4750 -0.3791 -0.0742
  168SOPE   C2318921   2.880   1.752  44.525 -0.1749 -0.1084  0.5177
  168SOPE   H3R18922   2.985   1.788  44.531  0.1360 -0.9297  0.1312
  168SOPE   H3S18923   2.867   1.736  44.416 -1.3216  0.8117  0.5021
  168SOPE   C2418924   2.862   1.619  44.594 -0.2848  0.1626 -0.6345
  168SOPE   H4R18925   2.882   1.637  44.702 -0.9793 -0.4981 -0.3882
  168SOPE   H4S18926   2.755   1.592  44.578 -0.1237 -1.2410  0.5116
  168SOPE   C2518927   2.957   1.502  44.544  0.5272  0.0408  0.0254
  168SOPE   H5R18928   2.971   1.530  44.437 -0.6335  5.4016  1.0118
  168SOPE   H5S18929   3.057   1.498  44.592  0.3085 -0.3933  0.4503
  168SOPE   C2618930   2.892   1.368  44.553  0.2038  0.6625 -0.1873
  168SOPE   H6R18931   2.878   1.344  44.661  0.4854 -3.8034 -0.9885
  168SOPE   H6S18932   2.787   1.371  44.517  0.6245 -0.4139 -1.5634
  168SOPE   C2718933   2.972   1.260  44.475  0.3028  0.4991 -0.2138
  168SOPE   H7R18934   3.003   1.320  44.387  2.3751  0.4598  0.4273
  168SOPE   H7S18935   3.066   1.239  44.532  0.8113  1.1955 -0.7798
  168SOPE   C2818936   2.890   1.136  44.463  0.1136  1.6095 -0.5440
  168SOPE   H8R18937   2.961   1.058  44.426  2.1836  2.7208  0.8797
  168SOPE   H8S18938   2.838   1.109  44.557 -0.7316  1.0922 -1.1518
  168SOPE   C2918939   2.776   1.162  44.362  0.9412  0.5182  0.3657
  168SOPE   H9118940   2.682   1.209  44.395 -0.7919 -2.4046 -0.0425
  168SOPE  C21018941   2.795   1.136  44.237 -0.7990  0.2199  0.1865
  168SOPE  H10118942   2.710   1.161  44.172 -1.9367 -2.0255  0.7005
  168SOPE  C21118943   2.919   1.093  44.161  0.0516 -0.7754  0.0147
  168SOPE  H11R18944   2.905   0.990  44.123  0.1504 -0.5253 -0.7190
  168SOPE  H11S18945   3.012   1.100  44.221  0.8816  0.3135 -1.3209
  168SOPE  C21218946   2.953   1.187  44.048 -0.1895  0.5746 -0.9575
  168SOPE  H12R18947   2.928   1.291  44.078  0.9540  0.6795 -0.3345
  168SOPE  H12S18948   2.896   1.171  43.954 -1.4395 -1.9680  0.1217
  168SOPE  C21318949   3.108   1.176  44.013  0.2643 -0.4216 -0.4065
  168SOPE  H13R18950   3.163   1.080  44.025  1.7435  0.5102  0.5899
  168SOPE  H13S18951   3.158   1.243  44.086 -1.6950  0.9308 -0.2506
  168SOPE  C21418952   3.120   1.226  43.870  0.9592  0.4997  0.4303
  168SOPE  H14R18953   3.068   1.323  43.860 -0.7912 -0.0244  3.3797
  168SOPE  H14S18954   3.072   1.149  43.805 -0.3482  3.0464 -1.8325
  168SOPE  C21518955   3.270   1.235  43.827 -0.2029 -0.0209  0.0190
  168SOPE  H15R18956   3.316   1.142  43.868  1.7732  0.1187 -1.7005
  168SOPE  H15S18957   3.303   1.322  43.888 -3.6295  0.0556  2.0214
  168SOPE  C21618958   3.280   1.231  43.671  0.1835 -0.3715  0.5448
  168SOPE  H16R18959   3.227   1.139  43.641 -3.0710  0.7672  2.3359
  168SOPE  H16S18960   3.382   1.233  43.626 -0.1908 -0.3529 -0.3134
  168SOPE  C21718961   3.217   1.349  43.601  0.0179  0.5080 -0.7170
  168SOPE  H17R18962   3.247   1.450  43.639 -0.6000 -0.5165  2.9231
  168SOPE  H17S18963   3.112   1.350  43.637  0.8349  1.2011  1.8643
  168SOPE  C21818964   3.231   1.330  43.447  0.3008 -0.0462 -0.4149
  168SOPE  H18R18965   3.187   1.422  43.404  2.9736  0.2514 -2.8422
  168SOPE  H18S18966   3.172   1.244  43.408  0.6675 -0.3406 -0.3273
  168SOPE  H18T18967   3.333   1.320  43.403  0.3175 -0.0370 -0.3783
  168SOPE   C3318968   2.973   2.461  43.920  0.1397 -0.5806  0.0343
  168SOPE   H3X18969   2.868   2.430  43.897 -0.4258  0.4017  1.1772
  168SOPE   H3Y18970   3.045   2.399  43.863  0.0980 -1.1964  0.6371
  168SOPE   C3418971   2.989   2.602  43.852  0.1524  0.5107 -0.1044
  168SOPE   H4X18972   2.904   2.671  43.870  0.3640  0.4311  1.3420
  168SOPE   H4Y18973   2.981   2.588  43.742  0.9586 -2.2774  0.1072
  168SOPE   C3518974   3.122   2.668  43.898 -0.2314  0.2646 -0.4912
  168SOPE   H5X18975   3.152   2.734  43.814 -0.1410 -0.0898 -0.7401
  168SOPE   H5Y18976   3.202   2.590  43.901 -2.5552 -2.2182  0.7848
  168SOPE   C3618977   3.120   2.764  44.018  0.7184  0.2898 -0.2151
  168SOPE   H6X18978   3.058   2.720  44.099  0.1661 -0.1752 -0.8787
  168SOPE   H6Y18979   3.061   2.852  43.985 -1.4387 -0.7727  0.6246
  168SOPE   C3718980   3.263   2.791  44.065 -0.1051 -0.2865 -0.1829
  168SOPE   H7X18981   3.314   2.842  43.980 -0.6342 -0.3715 -0.5617
  168SOPE   H7Y18982   3.319   2.697  44.081 -1.8944 -2.1511 -3.6429
  168SOPE   C3818983   3.265   2.867  44.198  0.3625  0.1936 -0.1453
  168SOPE   H8X18984   3.174   2.840  44.257  0.2152 -2.2705 -1.3824
  168SOPE   H8Y18985   3.264   2.975  44.176  0.5929  0.6959  2.0683
  168SOPE   C3918986   3.382   2.853  44.292  0.7394 -0.6445 -0.3166
  168SOPE   H9X18987   3.473   2.883  44.235 -0.1367 -1.1722 -2.0830
  168SOPE   H9Y18988   3.397   2.744  44.307  1.1840 -0.3081  1.9387
  168SOPE  C31018989   3.364   2.934  44.427 -0.0877 -0.8430 -0.1696
  168SOPE  H10X18990   3.436   2.889  44.498 -0.9853 -0.3716  1.0715
  168SOPE  H10Y18991   3.267   2.918  44.479  0.7416  0.5674  1.9547
  168SOPE  C31118992   3.393   3.085  44.412  0.6006 -0.0256 -1.3017
  168SOPE  H11X18993   3.324   3.144  44.347  0.0207 -0.4342 -1.0717
  168SOPE  H11Y18994   3.489   3.093  44.356  1.1502 -1.4538 -0.5963
  168SOPE  C31218995   3.403   3.154  44.550  0.5762  0.2712  0.1953
  168SOPE  H12X18996   3.456   3.085  44.620 -0.1870 -1.3968 -0.8028
  168SOPE  H12Y18997   3.302   3.171  44.593  1.5769  1.3618  2.2521
  168SOPE  C31318998   3.469   3.291  44.540 -0.0720  0.4506 -0.4881
  168SOPE  H13X18999   3.431   3.364  44.465 -2.7694  1.0205  1.2721
  168SOPE  H13Y19000   3.579   3.274  44.533 -0.4833 -2.3391 -1.2364
  168SOPE  C31419001   3.456   3.354  44.684 -0.2351 -0.5971 -0.5863
  168SOPE  H14X19002   3.558   3.362  44.728 -0.4735  1.3581 -0.2995
  168SOPE  H14Y19003   3.386   3.297  44.749 -1.1395 -1.5347 -2.3078
  168SOPE  C31519004   3.410   3.501  44.669 -0.8097 -0.4546 -0.5449
  168SOPE  H15X19005   3.312   3.503  44.616 -0.5763  0.9121 -0.9668
  168SOPE  H15Y19006   3.494   3.543  44.609  1.0604 -3.2474 -0.1194
  168SOPE  C31619007   3.395   3.559  44.810 -0.1907 -0.6358  0.2383
  168SOPE  H16X19008   3.327   3.483  44.854  0.3752 -1.4058 -0.2093
  168SOPE  H16Y19009   3.338   3.653  44.792 -2.4355 -1.2349  3.4272
  168SOPE  C31719010   3.522   3.570  44.894 -0.5419 -0.6242 -0.7898
  168SOPE  H17X19011   3.587   3.626  44.824 -2.6947  3.0036 -0.1358
  168SOPE  H17Y19012   3.565   3.470  44.920  1.0534 -0.1219 -1.4007
  168SOPE  C31819013   3.496   3.649  45.021  0.4991 -0.0056  0.1834
  168SOPE  H18X19014   3.472   3.756  45.001 -0.3290 -0.0073  1.0596
  168SOPE  H18Y19015   3.574   3.651  45.100  0.2000 -0.7845  0.5163
  168SOPE  H18Z19016   3.397   3.614  45.059 -0.3160  0.5380 -1.3449
  169SOPE     N19017   1.088   2.535  41.887 -0.3578 -0.0417 -0.7152
  169SOPE   HN119018   0.988   2.525  41.858 -0.8775  0.7531  0.6965
  169SOPE   HN219019   1.089   2.562  41.988 -0.4590  1.6772 -1.1382
  169SOPE   HN319020   1.138   2.610  41.835  0.2644 -0.3196 -0.5139
  169SOPE   C1219021   1.156   2.403  41.876 -0.0615 -0.2446 -0.0242
  169SOPE  H12A19022   1.160   2.368  41.771 -2.0241  0.9883 -0.5639
  169SOPE  H12B19023   1.083   2.336  41.926  0.5221 -2.4057 -1.9137
  169SOPE   C1119024   1.297   2.397  41.930  0.9664  0.0851 -0.3846
  169SOPE  H11A19025   1.349   2.300  41.910  1.3952  0.3837 -0.7241
  169SOPE  H11B19026   1.305   2.395  42.041  0.7327  1.6254 -0.3165
  169SOPE     P19027   1.445   2.503  41.752 -0.4252  0.2059 -0.0699
  169SOPE   O1319028   1.585   2.538  41.773 -0.6567 -0.2364 -0.2593
  169SOPE   O1419029   1.384   2.599  41.653  0.2260  0.3132  0.1193
  169SOPE   O1219030   1.369   2.514  41.889  0.1178  0.0542  0.1304
  169SOPE   O1119031   1.430   2.347  41.711 -0.1770 -0.1723 -0.3779
  169SOPE    C119032   1.459   2.306  41.576 -0.3142  0.4530  0.7271
  169SOPE    HA19033   1.461   2.391  41.505  1.0740 -0.0898  0.0809
  169SOPE    HB19034   1.378   2.240  41.537 -0.4368  0.1694  1.4509
  169SOPE    C219035   1.585   2.224  41.582 -0.5018 -0.0211  0.0148
  169SOPE    HS19036   1.666   2.289  41.622  1.8838 -1.8906 -1.4972
  169SOPE   O2119037   1.612   2.173  41.453 -0.1158  0.3525  0.1390
  169SOPE   C2119038   1.742   2.161  41.417 -0.1888 -0.6123  0.0422
  169SOPE   O2219039   1.834   2.221  41.474 -0.4606  0.3842 -0.2138
  169SOPE   C2219040   1.755   2.053  41.310  0.2491 -0.0535  0.0285
  169SOPE   H2R19041   1.667   2.069  41.243 -0.5188  0.4364  1.1212
  169SOPE   H2S19042   1.748   1.959  41.368  1.3865 -0.0182  0.2438
  169SOPE    C319043   1.591   2.103  41.683  0.1322  0.3488 -0.0615
  169SOPE    HX19044   1.499   2.044  41.662 -0.8021  2.1740 -1.3803
  169SOPE    HY19045   1.575   2.138  41.788  0.7104  0.6905 -0.0790
  169SOPE   O3119046   1.714   2.023  41.670  0.2065  0.2838  0.2515
  169SOPE   C3119047   1.820   2.062  41.741  0.5747 -0.6898 -0.4934
  169SOPE   O3219048   1.834   2.165  41.804  0.1065 -0.1292  0.2531
  169SOPE   C3219049   1.910   1.951  41.747 -0.9845  0.2090 -0.3231
  169SOPE   H2X19050   1.975   1.959  41.657  0.1118 -1.0932  0.3235
  169SOPE   H2Y19051   1.853   1.856  41.735 -0.7055  0.0655 -0.5364
  169SOPE   C2319052   1.883   2.067  41.235  0.9797  0.0150 -0.2908
  169SOPE   H3R19053   1.974   2.065  41.299  1.1440 -0.6396 -0.5394
  169SOPE   H3S19054   1.888   2.171  41.195  0.9105  0.1987  0.1806
  169SOPE   C2419055   1.882   1.975  41.113 -0.5527 -0.2032  0.1191
  169SOPE   H4R19056   1.783   1.984  41.063 -0.6545 -0.0161  0.3573
  169SOPE   H4S19057   1.955   2.019  41.042 -1.3276  1.9051  0.5570
  169SOPE   C2519058   1.918   1.828  41.143 -0.1720 -0.1010 -0.3046
  169SOPE   H5R19059   2.028   1.831  41.127  0.1058  1.5317  1.5941
  169SOPE   H5S19060   1.884   1.817  41.248  0.9651  1.1161  0.2154
  169SOPE   C2619061   1.869   1.720  41.041  0.1611 -1.0978  0.0964
  169SOPE   H6R19062   1.776   1.753  40.991  1.6441  1.4770 -1.1392
  169SOPE   H6S19063   1.946   1.730  40.962 -1.4206 -0.9033 -1.4736
  169SOPE   C2719064   1.850   1.595  41.117 -0.2785  0.4026 -0.3913
  169SOPE   H7R19065   1.793   1.614  41.209  0.1877  1.7572 -0.3606
  169SOPE   H7S19066   1.802   1.522  41.048  2.3179 -1.0961 -0.7814
  169SOPE   C2819067   1.978   1.530  41.175 -0.2625  0.6350 -0.1296
  169SOPE   H8R19068   2.065   1.523  41.107  0.4354  0.3283  0.7638
  169SOPE   H8S19069   2.023   1.593  41.254  0.6888  2.1835 -1.8470
  169SOPE   C2919070   1.941   1.393  41.223 -0.0527  0.2431  0.5588
  169SOPE   H9119071   1.932   1.317  41.144 -1.1181 -0.1857  1.0670
  169SOPE  C21019072   1.934   1.350  41.352  0.4210 -0.0792  0.6894
  169SOPE  H10119073   1.909   1.244  41.365  1.9172 -0.5828 -0.2080
  169SOPE  C21119074   1.947   1.436  41.478 -0.4693 -0.1104  0.4508
  169SOPE  H11R19075   2.053   1.468  41.477  0.6115 -3.1130 -3.0155
  169SOPE  H11S19076   1.942   1.364  41.563  1.1438  0.2268  0.8579
  169SOPE  C21219077   1.851   1.542  41.509  0.1923 -0.3990  0.5208
  169SOPE  H12R19078   1.868   1.625  41.437  0.4195 -0.1055  0.9110
  169SOPE  H12S19079   1.887   1.582  41.606 -1.0894 -1.3006  1.3911
  169SOPE  C21319080   1.706   1.498  41.522 -0.3063  0.4349 -0.4764
  169SOPE  H13R19081   1.687   1.472  41.628  1.7595  3.4318  0.7829
  169SOPE  H13S19082   1.681   1.408  41.463 -0.8024 -1.5825  2.6062
  169SOPE  C21419083   1.608   1.616  41.485 -0.3236 -0.3356 -0.2733
  169SOPE  H14R19084   1.648   1.668  41.395  0.3851 -2.4248 -1.2445
  169SOPE  H14S19085   1.592   1.681  41.573 -0.8320  2.1529 -2.0963
  169SOPE  C21519086   1.469   1.563  41.448  0.3364  0.4389 -0.4850
  169SOPE  H15R19087   1.459   1.477  41.517  1.6041 -0.5708 -1.5044
  169SOPE  H15S19088   1.469   1.516  41.347  0.4594 -0.8042  0.0774
  169SOPE  C21619089   1.348   1.665  41.466  0.5620  0.7613  0.6011
  169SOPE  H16R19090   1.377   1.772  41.462  0.5709  0.7461 -2.8959
  169SOPE  H16S19091   1.303   1.648  41.566 -0.4978  3.1417  0.5928
  169SOPE  C21719092   1.241   1.638  41.363  0.5489  0.3842 -0.9165
  169SOPE  H17R19093   1.207   1.532  41.365 -2.3473  1.2348  0.0788
  169SOPE  H17S19094   1.288   1.651  41.264  1.1932 -0.2167 -0.7009
  169SOPE  C21819095   1.126   1.738  41.386 -0.8708  0.3721  0.0536
  169SOPE  H18R19096   1.058   1.750  41.299 -0.3967 -1.1267 -0.5595
  169SOPE  H18S19097   1.168   1.839  41.404 -1.2534  0.3188  1.3877
  169SOPE  H18T19098   1.075   1.717  41.483  0.4612 -0.5466  0.5926
  169SOPE   C3319099   1.991   1.939  41.878 -0.3054 -0.2996 -0.8887
  169SOPE   H3X19100   2.070   2.017  41.871 -0.9942  0.7372  1.6288
  169SOPE   H3Y19101   2.031   1.837  41.894  2.6562  0.9972  0.9458
  169SOPE   C3419102   1.903   1.961  42.003  0.7198 -0.3856  0.0654
  169SOPE   H4X19103   1.803   1.915  41.994 -0.1228  1.2868  0.4354
  169SOPE   H4Y19104   1.898   2.071  42.020 -1.0518 -0.1553 -1.6685
  169SOPE   C3519105   1.967   1.904  42.135  0.8373 -0.1213  0.1568
  169SOPE   H5X19106   2.077   1.911  42.129  0.7904  0.3788 -0.2001
  169SOPE   H5Y19107   1.941   1.797  42.151  2.0717 -0.4546 -0.0093
  169SOPE   C3619108   1.921   1.985  42.254  0.2275  0.2563 -0.1139
  169SOPE   H6X19109   1.949   2.091  42.235  2.4413 -0.2029  0.3749
  169SOPE   H6Y19110   1.970   1.961  42.350  1.9121  0.9144 -0.7722
  169SOPE   C3719111   1.773   1.991  42.285  0.0908  1.0330  0.5733
  169SOPE   H7X19112   1.718   2.039  42.201  1.8593 -0.3412 -1.4691
  169SOPE   H7Y19113   1.752   2.052  42.376 -2.8174 -0.2052  0.8596
  169SOPE   C3819114   1.714   1.853  42.322 -0.5374 -0.2004 -0.2065
  169SOPE   H8X19115   1.699   1.796  42.228 -0.5365  2.6435 -2.0240
  169SOPE   H8Y19116   1.767   1.788  42.396 -2.7861 -1.3771  0.4587
  169SOPE   C3919117   1.588   1.884  42.403 -0.0201  0.3039 -0.1514
  169SOPE   H9X19118   1.503   1.929  42.348  1.2272  2.6883 -0.2469
  169SOPE   H9Y19119   1.599   1.952  42.490 -0.0252  2.5168 -1.8000
  169SOPE  C31019120   1.520   1.758  42.471 -0.1206 -1.2762 -0.4796
  169SOPE  H10X19121   1.598   1.719  42.541 -1.5734 -1.0670  1.3277
  169SOPE  H10Y19122   1.486   1.686  42.393  0.7339 -1.1317 -0.9995
  169SOPE  C31119123   1.402   1.799  42.555 -0.0322 -0.4614 -0.5137
  169SOPE  H11X19124   1.353   1.887  42.507 -0.4182 -0.3443  0.0782
  169SOPE  H11Y19125   1.439   1.837  42.652  0.5918  1.8662 -1.5899
  169SOPE  C31219126   1.292   1.689  42.569 -0.4602 -0.3924 -0.3941
  169SOPE  H12X19127   1.349   1.595  42.587  1.1120  0.1815 -2.0274
  169SOPE  H12Y19128   1.229   1.681  42.478 -0.3041  1.7618 -0.7490
  169SOPE  C31319129   1.197   1.694  42.684 -0.5187  0.0280 -0.1770
  169SOPE  H13X19130   1.137   1.787  42.671  1.1445  1.0569 -0.8625
  169SOPE  H13Y19131   1.255   1.709  42.778 -0.5392 -2.1510  0.2257
  169SOPE  C31419132   1.096   1.587  42.701  0.0392  0.0102  0.4257
  169SOPE  H14X19133   1.046   1.585  42.602 -1.7067  1.9220  1.1979
  169SOPE  H14Y19134   1.020   1.614  42.777 -0.9025 -0.6269 -0.2710
  169SOPE  C31519135   1.149   1.442  42.736 -0.4297  0.2924 -0.5921
  169SOPE  H15X19136   1.210   1.411  42.649  0.8059 -0.3803  0.4922
  169SOPE  H15Y19137   1.055   1.383  42.746 -0.8286  1.1645  1.4257
  169SOPE  C31619138   1.235   1.423  42.864  0.3224  0.8185  0.6806
  169SOPE  H16X19139   1.331   1.479  42.852 -0.9542  2.9714 -0.1245
  169SOPE  H16Y19140   1.260   1.317  42.884  1.3383  0.9232  0.0213
  169SOPE  C31719141   1.171   1.487  42.989  0.8503 -0.3660  0.1600
  169SOPE  H17X19142   1.072   1.438  42.998  1.0338 -0.9687 -0.9767
  169SOPE  H17Y19143   1.159   1.596  42.971  0.1903 -0.5130 -0.3070
  169SOPE  C31819144   1.263   1.456  43.101 -0.3009  0.5682  0.6914
  169SOPE  H18X19145   1.243   1.513  43.195 -0.7961  2.6150 -0.5937
  169SOPE  H18Y19146   1.369   1.471  43.071 -0.8432 -2.0610 -3.2367
  169SOPE  H18Z19147   1.250   1.348  43.124  1.2767  0.1301 -0.2871
  170SOPE     N19148   2.316   2.681  44.788  0.5279  0.5736 -0.0159
  170SOPE   HN119149   2.400   2.710  44.733 -0.0385 -0.7821 -1.7246
  170SOPE   HN219150   2.345   2.615  44.863 -0.9193 -2.3582 -1.8512
  170SOPE   HN319151   2.271   2.617  44.719  1.1789  0.0514  0.0250
  170SOPE   C1219152   2.251   2.806  44.845 -0.7490  0.2891 -1.1030
  170SOPE  H12A19153   2.143   2.781  44.836 -0.6543 -0.8231  0.3699
  170SOPE  H12B19154   2.274   2.891  44.778 -0.8185 -1.0592 -2.9239
  170SOPE   C1119155   2.305   2.828  44.986 -1.0588 -0.3452  0.0460
  170SOPE  H11A19156   2.252   2.917  45.027 -0.1395  0.2625 -0.0584
  170SOPE  H11B19157   2.413   2.854  44.986 -1.7299  3.1207  2.6344
  170SOPE     P19158   2.357   2.611  45.127 -0.0640 -0.5985  0.2878
  170SOPE   O1319159   2.370   2.509  45.023  0.2463 -0.7973  0.4372
  170SOPE   O1419160   2.321   2.568  45.262 -0.3539 -0.2944 -0.1733
  170SOPE   O1219161   2.264   2.725  45.071  0.3042  0.5420 -0.2815
  170SOPE   O1119162   2.492   2.687  45.139 -0.3697  0.1521 -0.1084
  170SOPE    C119163   2.606   2.603  45.131 -0.5303 -0.6133 -0.2125
  170SOPE    HA19164   2.615   2.574  45.025 -1.4345 -0.5982 -0.3058
  170SOPE    HB19165   2.608   2.519  45.204 -3.9773 -0.4248  0.2593
  170SOPE    C219166   2.735   2.701  45.155  0.6000  0.0646  0.0532
  170SOPE    HS19167   2.821   2.644  45.114  1.1119  0.3444  0.7200
  170SOPE   O2119168   2.758   2.743  45.291 -0.3504 -0.0422 -0.7273
  170SOPE   C2119169   2.804   2.652  45.373  0.3555  0.2011 -0.2435
  170SOPE   O2219170   2.848   2.544  45.344  0.2898 -0.1931 -0.1265
  170SOPE   C2219171   2.814   2.696  45.517 -0.1282 -0.6949  0.3272
  170SOPE   H2R19172   2.842   2.804  45.524 -0.7556 -0.5102  0.1012
  170SOPE   H2S19173   2.902   2.641  45.555  1.0484  1.2938  0.6341
  170SOPE    C319174   2.713   2.836  45.060 -0.4682  0.8950 -0.6784
  170SOPE    HX19175   2.631   2.886  45.115  0.5205 -0.3011  2.1228
  170SOPE    HY19176   2.669   2.798  44.966 -1.4964 -0.6740  0.3887
  170SOPE   O3119177   2.824   2.928  45.049  0.7418 -0.5398 -0.2983
  170SOPE   C3119178   2.931   2.877  44.989  0.3745 -1.0852 -0.1588
  170SOPE   O3219179   2.943   2.768  44.945 -0.4089 -0.4521 -0.2138
  170SOPE   C3219180   3.045   2.988  45.012  0.2787  0.0307 -0.5874
  170SOPE   H2X19181   3.056   3.011  45.120  1.8216  1.6473 -1.0417
  170SOPE   H2Y19182   2.997   3.076  44.963 -0.4821 -1.2508 -2.2736
  170SOPE   C2319183   2.683   2.660  45.592 -0.0120 -0.9379 -0.4710
  170SOPE   H3R19184   2.676   2.549  45.603 -0.3009 -1.3893 -4.0344
  170SOPE   H3S19185   2.606   2.687  45.516  1.4824 -4.2552 -3.4730
  170SOPE   C2419186   2.660   2.743  45.722  0.4570  0.2812  0.2005
  170SOPE   H4R19187   2.737   2.714  45.797 -0.4201 -1.3728  0.5326
  170SOPE   H4S19188   2.663   2.853  45.706 -0.6362  0.7079  2.5320
  170SOPE   C2519189   2.528   2.717  45.799  0.3502 -0.2800  0.2255
  170SOPE   H5R19190   2.445   2.736  45.728  1.1033 -1.9902 -1.1731
  170SOPE   H5S19191   2.534   2.620  45.853  1.7985 -1.7869 -2.4560
  170SOPE   C2619192   2.506   2.824  45.919 -0.2543 -0.2253  0.1522
  170SOPE   H6R19193   2.446   2.776  45.999  0.4042  1.1160  1.4963
  170SOPE   H6S19194   2.600   2.855  45.970  0.5958 -1.9855 -0.2923
  170SOPE   C2719195   2.439   2.953  45.874 -0.4753 -0.1189  0.6851
  170SOPE   H7R19196   2.484   2.999  45.784 -1.4916  0.4434  0.4496
  170SOPE   H7S19197   2.335   2.930  45.842  0.1425 -1.2334 -0.6326
  170SOPE   C2819198   2.438   3.066  45.976 -0.0177 -0.7372  0.7603
  170SOPE   H8R19199   2.381   3.152  45.934  0.7807 -2.0675 -3.5513
  170SOPE   H8S19200   2.362   3.033  46.050 -0.3973 -1.4414  0.0794
  170SOPE   C2919201   2.580   3.091  46.022  0.2364 -0.3473  0.4407
  170SOPE   H9119202   2.616   3.038  46.112 -0.1444 -1.1393  0.1416
  170SOPE  C21019203   2.661   3.195  45.976 -1.2048  0.3094  0.7785
  170SOPE  H10119204   2.767   3.189  46.002 -0.5177 -2.9180 -2.0703
  170SOPE  C21119205   2.620   3.291  45.871  0.3924 -0.0148 -0.2270
  170SOPE  H11R19206   2.629   3.398  45.902 -3.9931  0.7781 -1.1176
  170SOPE  H11S19207   2.511   3.276  45.858  0.3242 -3.8165  2.9328
  170SOPE  C21219208   2.690   3.303  45.732 -0.3772 -1.1456 -0.2811
  170SOPE  H12R19209   2.795   3.337  45.738  0.7075 -3.9941 -1.5019
  170SOPE  H12S19210   2.618   3.371  45.682 -0.6485  0.3474  1.9620
  170SOPE  C21319211   2.707   3.168  45.663 -0.1321 -0.7859  0.1046
  170SOPE  H13R19212   2.683   3.091  45.739  1.5656  1.7333  3.4747
  170SOPE  H13S19213   2.813   3.162  45.629 -0.2507  0.2284 -0.5140
  170SOPE  C21419214   2.599   3.155  45.549  0.3675  0.0734  0.1237
  170SOPE  H14R19215   2.606   3.245  45.485  0.0284 -1.0747 -1.6081
  170SOPE  H14S19216   2.499   3.157  45.598  0.3481  1.3520  0.0557
  170SOPE  C21519217   2.619   3.027  45.467 -0.3995  0.0522 -0.6618
  170SOPE  H15R19218   2.627   2.941  45.537 -1.3302  2.8526  3.1958
  170SOPE  H15S19219   2.719   3.037  45.420  0.4165 -0.3550  0.9133
  170SOPE  C21619220   2.508   2.995  45.364 -0.7115  0.6966  0.5084
  170SOPE  H16R19221   2.430   2.944  45.424  0.0570  2.1722  2.8680
  170SOPE  H16S19222   2.551   2.926  45.287 -1.2226 -1.3310  1.9554
  170SOPE  C21719223   2.457   3.118  45.290 -0.1403  0.4279  0.4185
  170SOPE  H17R19224   2.422   3.199  45.357 -1.0910  0.0468  0.4027
  170SOPE  H17S19225   2.368   3.082  45.234 -0.0325 -0.5402  0.8558
  170SOPE  C21819226   2.577   3.178  45.206  0.0538 -0.4038 -0.5790
  170SOPE  H18R19227   2.676   3.148  45.244  0.1539  0.2691 -0.2899
  170SOPE  H18S19228   2.583   3.286  45.231  1.9420 -0.1257 -2.0547
  170SOPE  H18T19229   2.561   3.159  45.098 -2.9158 -3.6036  0.2465
  170SOPE   C3319230   3.192   2.958  44.974 -0.6045 -1.0541 -0.1781
  170SOPE   H3X19231   3.198   2.884  44.891  0.2626  0.1278 -1.2040
  170SOPE   H3Y19232   3.242   2.913  45.063 -0.7556 -0.1060  0.3993
  170SOPE   C3419233   3.261   3.090  44.916 -0.4200  0.6775  0.6746
  170SOPE   H4X19234   3.209   3.108  44.820 -0.3564 -2.0045  0.0643
  170SOPE   H4Y19235   3.366   3.068  44.887 -1.3385  0.1698 -2.7052
  170SOPE   C3519236   3.264   3.204  45.011  0.7933 -0.0297  0.3101
  170SOPE   H5X19237   3.168   3.260  45.002  0.3162 -0.6614  1.2987
  170SOPE   H5Y19238   3.349   3.270  44.985 -0.0324  2.3241  3.0696
  170SOPE   C3619239   3.309   3.168  45.152  0.5552 -0.4158 -0.1612
  170SOPE   H6X19240   3.409   3.119  45.150  1.1594  0.7797 -1.8038
  170SOPE   H6Y19241   3.235   3.109  45.210  0.2806 -0.4053 -0.5012
  170SOPE   C3719242   3.337   3.299  45.229  0.0865 -0.0499  1.1257
  170SOPE   H7X19243   3.390   3.373  45.166  0.3241  0.3008  1.7354
  170SOPE   H7Y19244   3.417   3.273  45.302  2.2018 -2.6518 -1.8272
  170SOPE   C3819245   3.215   3.368  45.302 -0.2832  0.3967  0.1066
  170SOPE   H8X19246   3.136   3.367  45.223 -0.8246  1.4642  0.6004
  170SOPE   H8Y19247   3.247   3.473  45.322 -0.9169  0.7370 -0.6001
  170SOPE   C3919248   3.161   3.324  45.436  0.4944 -0.2652 -0.5937
  170SOPE   H9X19249   3.144   3.214  45.433  1.8661 -0.5331  0.2500
  170SOPE   H9Y19250   3.069   3.375  45.470  2.2418  1.9016  1.1751
  170SOPE  C31019251   3.277   3.329  45.548 -0.0923 -0.6718  0.2947
  170SOPE  H10X19252   3.371   3.275  45.520  1.2429 -0.0506  3.2400
  170SOPE  H10Y19253   3.230   3.283  45.637 -0.7322  2.5081  1.7137
  170SOPE  C31119254   3.297   3.477  45.590  0.4349  0.0923 -0.0192
  170SOPE  H11X19255   3.310   3.477  45.701  1.4752 -0.8641 -0.1166
  170SOPE  H11Y19256   3.194   3.518  45.582  0.6388  0.8678  1.0782
  170SOPE  C31219257   3.413   3.555  45.525 -0.0964  0.8931  0.1782
  170SOPE  H12X19258   3.434   3.522  45.421  0.9854  0.8328  0.4029
  170SOPE  H12Y19259   3.506   3.550  45.585 -1.9924 -0.5907  3.2421
  170SOPE  C31319260   3.377   3.702  45.518  0.4341  0.1507 -0.1061
  170SOPE  H13X19261   3.383   3.729  45.625  2.4713 -1.4724  0.2703
  170SOPE  H13Y19262   3.275   3.724  45.481  1.1012  1.1955 -1.4272
  170SOPE  C31419263   3.465   3.775  45.419 -0.6271 -0.3229  0.0311
  170SOPE  H14X19264   3.445   3.727  45.321  1.5363 -1.3094  0.0212
  170SOPE  H14Y19265   3.573   3.762  45.442 -0.8942 -0.8360  1.0890
  170SOPE  C31519266   3.432   3.922  45.412 -0.1891 -0.3535  0.1588
  170SOPE  H15X19267   3.438   3.972  45.511 -1.0242  1.8257 -0.8376
  170SOPE  H15Y19268   3.323   3.938  45.394 -0.5559  1.1720  3.0991
  170SOPE  C31619269   3.524   3.989  45.315 -0.4585  0.3080  0.2305
  170SOPE  H16X19270   3.508   3.942  45.216 -0.5025 -0.5235  0.6192
  170SOPE  H16Y19271   3.627   3.987  45.356  0.1470  1.5096 -1.1714
  170SOPE  C31719272   3.482   4.124  45.283 -0.2041 -0.1039  0.5792
  170SOPE  H17X19273   3.478   4.180  45.378 -2.1249 -0.5045  0.7624
  170SOPE  H17Y19274   3.381   4.139  45.240  0.3401  0.5850 -0.5253
  170SOPE  C31819275   3.579   4.194  45.178 -0.3338 -0.5142 -0.3888
  170SOPE  H18X19276   3.553   4.302  45.174  0.8648 -0.2332 -1.2029
  170SOPE  H18Y19277   3.572   4.139  45.082 -2.6452 -0.2723 -0.4060
  170SOPE  H18Z19278   3.683   4.192  45.218 -0.6851  0.6120  0.6451
  171SOPE     N19279   0.586   2.677  52.719 -0.9798 -0.5748 -0.9739
  171SOPE   HN119280   0.670   2.667  52.658 -0.2159 -2.0279  0.2379
  171SOPE   HN219281   0.602   2.751  52.789 -0.6699 -2.4098  0.9941
  171SOPE   HN319282   0.584   2.585  52.767  0.4147 -0.5529 -0.8378
  171SOPE   C1219283   0.454   2.714  52.648 -1.0710  0.0884 -1.1214
  171SOPE  H12A19284   0.377   2.638  52.675  1.2986 -1.8226  0.6901
  171SOPE  H12B19285   0.480   2.701  52.540  0.7528 -5.5076 -0.3699
  171SOPE   C1119286   0.403   2.851  52.691  0.7482 -0.4951 -0.3852
  171SOPE  H11A19287   0.293   2.832  52.700  0.1502  0.6571 -3.9657
  171SOPE  H11B19288   0.419   2.923  52.609  2.4286 -1.0068 -0.5472
  171SOPE     P19289   0.384   3.007  52.901 -0.3291 -0.4013  0.3274
  171SOPE   O1319290   0.453   3.132  52.884 -0.6929  0.2305 -0.3052
  171SOPE   O1419291   0.358   2.960  53.046  0.0272  0.9181  0.3118
  171SOPE   O1219292   0.447   2.887  52.822 -0.1516  0.0078  0.0654
  171SOPE   O1119293   0.244   3.023  52.830 -0.9768  0.0080  0.3204
  171SOPE    C119294   0.121   2.977  52.887 -0.0667 -0.0465  0.1533
  171SOPE    HA19295   0.130   2.900  52.967  1.1123 -3.7065 -3.1735
  171SOPE    HB19296   0.057   2.921  52.816 -0.2923 -1.0207  1.0869
  171SOPE    C219297   0.031   3.097  52.944 -0.6310 -0.1120  0.1322
  171SOPE    HS19298  -0.064   3.048  52.976 -1.3902 -0.1800 -2.0145
  171SOPE   O2119299   0.004   3.197  52.844  0.6256  0.3171  0.3505
  171SOPE   C2119300  -0.116   3.263  52.853 -0.0964  1.0167 -1.1867
  171SOPE   O2219301  -0.180   3.262  52.959  0.1392 -0.1496  0.3061
  171SOPE   C2219302  -0.151   3.352  52.733 -0.2390 -0.2978 -0.2487
  171SOPE   H2R19303  -0.078   3.323  52.654 -0.7574 -1.2361 -0.3998
  171SOPE   H2S19304  -0.152   3.457  52.768  1.5470  0.2741 -1.7025
  171SOPE    C319305   0.096   3.168  53.069  0.2798  0.8527 -0.7378
  171SOPE    HX19306   0.048   3.268  53.063  1.3796  1.3579 -1.3037
  171SOPE    HY19307   0.205   3.192  53.067  0.9561 -1.8718 -1.0252
  171SOPE   O3119308   0.057   3.109  53.195  0.1379  0.2010  1.1256
  171SOPE   C3119309   0.103   3.168  53.307  0.2216  0.2667 -0.8905
  171SOPE   O3219310   0.170   3.271  53.313 -0.6323 -0.0160  1.1795
  171SOPE   C3219311   0.049   3.089  53.426 -0.1434  0.8892 -0.1332
  171SOPE   H2X19312   0.112   2.997  53.430 -0.2634  0.7845 -0.6404
  171SOPE   H2Y19313  -0.056   3.057  53.408 -0.2117  1.4999 -0.8757
  171SOPE   C2319314  -0.301   3.317  52.693  0.6962  0.0003  0.6799
  171SOPE   H3R19315  -0.346   3.409  52.650 -1.0897 -1.3845 -0.5456
  171SOPE   H3S19316  -0.363   3.289  52.781 -1.3501  0.7468 -0.4702
  171SOPE   C2419317  -0.292   3.212  52.583 -0.2614 -0.3456  0.4305
  171SOPE   H4R19318  -0.219   3.141  52.627  0.9067  1.8092  2.1835
  171SOPE   H4S19319  -0.389   3.160  52.570  0.7208 -2.0952 -0.2332
  171SOPE   C2519320  -0.249   3.270  52.444 -0.2367  0.2277  0.2972
  171SOPE   H5R19321  -0.311   3.349  52.396  0.0346  1.8987  2.5625
  171SOPE   H5S19322  -0.141   3.297  52.439 -0.2552  0.1551 -1.0052
  171SOPE   C2619323  -0.270   3.159  52.337 -0.3029 -0.4782 -0.3632
  171SOPE   H6R19324  -0.377   3.147  52.306 -0.9885 -3.0071  2.4625
  171SOPE   H6S19325  -0.218   3.181  52.242 -1.1645  1.1706 -0.4864
  171SOPE   C2719326  -0.217   3.026  52.382 -0.9031  1.5670  0.4976
  171SOPE   H7R19327  -0.125   3.039  52.443 -0.2781  0.1099 -0.0885
  171SOPE   H7S19328  -0.284   2.977  52.456  0.4425  2.6926  2.5634
  171SOPE   C2819329  -0.183   2.925  52.278 -0.0462  0.7432 -0.9691
  171SOPE   H8R19330  -0.114   2.983  52.213  1.9073 -0.8690 -0.4338
  171SOPE   H8S19331  -0.123   2.839  52.315 -0.8652  0.2385 -0.7989
  171SOPE   C2919332  -0.300   2.889  52.191  0.3492 -0.6518 -0.8971
  171SOPE   H9119333  -0.361   2.804  52.223  0.3841 -0.6587 -0.8474
  171SOPE  C21019334  -0.329   2.933  52.067  0.2237 -0.1406 -0.2454
  171SOPE  H10119335  -0.422   2.891  52.027  1.4598 -0.3043 -3.2170
  171SOPE  C21119336  -0.256   3.022  51.974  0.0138  0.0726 -0.1157
  171SOPE  H11R19337  -0.151   2.987  51.976 -0.6126 -2.0078 -0.8716
  171SOPE  H11S19338  -0.268   3.125  52.015  0.1845 -0.5431  1.5353
  171SOPE  C21219339  -0.307   3.014  51.820  1.0412 -0.7804 -0.3742
  171SOPE  H12R19340  -0.316   2.912  51.779 -1.8731  0.1083 -2.2424
  171SOPE  H12S19341  -0.237   3.086  51.772 -0.5612  0.7304 -0.5216
  171SOPE  C21319342  -0.445   3.079  51.792  0.1827  0.3696  0.1110
  171SOPE  H13R19343  -0.485   3.131  51.882  1.9500 -0.4488  1.4463
  171SOPE  H13S19344  -0.520   2.998  51.783  0.3120  0.4354 -2.3797
  171SOPE  C21419345  -0.446   3.158  51.658 -0.0170  0.0031  0.1042
  171SOPE  H14R19346  -0.362   3.231  51.661  0.7564 -0.8800  0.8703
  171SOPE  H14S19347  -0.541   3.213  51.644 -0.3829 -0.4846  0.6081
  171SOPE  C21519348  -0.430   3.065  51.533  0.0616 -0.1816  0.7484
  171SOPE  H15R19349  -0.519   2.999  51.525  1.0848 -1.5817  0.5578
  171SOPE  H15S19350  -0.336   3.009  51.548  0.5027  0.4664  0.4407
  171SOPE  C21619351  -0.421   3.154  51.401 -0.3876  0.7127 -0.4977
  171SOPE  H16R19352  -0.325   3.137  51.347 -0.7415 -1.2945 -0.5677
  171SOPE  H16S19353  -0.426   3.262  51.427 -0.9080  0.7056 -0.5667
  171SOPE  C21719354  -0.530   3.120  51.307  0.2194 -0.9070  0.6041
  171SOPE  H17R19355  -0.519   3.010  51.299 -1.9616 -1.0952 -0.8382
  171SOPE  H17S19356  -0.512   3.162  51.205 -1.3511 -3.0075 -0.6357
  171SOPE  C21819357  -0.675   3.140  51.368 -1.1056 -0.4469  0.2942
  171SOPE  H18R19358  -0.748   3.131  51.284 -3.4674  0.2360  2.1564
  171SOPE  H18S19359  -0.694   3.240  51.412 -2.9502 -0.5955 -0.0744
  171SOPE  H18T19360  -0.696   3.069  51.450  4.0331 -1.4486  1.0628
  171SOPE   C3319361   0.057   3.164  53.560 -0.2902 -0.0593  0.8406
  171SOPE   H3X19362   0.011   3.265  53.550 -0.7831 -0.4750 -2.0500
  171SOPE   H3Y19363   0.160   3.187  53.594 -0.0407  0.0010  0.0722
  171SOPE   C3419364  -0.020   3.114  53.681  0.3718  0.2025  0.3037
  171SOPE   H4X19365   0.043   3.034  53.725 -0.3521  0.2433  1.4671
  171SOPE   H4Y19366  -0.118   3.070  53.654  0.4534  1.4340 -2.3808
  171SOPE   C3519367  -0.052   3.228  53.786 -0.1183 -0.6936 -0.6480
  171SOPE   H5X19368  -0.095   3.306  53.719  0.9784 -0.5855 -1.2482
  171SOPE   H5Y19369   0.037   3.275  53.831 -1.9013  1.8786  0.4470
  171SOPE   C3619370  -0.142   3.185  53.898  0.8792 -0.6478  0.6866
  171SOPE   H6X19371  -0.091   3.098  53.945  1.0936  0.0122  1.7035
  171SOPE   H6Y19372  -0.243   3.161  53.858  1.3572  0.1495 -1.1147
  171SOPE   C3719373  -0.166   3.286  54.002  0.5018  0.2718 -0.5504
  171SOPE   H7X19374  -0.248   3.351  53.965  0.9955 -0.0199 -2.2080
  171SOPE   H7Y19375  -0.072   3.346  54.003  0.0047  1.0592  0.2402
  171SOPE   C3819376  -0.212   3.237  54.143  0.3697  0.4864 -0.2300
  171SOPE   H8X19377  -0.242   3.317  54.214 -3.5463  2.3979 -3.6296
  171SOPE   H8Y19378  -0.124   3.188  54.189 -1.0729  0.1727  2.4618
  171SOPE   C3919379  -0.323   3.131  54.129  0.6358  0.3608 -0.3407
  171SOPE   H9X19380  -0.280   3.039  54.083  0.1105  0.4219 -0.9533
  171SOPE   H9Y19381  -0.405   3.169  54.065  0.7109 -1.4115 -1.5505
  171SOPE  C31019382  -0.384   3.088  54.261 -0.1687 -0.0874  0.5594
  171SOPE  H10X19383  -0.388   3.181  54.321 -2.7715  1.8177 -2.2774
  171SOPE  H10Y19384  -0.316   3.020  54.317 -0.8917 -0.3486  1.1309
  171SOPE  C31119385  -0.528   3.019  54.245 -0.7310 -1.3176  0.3357
  171SOPE  H11X19386  -0.516   2.925  54.188  1.2588 -0.8089 -0.1860
  171SOPE  H11Y19387  -0.581   3.096  54.185  2.1292  1.2729  0.8418
  171SOPE  C31219388  -0.586   2.973  54.375  0.1850 -0.0381 -0.4732
  171SOPE  H12X19389  -0.560   3.049  54.451  1.1821  2.0053 -2.7042
  171SOPE  H12Y19390  -0.540   2.883  54.420  1.2197  0.6729 -0.0803
  171SOPE  C31319391  -0.746   2.964  54.355  0.2949 -0.2396  0.1939
  171SOPE  H13X19392  -0.776   2.902  54.268  3.2311 -2.0072  0.3173
  171SOPE  H13Y19393  -0.776   3.071  54.358  0.7368 -0.0944  4.3568
  171SOPE  C31419394  -0.820   2.919  54.479 -0.1812  0.7063  0.0952
  171SOPE  H14X19395  -0.804   2.810  54.492 -1.2278  0.2038 -2.3020
  171SOPE  H14Y19396  -0.928   2.912  54.454  0.2379  1.6712 -2.1789
  171SOPE  C31519397  -0.815   3.007  54.611  0.7289  0.2711  0.3546
  171SOPE  H15X19398  -0.715   3.050  54.634  0.5290 -0.4150  2.8969
  171SOPE  H15Y19399  -0.839   2.929  54.687 -0.1132  2.5132  2.5176
  171SOPE  C31619400  -0.939   3.089  54.612  0.2304  0.2730 -0.6176
  171SOPE  H16X19401  -1.031   3.027  54.603 -1.1644  1.7873  2.0071
  171SOPE  H16Y19402  -0.954   3.163  54.530  1.6429  0.3081 -0.8730
  171SOPE  C31719403  -0.938   3.158  54.749 -0.1197 -0.9149  0.3339
  171SOPE  H17X19404  -0.839   3.200  54.776 -0.1602  0.4778 -1.5166
  171SOPE  H17Y19405  -0.974   3.086  54.825 -1.3911 -0.6224  0.0482
  171SOPE  C31819406  -1.045   3.271  54.757  0.3464 -0.3925  0.5712
  171SOPE  H18X19407  -1.074   3.312  54.658  1.2473  0.9337  0.8265
  171SOPE  H18Y19408  -0.996   3.354  54.812 -0.8315  0.3525  0.5315
  171SOPE  H18Z19409  -1.137   3.233  54.807 -1.2610  1.8078 -0.5258
  172SOPE     N19410   2.253   2.638  44.269 -0.0449  0.5832  1.0215
  172SOPE   HN119411   2.326   2.601  44.204 -0.1967  2.5274 -0.3468
  172SOPE   HN219412   2.295   2.705  44.336  0.1558 -0.0589  1.5455
  172SOPE   HN319413   2.238   2.548  44.320 -0.5677  0.3681  0.5105
  172SOPE   C1219414   2.127   2.694  44.208 -0.3116  0.0854 -0.0070
  172SOPE  H12A19415   2.143   2.787  44.148 -5.0896  2.0603  1.2496
  172SOPE  H12B19416   2.052   2.720  44.286  0.5714  1.8987  0.3040
  172SOPE   C1119417   2.067   2.593  44.112 -0.3485  0.7874 -0.3945
  172SOPE  H11A19418   1.979   2.634  44.059 -0.0918 -1.9170 -3.2477
  172SOPE  H11B19419   2.036   2.510  44.180  2.3986 -1.6539 -1.9110
  172SOPE     P19420   2.188   2.625  43.887 -0.3786 -0.0199  0.0908
  172SOPE   O1319421   2.263   2.538  43.785  0.2062 -0.7402 -0.1729
  172SOPE   O1419422   2.243   2.754  43.920 -0.3607 -0.2671  0.2021
  172SOPE   O1219423   2.166   2.545  44.014  0.0907  0.1695  0.1892
  172SOPE   O1119424   2.047   2.642  43.843  0.1744  0.0700  0.6499
  172SOPE    C119425   2.004   2.665  43.705 -0.8067  0.1345 -0.0283
  172SOPE    HA19426   1.893   2.667  43.708 -0.8639  3.2155 -0.4401
  172SOPE    HB19427   2.039   2.578  43.646  0.2875 -0.5836  1.6139
  172SOPE    C219428   2.048   2.797  43.645 -0.2480  0.0745  0.2530
  172SOPE    HS19429   2.158   2.786  43.640 -0.5259 -6.0394  1.1296
  172SOPE   O2119430   2.011   2.907  43.734  0.1247 -0.0847 -0.2222
  172SOPE   C2119431   2.098   3.002  43.752 -0.0556 -0.6990 -0.7345
  172SOPE   O2219432   2.215   3.006  43.712  0.9497  0.2133  0.1327
  172SOPE   C2219433   2.032   3.123  43.825  0.3774 -0.0792  0.4671
  172SOPE   H2R19434   1.924   3.104  43.839  0.0689  0.3625 -1.1393
  172SOPE   H2S19435   2.038   3.208  43.755  0.6296 -0.0607  0.5081
  172SOPE    C319436   1.992   2.811  43.503  0.9521  0.1892 -0.4124
  172SOPE    HX19437   2.049   2.735  43.445  0.8296 -1.0130  0.9899
  172SOPE    HY19438   2.007   2.913  43.463 -0.3465  1.0273  1.1379
  172SOPE   O3119439   1.842   2.791  43.498 -0.1122 -0.1540  0.0480
  172SOPE   C3119440   1.796   2.757  43.382  0.9315 -0.8102 -0.3718
  172SOPE   O3219441   1.855   2.757  43.274 -0.0633  0.2875  0.2797
  172SOPE   C3219442   1.647   2.724  43.402  0.1811  0.6317 -0.3516
  172SOPE   H2X19443   1.581   2.767  43.324 -1.2640  1.6291  1.3499
  172SOPE   H2Y19444   1.619   2.779  43.494  1.2052 -1.9301  1.6253
  172SOPE   C2319445   2.100   3.167  43.972  0.2722  0.3062  0.6921
  172SOPE   H3R19446   2.051   3.264  43.991 -0.1096 -0.2111  2.5894
  172SOPE   H3S19447   2.211   3.164  43.965  0.4808 -0.2185  3.1926
  172SOPE   C2419448   2.071   3.072  44.088 -0.1739  1.1518 -0.5126
  172SOPE   H4R19449   2.054   2.966  44.058  2.2357  0.5487  0.0720
  172SOPE   H4S19450   2.167   3.068  44.144 -0.8324  1.1430  0.6506
  172SOPE   C2519451   1.944   3.119  44.173  0.0070 -0.2474 -0.2004
  172SOPE   H5R19452   1.948   3.223  44.213  1.7596 -0.7291  0.9766
  172SOPE   H5S19453   1.866   3.123  44.094  1.0214  0.2213 -1.2123
  172SOPE   C2619454   1.904   3.025  44.291  0.6612  0.1731 -0.2964
  172SOPE   H6R19455   1.827   3.082  44.348 -1.2740 -2.1532 -0.4152
  172SOPE   H6S19456   1.859   2.928  44.262 -1.2825  0.9219  0.0291
  172SOPE   C2719457   2.011   2.995  44.392  0.2077  0.4456 -0.1284
  172SOPE   H7R19458   1.975   2.950  44.487 -1.0926 -0.6848 -1.1339
  172SOPE   H7S19459   2.066   2.908  44.352 -1.0204 -0.8106  0.8174
  172SOPE   C2819460   2.086   3.119  44.431  0.0132  0.7733 -0.1215
  172SOPE   H8R19461   2.118   3.174  44.340  2.8783  2.0787  1.5243
  172SOPE   H8S19462   2.020   3.171  44.504  0.5302 -2.7399  3.1690
  172SOPE   C2919463   2.214   3.070  44.496  0.5801 -0.0818 -0.0027
  172SOPE   H9119464   2.280   3.016  44.426 -0.2305  0.4280 -1.1968
  172SOPE  C21019465   2.265   3.102  44.613  0.3933  0.1788 -0.1764
  172SOPE  H10119466   2.367   3.063  44.624 -1.0437 -3.7707  0.6783
  172SOPE  C21119467   2.207   3.180  44.727  0.0076  0.0779 -0.2536
  172SOPE  H11R19468   2.188   3.113  44.814 -0.9370  2.5883  1.6123
  172SOPE  H11S19469   2.108   3.222  44.697  0.2006 -0.3765 -1.5891
  172SOPE  C21219470   2.306   3.292  44.777 -0.1955  0.1470 -0.2996
  172SOPE  H12R19471   2.406   3.248  44.801 -1.8104 -5.0256 -1.8103
  172SOPE  H12S19472   2.269   3.354  44.862 -0.8647  0.4121 -0.7801
  172SOPE  C21319473   2.331   3.403  44.679  0.1131  0.8196 -0.4449
  172SOPE  H13R19474   2.245   3.473  44.675 -0.0429  0.8098  1.7620
  172SOPE  H13S19475   2.346   3.374  44.572 -0.8343  0.9867 -0.6363
  172SOPE  C21419476   2.451   3.487  44.726  0.0920  0.1468  0.3948
  172SOPE  H14R19477   2.543   3.427  44.711 -0.4627 -1.0957  1.7089
  172SOPE  H14S19478   2.448   3.489  44.837  2.1946  0.3380  0.4921
  172SOPE  C21519479   2.462   3.625  44.661  0.3931 -0.2710  0.6153
  172SOPE  H15R19480   2.362   3.669  44.685 -0.3854 -1.7537  0.2189
  172SOPE  H15S19481   2.468   3.626  44.550 -3.3423  0.0300  0.2606
  172SOPE  C21619482   2.557   3.716  44.747  1.3585 -0.5713 -0.3815
  172SOPE  H16R19483   2.666   3.694  44.740  1.7273  1.3664 -1.4864
  172SOPE  H16S19484   2.527   3.726  44.853  0.7313 -0.8439 -0.5305
  172SOPE  C21719485   2.554   3.870  44.688  0.2514  0.4745  0.4645
  172SOPE  H17R19486   2.452   3.878  44.643  0.5424  0.5537 -0.1988
  172SOPE  H17S19487   2.623   3.875  44.601 -0.1442  0.1023  0.1202
  172SOPE  C21819488   2.565   3.971  44.796 -0.0906  0.0579  0.1167
  172SOPE  H18R19489   2.647   3.942  44.866 -0.1036  1.4159  0.7202
  172SOPE  H18S19490   2.469   3.955  44.849 -0.3959  0.3067 -0.3624
  172SOPE  H18T19491   2.570   4.076  44.763 -0.9785 -0.1022 -0.5499
  172SOPE   C3319492   1.635   2.569  43.417 -0.4626 -0.7850  0.0380
  172SOPE   H3X19493   1.667   2.522  43.322  1.8424  0.7646 -0.0177
  172SOPE   H3Y19494   1.526   2.555  43.433 -0.6021  0.4899  0.2886
  172SOPE   C3419495   1.706   2.510  43.537  0.5733 -0.5163  0.4458
  172SOPE   H4X19496   1.705   2.584  43.620 -2.0784 -0.7009  0.6474
  172SOPE   H4Y19497   1.810   2.474  43.518  0.5853 -0.6152  0.6949
  172SOPE   C3519498   1.628   2.381  43.578 -0.8058 -0.6540  0.2014
  172SOPE   H5X19499   1.633   2.316  43.489  1.9088 -2.9549  1.8611
  172SOPE   H5Y19500   1.521   2.400  43.598 -0.8534  1.1472 -1.4553
  172SOPE   C3619501   1.714   2.320  43.682 -0.0504  0.4226 -0.6407
  172SOPE   H6X19502   1.742   2.377  43.773  0.3393 -1.4344  0.4550
  172SOPE   H6Y19503   1.809   2.275  43.645 -0.5139 -0.9103 -0.2401
  172SOPE   C3719504   1.631   2.201  43.743  0.0634  1.0953 -0.1993
  172SOPE   H7X19505   1.615   2.138  43.653 -3.0282 -1.5573  2.0169
  172SOPE   H7Y19506   1.533   2.232  43.783  0.2448  1.1091  0.2376
  172SOPE   C3819507   1.692   2.120  43.852 -0.4355  0.2837 -0.0695
  172SOPE   H8X19508   1.688   2.186  43.940 -1.2378  1.1796 -0.7613
  172SOPE   H8Y19509   1.797   2.087  43.834  0.4308  1.4050  2.5494
  172SOPE   C3919510   1.612   1.997  43.878 -0.0395  0.2995  0.7668
  172SOPE   H9X19511   1.617   1.939  43.783 -0.9554  3.0343 -1.0703
  172SOPE   H9Y19512   1.507   2.013  43.911 -0.4715 -2.6131  1.1045
  172SOPE  C31019513   1.657   1.909  43.992  0.0637 -0.2686  0.1967
  172SOPE  H10X19514   1.711   1.978  44.059  0.9211 -1.1509  0.4363
  172SOPE  H10Y19515   1.734   1.837  43.956 -0.0133 -0.6059  0.7132
  172SOPE  C31119516   1.544   1.824  44.055 -0.4179  1.1506 -0.3747
  172SOPE  H11X19517   1.448   1.854  44.008 -0.7651  0.0495 -0.3841
  172SOPE  H11Y19518   1.524   1.856  44.159  2.0964  0.5502  0.3730
  172SOPE  C31219519   1.561   1.676  44.038  0.0916  0.3256 -0.6110
  172SOPE  H12X19520   1.660   1.635  44.068 -0.1096 -1.2644 -1.9062
  172SOPE  H12Y19521   1.555   1.645  43.931  1.3876 -1.1105 -0.3167
  172SOPE  C31319522   1.460   1.595  44.121  0.2659  0.1789 -0.2268
  172SOPE  H13X19523   1.358   1.630  44.091 -0.0657  0.8941  1.6227
  172SOPE  H13Y19524   1.486   1.632  44.222 -0.3638  0.1909 -0.0658
  172SOPE  C31419525   1.478   1.443  44.117 -0.2225  0.2144 -0.5057
  172SOPE  H14X19526   1.587   1.420  44.121 -0.6479 -1.9844  0.0186
  172SOPE  H14Y19527   1.446   1.398  44.020  1.3374 -0.2817 -0.8229
  172SOPE  C31519528   1.409   1.361  44.232 -0.0708 -0.1087  0.3629
  172SOPE  H15X19529   1.432   1.253  44.215 -1.9965 -0.5449  0.3133
  172SOPE  H15Y19530   1.299   1.376  44.234 -0.0100  0.3484  0.2223
  172SOPE  C31619531   1.472   1.394  44.372  0.2231  0.6047  0.3296
  172SOPE  H16X19532   1.448   1.497  44.405 -3.4518 -0.4002  1.2786
  172SOPE  H16Y19533   1.581   1.379  44.361  0.1818 -0.4217  1.1076
  172SOPE  C31719534   1.425   1.305  44.493  0.6759 -0.5760 -0.3172
  172SOPE  H17X19535   1.316   1.320  44.511  0.3286 -0.7498 -2.1460
  172SOPE  H17Y19536   1.478   1.334  44.586 -1.6885 -0.1459  0.9791
  172SOPE  C31819537   1.448   1.157  44.462 -0.1973 -0.4614  0.4277
  172SOPE  H18X19538   1.481   1.106  44.555 -0.4332  1.4255  1.6055
  172SOPE  H18Y19539   1.525   1.135  44.385  2.0290 -2.7180  3.0908
  172SOPE  H18Z19540   1.356   1.116  44.414 -1.3863  1.2308  1.1688
  173SAPI   C1219541   0.003   0.949  57.209  0.7939 -0.0898  0.2225
  173SAPI    H219542  -0.006   0.991  57.107  2.0363 -3.0362 -1.2237
  173SAPI    O219543   0.080   0.828  57.200 -0.3593 -0.3028 -0.1088
  173SAPI   HO219544   0.032   0.762  57.149  1.2080 -1.0205 -0.7382
  173SAPI   C1319545   0.074   1.045  57.308 -0.0188 -1.1455 -0.4234
  173SAPI    H319546   0.010   1.137  57.312  2.0456  0.3699 -0.6097
  173SAPI    O319547   0.210   1.076  57.266 -0.1780 -0.5716 -0.4404
  173SAPI   HO319548   0.236   0.987  57.242 -0.8447 -0.3522 -2.1565
  173SAPI   C1419549   0.088   0.986  57.444  0.6553 -0.5813 -0.8350
  173SAPI    H419550   0.160   0.903  57.427  0.1696 -0.7157 -2.4656
  173SAPI    O419551   0.133   1.079  57.551  0.3911  0.4062  0.1098
  173SAPI   HO419552   0.105   1.167  57.526 -2.5733 -1.1125 -2.6740
  173SAPI   C1519553  -0.036   0.902  57.500 -0.3556 -0.6283  1.1905
  173SAPI    H519554  -0.087   0.972  57.569 -2.7079 -0.5635 -0.5093
  173SAPI    O519555   0.003   0.797  57.582 -0.7844  0.0406  0.5609
  173SAPI   HO519556  -0.057   0.817  57.654 -4.3609 -0.9788 -1.8382
  173SAPI   C1619557  -0.147   0.860  57.398  0.1170  0.8715  0.2275
  173SAPI    H619558  -0.135   0.750  57.387  0.1723  0.8759  0.2428
  173SAPI    O619559  -0.282   0.853  57.457 -0.7733 -0.7659  0.7969
  173SAPI   HO619560  -0.347   0.827  57.391 -0.3426 -0.6942  0.3395
  173SAPI   C1119561  -0.142   0.918  57.264  0.8082 -0.8520  1.1602
  173SAPI    H119562  -0.188   1.018  57.280  1.4181 -0.2671 -0.5421
  173SAPI     P19563  -0.360   0.864  57.120  0.2733  0.1102 -0.1021
  173SAPI   O1319564  -0.447   0.840  57.235 -0.1499  0.0155 -0.0888
  173SAPI   O1419565  -0.399   0.794  56.998 -0.1260  0.0636  0.0869
  173SAPI   O1219566  -0.204   0.840  57.163  0.2150  0.7874  0.2310
  173SAPI   O1119567  -0.371   1.017  57.079 -0.0962 -0.0190  0.2239
  173SAPI    C119568  -0.321   1.092  56.975 -0.1904  0.2445  0.8309
  173SAPI    HA19569  -0.291   1.192  57.015 -3.8527  1.5094  0.8041
  173SAPI    HB19570  -0.228   1.051  56.930  0.5576  0.6002  1.9800
  173SAPI    C219571  -0.421   1.108  56.854  0.1126  0.1065 -0.3645
  173SAPI    HS19572  -0.405   1.028  56.779 -2.9632 -1.0556  0.0588
  173SAPI   O2119573  -0.401   1.247  56.800 -0.6585 -0.7223  0.3307
  173SAPI   C2119574  -0.305   1.247  56.712 -0.6702 -0.4180  0.1863
  173SAPI   O2219575  -0.246   1.147  56.676 -0.2715  0.3267  0.4370
  173SAPI   C2219576  -0.274   1.389  56.661  0.2278 -0.9241 -0.1592
  173SAPI   H2R19577  -0.353   1.455  56.703 -0.1439 -0.9745 -0.7712
  173SAPI   H2S19578  -0.172   1.421  56.689 -0.6813  2.1526  0.0534
  173SAPI    C319579  -0.578   1.095  56.897  1.0459  0.1711 -0.0524
  173SAPI    HX19580  -0.577   1.155  56.990  1.5938  0.6691 -0.3769
  173SAPI    HY19581  -0.616   0.993  56.922 -2.6959  0.8116 -2.2843
  173SAPI   O3119582  -0.668   1.153  56.802  0.4153 -0.8896 -0.0998
  173SAPI   C3119583  -0.721   1.069  56.713  0.2930  0.5095 -0.1652
  173SAPI   O3219584  -0.707   0.945  56.714 -0.5831 -0.2953  0.4328
  173SAPI   C3219585  -0.810   1.150  56.612  0.3893  0.0628  0.4416
  173SAPI   H2X19586  -0.746   1.170  56.523  3.1374 -1.7953  1.8480
  173SAPI   H2Y19587  -0.838   1.248  56.656  1.2228  1.0447 -1.1154
  173SAPI   C2319588  -0.287   1.405  56.507 -0.8917  0.3591 -0.2728
  173SAPI   H3R19589  -0.389   1.368  56.483 -1.1402  0.9550 -0.1494
  173SAPI   H3S19590  -0.217   1.341  56.449  1.6426  2.0686  0.7482
  173SAPI   C2419591  -0.270   1.545  56.447  0.1062 -1.4191 -0.3149
  173SAPI   H4R19592  -0.233   1.524  56.345 -1.8452 -0.2239 -1.3231
  173SAPI   H4S19593  -0.185   1.592  56.502 -0.1512 -2.4381  1.0176
  173SAPI   C2519594  -0.399   1.625  56.435 -0.1037 -0.4765  0.2452
  173SAPI   H5R19595  -0.424   1.689  56.520 -1.7268 -0.2091 -0.4062
  173SAPI   C2619596  -0.469   1.623  56.321  0.7067  0.4194  0.8103
  173SAPI   H6R19597  -0.561   1.682  56.315  0.2171 -0.1260  2.4738
  173SAPI   C2719598  -0.437   1.543  56.193  0.2245  0.1161 -0.6432
  173SAPI   H7R19599  -0.365   1.460  56.212 -1.2569 -2.4898 -5.0216
  173SAPI   H7S19600  -0.396   1.611  56.115 -0.9522  0.0290 -1.3595
  173SAPI   C2819601  -0.563   1.467  56.161  0.0824 -0.9685 -0.2801
  173SAPI   H8R19602  -0.567   1.373  56.220  0.7986 -1.6955 -1.3460
  173SAPI   C2919603  -0.664   1.510  56.078  0.2871 -0.6457 -0.3629
  173SAPI   H9R19604  -0.754   1.447  56.074 -0.9913  1.1385 -0.2675
  173SAPI  C21019605  -0.671   1.638  55.987 -0.0969  0.0158  0.3656
  173SAPI  H10R19606  -0.576   1.695  55.998 -0.2941  0.1411  1.5343
  173SAPI  H10S19607  -0.741   1.712  56.030 -0.2646 -0.3269  0.6890
  173SAPI  C21119608  -0.696   1.594  55.840 -0.9233  0.5241  0.9966
  173SAPI  H11R19609  -0.634   1.513  55.800 -0.5542  0.8574  0.8882
  173SAPI  C21219610  -0.772   1.664  55.753 -0.0418  0.8168 -0.6661
  173SAPI  H12R19611  -0.789   1.618  55.654  1.4238  0.4156 -0.7618
  173SAPI  C21319612  -0.873   1.776  55.783 -1.1426 -0.4744 -0.3107
  173SAPI  H13R19613  -0.837   1.822  55.878 -0.9459 -0.9853 -0.1348
  173SAPI  H13S19614  -0.972   1.729  55.797  0.2462 -3.5831 -0.0893
  173SAPI  C21419615  -0.889   1.885  55.683 -0.3832  0.0349 -0.2126
  173SAPI  H14R19616  -0.987   1.877  55.633 -0.0553 -0.1290 -0.8396
  173SAPI  C21519617  -0.818   2.000  55.675 -0.0540 -0.2165 -0.3211
  173SAPI  H15R19618  -0.835   2.081  55.602 -1.4394  0.3759  0.6159
  173SAPI  C21619619  -0.697   2.030  55.766 -0.6659 -0.4709 -0.4477
  173SAPI  H16R19620  -0.608   2.062  55.707  0.2963 -0.7890  0.7883
  173SAPI  H16S19621  -0.647   1.939  55.805  3.1455  1.8864  0.6979
  173SAPI  C21719622  -0.738   2.150  55.863  0.1564  0.1700  0.7849
  173SAPI  H17R19623  -0.751   2.245  55.807  0.5156  1.0712  2.1760
  173SAPI  H17S19624  -0.658   2.177  55.936  0.7141 -0.3848  0.3878
  173SAPI  C21819625  -0.861   2.121  55.939 -0.1106  0.8437 -0.1244
  173SAPI  H18R19626  -0.860   2.017  55.979 -0.3007  0.8952  0.0139
  173SAPI  H18S19627  -0.955   2.129  55.879  0.3896 -0.8899 -1.2219
  173SAPI  C21919628  -0.870   2.195  56.078 -0.4634 -0.9388 -0.7738
  173SAPI  H19R19629  -0.859   2.305  56.064 -0.0637 -0.5843  1.8252
  173SAPI  H19S19630  -0.791   2.161  56.148  0.1585 -2.1698 -2.0155
  173SAPI  C22019631  -1.009   2.184  56.128 -0.0251 -0.0977 -0.6134
  173SAPI  H20R19632  -1.018   2.077  56.157  1.3131  0.4929  2.3674
  173SAPI  H20S19633  -1.085   2.221  56.055 -0.2684 -0.2294 -0.4237
  173SAPI  H20T19634  -1.017   2.242  56.222  0.5056 -2.3305  0.8788
  173SAPI   C3319635  -0.934   1.080  56.574  0.0618  0.8561  0.7103
  173SAPI   H3X19636  -0.978   1.024  56.659  1.9329  0.6562  1.6106
  173SAPI   H3Y19637  -0.934   1.003  56.494  0.4832  1.0825  0.4845
  173SAPI   C3419638  -1.057   1.167  56.530 -0.5199 -0.1749 -0.6577
  173SAPI   H4X19639  -1.084   1.243  56.606  1.0724  0.4773 -0.7098
  173SAPI   H4Y19640  -1.145   1.099  56.531 -0.2791 -0.4858 -0.5141
  173SAPI   C3519641  -1.048   1.222  56.387 -0.3318 -0.3330 -0.1024
  173SAPI   H5X19642  -1.035   1.138  56.315 -2.7427 -0.0237 -0.9733
  173SAPI   H5Y19643  -0.953   1.281  56.393  0.2634 -1.2870  0.0296
  173SAPI   C3619644  -1.163   1.310  56.338 -0.8894 -0.7089  0.3186
  173SAPI   H6X19645  -1.192   1.388  56.411  1.6135  1.6716 -1.0703
  173SAPI   H6Y19646  -1.251   1.242  56.338 -0.4107 -1.3571  1.3581
  173SAPI   C3719647  -1.139   1.379  56.208 -0.6742  0.2988  0.3521
  173SAPI   H7X19648  -1.039   1.425  56.226  0.7377 -1.2049 -2.8120
  173SAPI   H7Y19649  -1.214   1.461  56.202  0.4422  1.3370  0.0184
  173SAPI   C3819650  -1.132   1.283  56.093  0.3739  0.4714  0.4433
  173SAPI   H8X19651  -1.070   1.193  56.113 -3.0436 -2.0294  0.5224
  173SAPI   H8Y19652  -1.079   1.331  56.008 -1.8031  2.0150 -0.1256
  173SAPI   C3919653  -1.271   1.229  56.050  0.0924 -0.5206  0.8940
  173SAPI   H9X19654  -1.341   1.313  56.031  0.8623 -0.0147  0.2252
  173SAPI   H9Y19655  -1.320   1.180  56.137  0.5469 -3.3802 -0.3305
  173SAPI  C31019656  -1.270   1.134  55.932 -0.4999 -0.1499  0.3506
  173SAPI  H10X19657  -1.212   1.045  55.962 -0.4284  0.0640  0.8608
  173SAPI  H10Y19658  -1.208   1.192  55.860  0.7136 -1.2593  0.4645
  173SAPI  C31119659  -1.411   1.091  55.879 -0.3090  0.2422  0.7438
  173SAPI  H11X19660  -1.485   1.172  55.860 -2.9289 -1.3106  3.5042
  173SAPI  H11Y19661  -1.459   1.025  55.954  0.2976  0.7970  1.6430
  173SAPI  C31219662  -1.396   1.012  55.752  0.6376 -0.2352 -0.6573
  173SAPI  H12X19663  -1.499   0.986  55.719  0.9632 -1.1726 -0.9625
  173SAPI  H12Y19664  -1.358   0.912  55.781 -0.7293 -0.9199 -1.1205
  173SAPI  C31319665  -1.319   1.080  55.638  0.5946 -0.9458  0.7390
  173SAPI  H13X19666  -1.211   1.087  55.661  0.2211  0.3610  2.2585
  173SAPI  H13Y19667  -1.377   1.175  55.642  0.6470 -0.8644 -0.2197
  173SAPI  C31419668  -1.336   1.006  55.513 -0.0666 -0.0856  0.2769
  173SAPI  H14X19669  -1.431   0.949  55.509  1.6158 -3.3265  2.3530
  173SAPI  H14Y19670  -1.243   0.947  55.505 -0.6304 -0.8446 -0.9179
  173SAPI  C31519671  -1.330   1.086  55.390  0.8872  0.6092  0.8187
  173SAPI  H15X19672  -1.423   1.146  55.391  0.0347 -0.6594  0.4375
  173SAPI  H15Y19673  -1.349   1.024  55.300  2.0994  2.1554 -0.5721
  173SAPI  C31619674  -1.218   1.194  55.383  0.8185  0.5593  0.7536
  173SAPI  H16X19675  -1.126   1.143  55.349  1.4308  2.4037 -0.4985
  173SAPI  H16Y19676  -1.207   1.251  55.477  0.5605 -0.0021  1.1285
  173SAPI  C31719677  -1.239   1.311  55.286 -0.5034  0.2013  0.5335
  173SAPI  H17X19678  -1.243   1.288  55.177  0.1780  0.8317  0.3620
  173SAPI  H17Y19679  -1.151   1.380  55.287 -1.8539  2.2617 -2.9716
  173SAPI  C31819680  -1.355   1.400  55.316  0.3553  1.0900 -0.9757
  173SAPI  H18X19681  -1.450   1.346  55.298 -0.0982  1.7518 -0.6331
  173SAPI  H18Y19682  -1.359   1.483  55.242  2.0039  2.1131  0.0300
  173SAPI  H18Z19683  -1.360   1.443  55.418 -2.6128  0.6229 -0.8274
  174SAPI   C1219684   0.958   0.009  63.417  1.0373  1.3602  0.3929
  174SAPI    H219685   0.847   0.004  63.424  0.8893  1.7098 -1.2433
  174SAPI    O219686   0.996   0.062  63.541 -0.2424 -0.0603 -0.3914
  174SAPI   HO219687   0.922   0.047  63.600  0.2008 -1.8360 -0.2338
  174SAPI   C1319688   0.992  -0.137  63.396  0.0489 -0.2151 -0.0855
  174SAPI    H319689   0.975  -0.165  63.290  2.3394  0.3400 -0.6556
  174SAPI    O319690   0.914  -0.218  63.484 -0.5511 -0.0479  0.9161
  174SAPI   HO319691   0.819  -0.205  63.476 -0.9796 -3.4094 -2.8548
  174SAPI   C1419692   1.149  -0.145  63.407  1.1775 -0.3663 -0.3782
  174SAPI    H419693   1.170  -0.129  63.515 -1.4829  2.0479 -0.0908
  174SAPI    O419694   1.190  -0.274  63.363  0.1966 -0.2710 -0.0089
  174SAPI   HO419695   1.187  -0.333  63.438  4.0185 -0.7459 -0.0182
  174SAPI   C1519696   1.222  -0.031  63.342  0.5826 -0.4431  0.4794
  174SAPI    H519697   1.256  -0.067  63.242 -1.4416 -1.6236  0.1483
  174SAPI    O519698   1.344  -0.010  63.407 -0.7389  0.6580  0.0593
  174SAPI   HO519699   1.383   0.069  63.369  1.4033 -1.0548 -1.6122
  174SAPI   C1619700   1.153   0.108  63.313  0.3553  0.4936  0.2533
  174SAPI    H619701   1.166   0.173  63.402 -2.6741  2.8210 -0.8561
  174SAPI    O619702   1.208   0.181  63.204 -0.5384 -0.0590  0.6714
  174SAPI   HO619703   1.180   0.134  63.125  2.4368  1.4146 -1.4600
  174SAPI   C1119704   1.001   0.095  63.298 -1.0535 -0.2343 -0.0909
  174SAPI    H119705   0.983   0.056  63.195 -3.4784  3.2877 -1.1950
  174SAPI     P19706   0.782   0.261  63.270 -0.3936 -0.1656  0.6026
  174SAPI   O1319707   0.757   0.395  63.327  0.0468  0.1007  0.1374
  174SAPI   O1419708   0.693   0.144  63.310 -0.2926  0.5956 -0.4942
  174SAPI   O1219709   0.942   0.222  63.303 -0.3537  0.8234 -0.0626
  174SAPI   O1119710   0.786   0.280  63.111  0.5686 -0.0148 -0.5248
  174SAPI    C119711   0.879   0.335  63.026  0.1836 -0.1290  0.8100
  174SAPI    HA19712   0.982   0.322  63.066 -0.0340 -1.0460  1.0790
  174SAPI    HB19713   0.872   0.286  62.927  3.1217  0.0896  0.4045
  174SAPI    C219714   0.857   0.492  63.007 -0.1217  0.7789 -0.7341
  174SAPI    HS19715   0.879   0.530  63.110 -2.6381 -2.5668  1.2451
  174SAPI   O2119716   0.722   0.501  62.963  0.2370  0.5641 -0.6457
  174SAPI   C2119717   0.671   0.623  62.970 -0.3712 -1.0634 -0.6701
  174SAPI   O2219718   0.723   0.716  63.027 -0.1530 -0.1350 -0.3571
  174SAPI   C2219719   0.542   0.639  62.895 -0.5596  0.6741  0.5225
  174SAPI   H2R19720   0.555   0.582  62.800 -0.3904 -1.5235  1.8217
  174SAPI   H2S19721   0.454   0.587  62.939  0.4267 -1.5989 -0.0707
  174SAPI    C319722   0.957   0.557  62.900  0.5324  0.3138  0.5310
  174SAPI    HX19723   1.061   0.526  62.924  1.1806  2.4123  0.6166
  174SAPI    HY19724   0.948   0.667  62.888 -0.1554  0.1035 -1.2376
  174SAPI   O3119725   0.925   0.504  62.769  0.0708 -0.7064 -0.7028
  174SAPI   C3119726   0.990   0.395  62.720 -0.3324  0.3588 -0.2891
  174SAPI   O3219727   1.097   0.355  62.766  0.6822  0.3985  0.0592
  174SAPI   C3219728   0.923   0.331  62.596 -0.0354 -0.8723 -0.6458
  174SAPI   H2X19729   1.007   0.332  62.523  1.6202 -1.3108  1.1736
  174SAPI   H2Y19730   0.858   0.411  62.555 -0.5832 -0.3822  1.1051
  174SAPI   C2319731   0.482   0.782  62.876 -0.3317 -0.2409 -0.1468
  174SAPI   H3R19732   0.515   0.863  62.945 -2.3899 -0.0991  0.7636
  174SAPI   H3S19733   0.371   0.779  62.889 -0.4060  0.2547 -0.6578
  174SAPI   C2419734   0.514   0.844  62.738  0.7697 -0.6493 -0.0471
  174SAPI   H4R19735   0.462   0.942  62.748  0.2537 -0.9433  0.1909
  174SAPI   H4S19736   0.459   0.784  62.662 -2.7698  2.9330 -0.6599
  174SAPI   C2519737   0.659   0.851  62.692 -0.2608  0.0527  0.0204
  174SAPI   H5R19738   0.733   0.880  62.768  0.2507 -2.4927  0.5846
  174SAPI   C2619739   0.721   0.805  62.571  0.3568  0.2026  0.7641
  174SAPI   H6R19740   0.831   0.808  62.570  0.3337  1.3679  0.3123
  174SAPI   C2719741   0.645   0.757  62.442  0.8395 -0.4450 -0.7586
  174SAPI   H7R19742   0.701   0.799  62.355  0.5535 -0.9258 -1.1835
  174SAPI   H7S19743   0.542   0.800  62.440  0.4940 -0.7876  2.7079
  174SAPI   C2819744   0.658   0.611  62.430  0.4915 -0.7021 -0.5192
  174SAPI   H8R19745   0.696   0.554  62.517 -0.0764  0.7087  0.7009
  174SAPI   C2919746   0.640   0.541  62.315 -0.0007 -0.1173  0.4496
  174SAPI   H9R19747   0.686   0.441  62.318  1.4902  0.3543 -2.6448
  174SAPI  C21019748   0.560   0.585  62.198  0.1168  0.6231  0.1493
  174SAPI  H10R19749   0.586   0.690  62.173  0.6613  0.3213 -0.5812
  174SAPI  H10S19750   0.450   0.572  62.208  0.0879  0.1332 -0.7017
  174SAPI  C21119751   0.597   0.495  62.080  0.6853 -0.6852 -0.7024
  174SAPI  H11R19752   0.535   0.406  62.063  1.0565 -1.2237  0.7068
  174SAPI  C21219753   0.700   0.516  61.995 -0.2953 -0.2703 -0.0753
  174SAPI  H12R19754   0.723   0.441  61.919  4.3075  1.9820 -1.2366
  174SAPI  C21319755   0.799   0.634  62.019 -0.1910 -0.5675  0.4852
  174SAPI  H13R19756   0.802   0.654  62.129 -1.1766  3.3694 -0.0541
  174SAPI  H13S19757   0.770   0.730  61.972 -1.3604 -0.4912  1.3294
  174SAPI  C21419758   0.940   0.598  61.977 -0.0434 -0.8386  0.3282
  174SAPI  H14R19759   1.006   0.574  62.062  0.0545 -1.8970 -0.0256
  174SAPI  C21519760   0.982   0.587  61.846 -0.1173 -0.2763 -1.6412
  174SAPI  H15R19761   1.090   0.574  61.832 -0.2163 -1.1710 -1.5974
  174SAPI  C21619762   0.907   0.618  61.716 -0.1430 -0.0066  0.2963
  174SAPI  H16R19763   0.982   0.674  61.655 -2.2468  2.1489 -0.4910
  174SAPI  H16S19764   0.815   0.679  61.724 -0.6649 -0.8842  1.1615
  174SAPI  C21719765   0.858   0.492  61.647  1.1342  0.3510 -0.3780
  174SAPI  H17R19766   0.803   0.521  61.555  1.2051 -1.3712 -0.9903
  174SAPI  H17S19767   0.798   0.426  61.713  1.9920  0.8188  0.9104
  174SAPI  C21819768   0.969   0.393  61.619  0.3064  0.5234  0.2643
  174SAPI  H18R19769   0.992   0.343  61.715 -0.0627 -0.2840 -0.0572
  174SAPI  H18S19770   1.062   0.453  61.614  1.9232 -1.8993 -3.6165
  174SAPI  C21919771   0.962   0.294  61.505  0.3090  1.0265  0.4359
  174SAPI  H19R19772   1.065   0.254  61.491 -0.6760 -2.2222  1.4633
  174SAPI  H19S19773   0.934   0.344  61.410 -0.5498  1.6392  0.9995
  174SAPI  C22019774   0.865   0.182  61.548 -0.4829  1.0841  0.2312
  174SAPI  H20R19775   0.771   0.210  61.600 -1.2213  0.1785 -0.5712
  174SAPI  H20S19776   0.924   0.118  61.618 -0.6857 -2.4625 -2.5174
  174SAPI  H20T19777   0.852   0.102  61.472  1.5384  0.4398  0.4895
  174SAPI   C3319778   0.871   0.189  62.630  0.2964 -0.2803 -0.6697
  174SAPI   H3X19779   0.851   0.186  62.739 -2.2616 -0.8855 -1.0818
  174SAPI   H3Y19780   0.943   0.108  62.606 -0.0854 -0.8164 -0.0412
  174SAPI   C3419781   0.735   0.168  62.560 -0.6064  0.4013 -0.1205
  174SAPI   H4X19782   0.661   0.250  62.570 -1.0318  0.3093 -2.0409
  174SAPI   H4Y19783   0.703   0.072  62.606  1.5325  0.5314  1.7981
  174SAPI   C3519784   0.763   0.145  62.413  0.0409  0.9305  0.1220
  174SAPI   H5X19785   0.846   0.076  62.386 -1.2336 -0.7751  0.3713
  174SAPI   H5Y19786   0.788   0.248  62.381  1.2419  0.7304  0.3783
  174SAPI   C3619787   0.634   0.093  62.335  0.2868 -0.5612 -0.6242
  174SAPI   H6X19788   0.659   0.091  62.227  0.5727  0.4335 -0.5853
  174SAPI   H6Y19789   0.551   0.166  62.333 -0.3313 -1.1656  0.9545
  174SAPI   C3719790   0.589  -0.048  62.358  0.5490  0.7778  0.2780
  174SAPI   H7X19791   0.496  -0.063  62.298  1.3157  2.2231 -1.3860
  174SAPI   H7Y19792   0.557  -0.044  62.464 -0.7314  2.7267 -0.1286
  174SAPI   C3819793   0.700  -0.158  62.344  0.3450 -0.6246  0.0354
  174SAPI   H8X19794   0.651  -0.252  62.377 -0.2548 -0.3754 -0.1437
  174SAPI   H8Y19795   0.784  -0.134  62.413 -0.0816  4.5949 -0.8492
  174SAPI   C3919796   0.745  -0.174  62.193 -0.3124 -0.6600 -0.3613
  174SAPI   H9X19797   0.724  -0.076  62.145 -0.0859 -0.0874  0.6814
  174SAPI   H9Y19798   0.675  -0.237  62.135 -0.8670 -0.5757  0.2020
  174SAPI  C31019799   0.901  -0.202  62.177 -0.3285  0.2528  1.4881
  174SAPI  H10X19800   0.914  -0.232  62.071  0.4026  2.1151  1.0091
  174SAPI  H10Y19801   0.928  -0.285  62.245 -2.4633 -0.6313  1.3371
  174SAPI  C31119802   0.989  -0.078  62.186  0.3538 -0.5631  0.0955
  174SAPI  H11X19803   0.987  -0.053  62.295  1.2832  1.7041 -0.3428
  174SAPI  H11Y19804   0.926   0.001  62.138 -1.9960 -1.3488  1.6939
  174SAPI  C31219805   1.123  -0.080  62.125 -0.0034  0.7562 -0.3354
  174SAPI  H12X19806   1.179  -0.168  62.162  0.0789  2.1313  3.1083
  174SAPI  H12Y19807   1.169   0.019  62.145 -1.2649  1.5173 -1.0421
  174SAPI  C31319808   1.129  -0.101  61.975  0.4585  0.7677 -0.7272
  174SAPI  H13X19809   1.035  -0.080  61.920 -1.1376 -4.3118 -0.4268
  174SAPI  H13Y19810   1.132  -0.212  61.969  2.9160  0.7339  0.0179
  174SAPI  C31419811   1.261  -0.044  61.908  0.4367  1.0812  0.1669
  174SAPI  H14X19812   1.335  -0.055  61.990  0.4877 -4.3497 -0.2516
  174SAPI  H14Y19813   1.227   0.060  61.889 -0.4439  0.4199 -2.3229
  174SAPI  C31519814   1.314  -0.114  61.779 -0.5327  0.3816  0.1417
  174SAPI  H15X19815   1.303  -0.222  61.805 -1.3115  0.5782  0.6689
  174SAPI  H15Y19816   1.419  -0.079  61.785 -0.4884  1.2628 -3.5191
  174SAPI  C31619817   1.250  -0.066  61.649 -0.1714  0.4703  0.5650
  174SAPI  H16X19818   1.272   0.041  61.667  2.1380  0.2924 -0.8362
  174SAPI  H16Y19819   1.143  -0.091  61.663 -0.8004  0.4777 -3.2634
  174SAPI  C31719820   1.291  -0.116  61.508 -0.6622 -0.3586  0.5982
  174SAPI  H17X19821   1.266  -0.224  61.503 -0.8316 -0.2768 -1.0429
  174SAPI  H17Y19822   1.401  -0.111  61.498 -0.7760  0.3577 -0.6606
  174SAPI  C31819823   1.222  -0.046  61.385 -0.4639 -0.9521 -0.0021
  174SAPI  H18X19824   1.126  -0.004  61.424 -0.1769  0.2109 -0.5029
  174SAPI  H18Y19825   1.211  -0.107  61.293  2.4991  0.0738 -1.1446
  174SAPI  H18Z19826   1.298   0.033  61.365 -2.1158  1.0705  1.2368
  175SAPI   C1219827   1.354   0.204  51.913  0.0127  0.0047 -0.5359
  175SAPI    H219828   1.439   0.133  51.903 -0.3864 -0.7500  1.0954
  175SAPI    O219829   1.403   0.334  51.924  0.2085 -0.4211  0.6239
  175SAPI   HO219830   1.454   0.347  52.004  1.9854  2.1727 -0.7766
  175SAPI   C1319831   1.253   0.179  51.800  0.3924 -0.6219 -0.7352
  175SAPI    H319832   1.202   0.085  51.827  1.9851 -0.8722  1.6853
  175SAPI    O319833   1.319   0.175  51.669 -0.4752 -0.4409  0.4056
  175SAPI   HO319834   1.303   0.253  51.616  2.3838  0.2332  0.4021
  175SAPI   C1419835   1.139   0.279  51.807 -0.0376  0.3290  0.2103
  175SAPI    H419836   1.177   0.381  51.782 -4.4669  1.6693 -2.0091
  175SAPI    O419837   1.051   0.246  51.703  0.0887 -0.4511 -0.4169
  175SAPI   HO419838   1.053   0.328  51.653  2.9890 -0.9063 -1.2324
  175SAPI   C1519839   1.067   0.277  51.938  0.0388 -0.6614 -0.7459
  175SAPI    H519840   1.003   0.186  51.941 -2.2218  0.8150  3.1728
  175SAPI    O519841   0.968   0.379  51.958  0.0978  0.0626 -0.9387
  175SAPI   HO519842   1.010   0.441  52.018  0.0904  0.6993 -1.5717
  175SAPI   C1619843   1.153   0.236  52.070 -0.0660 -0.6320  0.1739
  175SAPI    H619844   1.175   0.334  52.116  0.6486 -0.6551 -0.1045
  175SAPI    O619845   1.066   0.170  52.166 -0.2863 -0.2570  0.2578
  175SAPI   HO619846   1.091   0.193  52.255 -0.0082  6.1627 -0.9988
  175SAPI   C1119847   1.289   0.169  52.049 -0.3105  1.0528 -0.4970
  175SAPI    H119848   1.271   0.059  52.045  0.5610  0.7856  1.7436
  175SAPI     P19849   1.518   0.118  52.185 -0.0577  0.2396 -0.3592
  175SAPI   O1319850   1.506  -0.028  52.155  0.6490 -0.2598  0.2230
  175SAPI   O1419851   1.572   0.161  52.314  0.3676  0.0824  0.0283
  175SAPI   O1219852   1.380   0.201  52.162  0.5810  0.3392 -0.2710
  175SAPI   O1119853   1.604   0.175  52.063 -0.2928  0.6659  0.5714
  175SAPI    C119854   1.741   0.167  52.043  0.3887  0.4572 -0.2502
  175SAPI    HA19855   1.788   0.254  52.093 -2.6519  1.8930  0.3430
  175SAPI    HB19856   1.791   0.077  52.086 -0.0639  0.0980 -0.4637
  175SAPI    C219857   1.775   0.152  51.890  0.6019  0.1611 -0.6534
  175SAPI    HS19858   1.690   0.200  51.837 -0.2050 -0.5739 -0.0745
  175SAPI   O2119859   1.784   0.015  51.859 -0.0660  0.8104 -0.6685
  175SAPI   C2119860   1.766  -0.011  51.729 -0.2017 -0.7989  0.1461
  175SAPI   O2219861   1.757   0.076  51.644 -0.0500 -0.3578  0.5116
  175SAPI   C2219862   1.762  -0.158  51.702 -0.0007  0.5122  0.5102
  175SAPI   H2R19863   1.864  -0.199  51.685 -0.5261 -1.2588  1.3661
  175SAPI   H2S19864   1.735  -0.212  51.796  2.6143  1.4940  1.9119
  175SAPI    C319865   1.902   0.224  51.845 -0.1383  0.2464  0.5673
  175SAPI    HX19866   1.931   0.208  51.739  0.3130  2.2240  0.3590
  175SAPI    HY19867   1.976   0.180  51.915 -1.6361 -0.4518  1.7687
  175SAPI   O3119868   1.887   0.365  51.857 -0.1032 -0.1280 -0.3960
  175SAPI   C3119869   1.825   0.428  51.751 -0.3665 -0.0985  0.3544
  175SAPI   O3219870   1.769   0.376  51.655 -0.1173 -0.1968 -0.1996
  175SAPI   C3219871   1.818   0.572  51.796 -0.2291  0.4987 -0.1768
  175SAPI   H2X19872   1.911   0.607  51.846 -0.8238  1.4934  0.2624
  175SAPI   H2Y19873   1.747   0.568  51.881  0.9728  0.4634  0.8627
  175SAPI   C2319874   1.673  -0.199  51.582  0.5449  0.2885 -0.7221
  175SAPI   H3R19875   1.719  -0.152  51.493  0.2957 -2.0974 -2.1705
  175SAPI   H3S19876   1.566  -0.169  51.592  0.6207 -0.0503  1.9226
  175SAPI   C2419877   1.689  -0.353  51.550  0.3067 -0.7250  0.3872
  175SAPI   H4R19878   1.795  -0.385  51.558  1.4985  2.7246  0.1807
  175SAPI   H4S19879   1.646  -0.384  51.453 -0.4746 -1.2782  0.8998
  175SAPI   C2519880   1.621  -0.427  51.663 -0.4735  0.2277 -0.1802
  175SAPI   H5R19881   1.614  -0.364  51.752  2.3635  2.7617 -1.5806
  175SAPI   C2619882   1.551  -0.538  51.656  0.0791  0.9322 -1.3001
  175SAPI   H6R19883   1.504  -0.570  51.750 -1.4525 -0.4498 -2.4910
  175SAPI   C2719884   1.529  -0.613  51.531  0.1057 -0.5089 -0.3743
  175SAPI   H7R19885   1.516  -0.722  51.550 -1.8760 -0.3537 -0.6450
  175SAPI   H7S19886   1.622  -0.600  51.473  2.1110 -0.7574  2.5697
  175SAPI   C2819887   1.412  -0.560  51.458  0.5182  0.2601  0.3913
  175SAPI   H8R19888   1.338  -0.505  51.519 -0.4615  1.9266 -2.1360
  175SAPI   C2919889   1.401  -0.544  51.322  0.2126 -0.0436  0.0993
  175SAPI   H9R19890   1.307  -0.510  51.274  0.4182 -1.3456 -1.2908
  175SAPI  C21019891   1.503  -0.580  51.218 -0.6773 -0.4398 -0.6338
  175SAPI  H10R19892   1.594  -0.629  51.258 -1.1480 -1.2779 -0.5529
  175SAPI  H10S19893   1.542  -0.494  51.161  1.1944 -1.4884 -1.0228
  175SAPI  C21119894   1.428  -0.680  51.121 -0.1240 -0.5214 -0.7159
  175SAPI  H11R19895   1.425  -0.787  51.145 -1.1367 -0.5239 -0.8022
  175SAPI  C21219896   1.379  -0.636  50.998 -0.1963  0.4250  0.0177
  175SAPI  H12R19897   1.324  -0.702  50.931  1.3969 -0.3823 -0.5431
  175SAPI  C21319898   1.374  -0.507  50.933  0.1479  0.1627  0.5138
  175SAPI  H13R19899   1.349  -0.430  51.009  1.9915 -0.6950  2.0812
  175SAPI  H13S19900   1.282  -0.503  50.870 -1.2417  0.8152  2.4937
  175SAPI  C21419901   1.492  -0.470  50.847 -0.7046  0.1586 -0.0870
  175SAPI  H14R19902   1.591  -0.474  50.894 -1.8558 -2.2062  2.4514
  175SAPI  C21519903   1.497  -0.430  50.719  0.4402  0.1047 -0.0910
  175SAPI  H15R19904   1.596  -0.412  50.676  0.1055 -0.0344 -0.9406
  175SAPI  C21619905   1.376  -0.407  50.626 -0.1765 -0.1215 -0.5794
  175SAPI  H16R19906   1.280  -0.416  50.681 -1.0549 -2.4951 -2.3569
  175SAPI  H16S19907   1.352  -0.478  50.545 -2.3215  1.9570 -1.8651
  175SAPI  C21719908   1.384  -0.268  50.563  0.3877 -0.9129 -0.5157
  175SAPI  H17R19909   1.485  -0.261  50.517 -0.2787 -2.5456 -2.3807
  175SAPI  H17S19910   1.372  -0.192  50.642  0.7762 -1.1348 -0.2438
  175SAPI  C21819911   1.283  -0.235  50.450 -0.6121 -0.5068 -0.4269
  175SAPI  H18R19912   1.182  -0.269  50.485 -0.1461 -0.8769  0.6144
  175SAPI  H18S19913   1.318  -0.302  50.369 -0.1676 -1.4478  0.5175
  175SAPI  C21919914   1.296  -0.096  50.386 -0.1167 -0.1664  0.6397
  175SAPI  H19R19915   1.305  -0.027  50.473 -2.1594  2.3564 -0.9910
  175SAPI  H19S19916   1.200  -0.074  50.336  1.2775  4.3888 -0.5415
  175SAPI  C22019917   1.414  -0.076  50.285  0.3623  0.3100 -0.2206
  175SAPI  H20R19918   1.407  -0.152  50.205 -0.7090  0.1596 -0.0038
  175SAPI  H20S19919   1.503  -0.093  50.348  0.4192  2.2074  0.2984
  175SAPI  H20T19920   1.402   0.030  50.253 -1.2705  0.6854  1.4244
  175SAPI   C3319921   1.747   0.679  51.706 -0.3948 -0.2120  0.2414
  175SAPI   H3X19922   1.665   0.733  51.759 -3.6217 -0.2210 -4.1347
  175SAPI   H3Y19923   1.692   0.616  51.633  1.9540 -0.7018 -1.1775
  175SAPI   C3419924   1.833   0.770  51.620  0.6153 -0.8259  0.8519
  175SAPI   H4X19925   1.839   0.727  51.517  1.5595  1.7961 -0.2724
  175SAPI   H4Y19926   1.931   0.766  51.673  0.2612  3.0887  2.1083
  175SAPI   C3519927   1.791   0.921  51.632 -0.6333  0.3129 -0.3705
  175SAPI   H5X19928   1.786   0.933  51.742  2.9262 -0.3346 -0.0167
  175SAPI   H5Y19929   1.693   0.935  51.581 -1.4887 -0.7001  0.9449
  175SAPI   C3619930   1.897   1.020  51.568  0.6551  1.0265  0.4949
  175SAPI   H6X19931   1.864   1.123  51.595 -2.4466  0.0364  0.9300
  175SAPI   H6Y19932   1.876   1.003  51.460 -3.0809 -2.6670  1.4973
  175SAPI   C3719933   2.042   0.993  51.612 -0.3968  0.0187 -0.0740
  175SAPI   H7X19934   2.093   0.922  51.544 -1.0108 -0.5554  0.0480
  175SAPI   H7Y19935   2.046   0.952  51.715 -0.3318  0.2285  0.0089
  175SAPI   C3819936   2.122   1.124  51.606 -0.3239  0.6736  0.7559
  175SAPI   H8X19937   2.204   1.146  51.678 -0.3337  2.4623  0.2775
  175SAPI   H8Y19938   2.051   1.209  51.618 -0.7183  0.6521 -1.1941
  175SAPI   C3919939   2.206   1.144  51.480  0.0357  0.4308 -0.0226
  175SAPI   H9X19940   2.280   1.064  51.457  1.2126  1.5543 -0.2417
  175SAPI   H9Y19941   2.278   1.228  51.486  2.2354 -1.1761 -2.1688
  175SAPI  C31019942   2.122   1.159  51.349 -0.9025 -0.6997  0.3868
  175SAPI  H10X19943   2.058   1.249  51.354 -2.5642 -1.7078 -1.3519
  175SAPI  H10Y19944   2.045   1.080  51.338  0.0658 -1.3269 -6.2038
  175SAPI  C31119945   2.206   1.145  51.225  0.6582  0.5770  0.2818
  175SAPI  H11X19946   2.315   1.152  51.247  0.8561 -1.5822  0.1608
  175SAPI  H11Y19947   2.199   1.234  51.159  2.9615  0.1312 -0.6295
  175SAPI  C31219948   2.167   1.037  51.133 -0.5094  0.2398  0.3937
  175SAPI  H12X19949   2.217   1.056  51.036 -3.2886  2.2935 -0.7742
  175SAPI  H12Y19950   2.060   1.040  51.104 -0.5144 -0.2148  0.3531
  175SAPI  C31319951   2.222   0.912  51.189 -0.0405  0.0428  0.0604
  175SAPI  H13X19952   2.150   0.888  51.270 -0.0597  2.3214  0.7909
  175SAPI  H13Y19953   2.318   0.934  51.240  1.6029 -3.2857 -1.2884
  175SAPI  C31419954   2.226   0.794  51.092 -0.0076 -0.2662  0.7861
  175SAPI  H14X19955   2.138   0.794  51.025  0.2788 -3.3165  0.2508
  175SAPI  H14Y19956   2.222   0.709  51.163  0.4750 -0.1401  0.9655
  175SAPI  C31519957   2.368   0.789  51.028  0.9696  0.1271  0.0980
  175SAPI  H15X19958   2.432   0.801  51.117  0.7631  2.9939 -0.0670
  175SAPI  H15Y19959   2.384   0.874  50.959 -1.2370  0.4216 -0.1524
  175SAPI  C31619960   2.392   0.661  50.951 -0.2357 -0.2279  0.0696
  175SAPI  H16X19961   2.315   0.638  50.874  0.1925 -1.5131 -0.0016
  175SAPI  H16Y19962   2.383   0.570  51.015  0.9139  0.9571  2.0022
  175SAPI  C31719963   2.531   0.655  50.885 -0.1223 -0.7402  0.0945
  175SAPI  H17X19964   2.532   0.722  50.796  1.4466 -1.4246 -0.4476
  175SAPI  H17Y19965   2.531   0.545  50.866 -2.0566 -1.7738  4.7904
  175SAPI  C31819966   2.650   0.694  50.981  0.2627 -0.2704 -0.2691
  175SAPI  H18X19967   2.750   0.668  50.942  0.2561  0.7299 -1.0072
  175SAPI  H18Y19968   2.639   0.643  51.079 -0.4569 -0.5021 -0.4626
  175SAPI  H18Z19969   2.657   0.805  50.988  2.8930 -0.4241  0.1891
  176SAPI   C1219970   0.854   0.618  51.670  0.2806 -0.3708 -0.1588
  176SAPI    H219971   0.907   0.675  51.749  1.2929 -3.3864  1.4832
  176SAPI    O219972   0.804   0.498  51.730  0.0769  0.4125  0.1197
  176SAPI   HO219973   0.863   0.451  51.790 -1.6256 -1.0322  0.7445
  176SAPI   C1319974   0.731   0.702  51.626  0.1542 -0.5450 -0.8687
  176SAPI    H319975   0.774   0.783  51.563 -0.0304  0.6671  0.5030
  176SAPI    O319976   0.667   0.761  51.735 -0.3850  0.4967 -1.0612
  176SAPI   HO319977   0.723   0.813  51.793  0.2051 -0.0987 -1.0806
  176SAPI   C1419978   0.637   0.627  51.543  1.4508  0.3331  0.1352
  176SAPI    H419979   0.614   0.526  51.584 -0.1737  0.8297  0.5232
  176SAPI    O419980   0.498   0.680  51.518 -0.5970 -0.2380 -0.4163
  176SAPI   HO419981   0.443   0.611  51.480 -0.7734 -0.8611  0.9177
  176SAPI   C1519982   0.704   0.608  51.413 -0.1360 -0.4671  0.0865
  176SAPI    H519983   0.695   0.705  51.360 -0.1204 -0.0179  0.8866
  176SAPI    O519984   0.635   0.519  51.330  0.0510  0.4720  0.1957
  176SAPI   HO519985   0.698   0.472  51.275  1.8051  0.2775  2.2158
  176SAPI   C1619986   0.852   0.575  51.412 -0.4502 -0.0621 -0.1539
  176SAPI    H619987   0.869   0.467  51.393  0.2728 -0.1068  0.7104
  176SAPI    O619988   0.922   0.638  51.302  0.6951  0.8749  0.3311
  176SAPI   HO619989   1.005   0.590  51.297 -0.3713 -0.9457 -0.7735
  176SAPI   C1119990   0.935   0.597  51.547  0.3330 -0.3261  0.9035
  176SAPI    H119991   0.988   0.693  51.526  0.1206 -0.3361  0.3057
  176SAPI     P19992   1.188   0.515  51.484 -0.3900  0.3383 -0.0301
  176SAPI   O1319993   1.270   0.401  51.533 -0.3628  0.1842 -0.3474
  176SAPI   O1419994   1.239   0.656  51.511 -0.2658  0.4409 -0.3358
  176SAPI   O1219995   1.037   0.503  51.555 -0.3380 -0.4604 -0.2997
  176SAPI   O1119996   1.153   0.497  51.336 -0.5196  0.3578  0.1266
  176SAPI    C119997   1.138   0.377  51.265 -0.0872  0.6911  0.3493
  176SAPI    HA19998   1.219   0.304  51.284 -1.0630 -1.0890 -1.8127
  176SAPI    HB19999   1.046   0.324  51.299 -0.9541  0.5695 -2.0312
  176SAPI    C220000   1.154   0.409  51.114 -0.4642  0.3898  0.3050
  176SAPI    HS20001   1.241   0.478  51.107  0.2618 -0.1190  3.1161
  176SAPI   O2120002   1.032   0.471  51.065  0.5403 -0.1336  0.4133
  176SAPI   C2120003   1.046   0.559  50.976  1.0079 -0.3026 -0.3132
  176SAPI   O2220004   1.146   0.624  50.954  0.0208  0.6110 -0.3923
  176SAPI   C2220005   0.920   0.569  50.894  0.3528 -1.1211 -0.4546
  176SAPI   H2R20006   0.874   0.469  50.882 -1.7953 -0.4395  1.4068
  176SAPI   H2S20007   0.848   0.629  50.955  0.7765 -2.4716  1.4473
  176SAPI    C320008   1.182   0.277  51.025  0.3973 -0.2916 -0.2646
  176SAPI    HX20009   1.084   0.225  51.011  0.1617  0.6184 -2.3767
  176SAPI    HY20010   1.241   0.197  51.075 -2.5799 -0.8014  2.8640
  176SAPI   O3120011   1.233   0.302  50.894  0.0061 -0.8642  0.0573
  176SAPI   C3120012   1.367   0.279  50.879  0.0191  0.6337  0.6620
  176SAPI   O3220013   1.427   0.197  50.946 -0.4885  0.0001  0.7296
  176SAPI   C3220014   1.427   0.367  50.775 -0.8913  0.3865 -0.2371
  176SAPI   H2X20015   1.532   0.339  50.751 -0.2334  2.2274  0.3824
  176SAPI   H2Y20016   1.418   0.465  50.827 -2.3741 -0.2310  0.7332
  176SAPI   C2320017   0.933   0.647  50.763 -0.1402  0.9461  0.8428
  176SAPI   H3R20018   0.999   0.608  50.683 -2.1490  1.0839 -0.9834
  176SAPI   H3S20019   0.971   0.747  50.793  4.3060 -1.3937  4.1321
  176SAPI   C2420020   0.800   0.653  50.688 -0.9358 -1.2910 -0.1620
  176SAPI   H4R20021   0.713   0.663  50.755 -1.2018 -0.2818 -0.6400
  176SAPI   H4S20022   0.798   0.553  50.639  0.0516 -1.2658 -0.2817
  176SAPI   C2520023   0.806   0.760  50.583 -0.1127 -0.8701  0.2153
  176SAPI   H5R20024   0.832   0.859  50.624  0.7681  0.0959 -2.4902
  176SAPI   C2620025   0.814   0.751  50.452  0.2777  0.2925 -0.2754
  176SAPI   H6R20026   0.825   0.841  50.390  2.4691  0.3654  0.1532
  176SAPI   C2720027   0.798   0.629  50.373 -0.7794  0.0318  1.5141
  176SAPI   H7R20028   0.712   0.646  50.306  1.7565  0.5027 -1.8541
  176SAPI   H7S20029   0.768   0.542  50.437  1.6054 -1.7930  0.3369
  176SAPI   C2820030   0.922   0.602  50.290  0.3222  0.4242  0.3583
  176SAPI   H8R20031   0.998   0.538  50.337 -0.8154 -0.4166  1.1161
  176SAPI   C2920032   0.962   0.638  50.166  0.1031  0.5334  0.6995
  176SAPI   H9R20033   1.059   0.601  50.131 -1.3035 -2.0775 -0.6672
  176SAPI  C21020034   0.885   0.734  50.075 -0.0880  0.0105 -0.3879
  176SAPI  H10R20035   0.919   0.836  50.101 -0.6420  0.0476  0.2054
  176SAPI  H10S20036   0.779   0.723  50.106  0.4918  1.0231  2.1262
  176SAPI  C21120037   0.899   0.714  49.925  0.8551 -0.5867  1.0841
  176SAPI  H11R20038   0.987   0.756  49.874  2.1769 -0.6089  3.1891
  176SAPI  C21220039   0.820   0.657  49.837  0.3228  0.3394 -0.1180
  176SAPI  H12R20040   0.858   0.662  49.735  1.0551  0.0942  0.1389
  176SAPI  C21320041   0.706   0.561  49.867 -0.4976  0.2460 -0.3571
  176SAPI  H13R20042   0.614   0.624  49.866 -0.1294  0.7915 -0.4112
  176SAPI  H13S20043   0.720   0.505  49.962  1.8020  0.0260 -0.7627
  176SAPI  C21420044   0.686   0.447  49.767  0.6750 -0.2976 -0.0385
  176SAPI  H14R20045   0.726   0.347  49.793 -0.3652 -0.6962  0.0547
  176SAPI  C21520046   0.629   0.461  49.646  0.1274 -0.2165 -0.1257
  176SAPI  H15R20047   0.623   0.373  49.581 -1.3319 -1.7503  1.9656
  176SAPI  C21620048   0.579   0.593  49.589 -0.7350  0.6624  0.1247
  176SAPI  H16R20049   0.584   0.674  49.665  2.4352  0.2860  0.4232
  176SAPI  H16S20050   0.475   0.578  49.551  0.0826 -0.7449 -1.7002
  176SAPI  C21720051   0.676   0.652  49.481 -0.1012  0.6139 -0.4178
  176SAPI  H17R20052   0.785   0.649  49.502  0.1341  3.2550 -0.9227
  176SAPI  H17S20053   0.652   0.755  49.447  0.4546  2.3075  3.7287
  176SAPI  C21820054   0.650   0.573  49.352 -1.1051 -0.0419  1.6028
  176SAPI  H18R20055   0.622   0.471  49.387 -1.3833 -1.0205 -1.2204
  176SAPI  H18S20056   0.746   0.579  49.297 -2.7633 -3.0731 -2.0615
  176SAPI  C21920057   0.523   0.621  49.280  0.4424  0.3246  0.2470
  176SAPI  H19R20058   0.541   0.716  49.226 -2.4427  0.5032 -0.5459
  176SAPI  H19S20059   0.446   0.629  49.359  1.0603 -0.1251  0.9139
  176SAPI  C22020060   0.487   0.522  49.169 -0.2393 -0.5455  0.1967
  176SAPI  H20R20061   0.485   0.417  49.205  0.1007 -1.4492 -2.2091
  176SAPI  H20S20062   0.577   0.517  49.104 -0.5363  0.9430 -0.3693
  176SAPI  H20T20063   0.407   0.561  49.102  0.4497 -0.3288 -0.5250
  176SAPI   C3320064   1.348   0.368  50.645 -0.1050 -0.2771  0.1138
  176SAPI   H3X20065   1.238   0.374  50.662 -0.4649 -2.7144 -1.0137
  176SAPI   H3Y20066   1.371   0.275  50.589  0.0374 -1.1396  1.5430
  176SAPI   C3420067   1.367   0.495  50.553  0.5262 -0.6622  0.1677
  176SAPI   H4X20068   1.468   0.534  50.577 -0.5537  0.9991  2.4498
  176SAPI   H4Y20069   1.304   0.578  50.595  0.6784 -0.4170 -0.0863
  176SAPI   C3520070   1.321   0.478  50.406 -0.8508 -0.9892 -1.1131
  176SAPI   H5X20071   1.210   0.473  50.407 -0.8171 -1.9871 -1.3993
  176SAPI   H5Y20072   1.369   0.385  50.368  0.7016 -2.3540  3.4975
  176SAPI   C3620073   1.373   0.572  50.307  0.0811 -0.0933 -0.0521
  176SAPI   H6X20074   1.349   0.679  50.322 -1.3637 -0.2391 -1.0763
  176SAPI   H6Y20075   1.328   0.546  50.208 -1.2667 -0.3231  0.5952
  176SAPI   C3720076   1.527   0.583  50.308 -0.3674 -0.4021  0.6258
  176SAPI   H7X20077   1.568   0.482  50.328  1.4369  0.4654  1.5396
  176SAPI   H7Y20078   1.565   0.651  50.387  0.3589 -0.2937  0.1906
  176SAPI   C3820079   1.597   0.610  50.175  0.0425  1.1889  0.0668
  176SAPI   H8X20080   1.566   0.528  50.107 -1.4200  0.6390  1.3388
  176SAPI   H8Y20081   1.707   0.612  50.190  0.2963  3.2781 -1.6363
  176SAPI   C3920082   1.554   0.735  50.095  0.3080 -0.3167 -0.3487
  176SAPI   H9X20083   1.581   0.819  50.163  2.3700 -2.0902  1.1987
  176SAPI   H9Y20084   1.443   0.734  50.086  0.1040  0.8992  1.4655
  176SAPI  C31020085   1.625   0.733  49.965  0.0080  0.6916 -0.9726
  176SAPI  H10X20086   1.587   0.654  49.898  2.0751 -0.7724 -0.5212
  176SAPI  H10Y20087   1.735   0.720  49.974  0.4159  4.0342  0.2111
  176SAPI  C31120088   1.612   0.859  49.888 -0.0795  1.0469 -0.4738
  176SAPI  H11X20089   1.655   0.939  49.952  1.7236 -0.8555  0.8374
  176SAPI  H11Y20090   1.502   0.870  49.894 -0.4532 -1.8116 -0.5127
  176SAPI  C31220091   1.676   0.851  49.753  0.4378  0.2891  0.1797
  176SAPI  H12X20092   1.651   0.758  49.697  0.5434  0.1890  0.2985
  176SAPI  H12Y20093   1.787   0.842  49.762  0.4239 -1.0594 -0.6530
  176SAPI  C31320094   1.642   0.983  49.664 -0.2422  0.5213 -1.0793
  176SAPI  H13X20095   1.705   0.982  49.573 -1.3620  1.0980 -1.8874
  176SAPI  H13Y20096   1.658   1.067  49.734 -2.5849  1.2964 -1.3859
  176SAPI  C31420097   1.487   0.998  49.643 -0.5522  1.4673  0.3559
  176SAPI  H14X20098   1.468   1.087  49.581  0.0246  1.3292 -0.0212
  176SAPI  H14Y20099   1.439   1.020  49.741 -0.8187  1.4182  0.2382
  176SAPI  C31520100   1.422   0.888  49.566 -0.1122  0.1096 -0.3005
  176SAPI  H15X20101   1.403   0.796  49.625 -0.7894  0.7906  0.5732
  176SAPI  H15Y20102   1.487   0.871  49.478  0.2236  4.6154 -1.1308
  176SAPI  C31620103   1.282   0.924  49.516  0.5043 -0.1078 -0.3767
  176SAPI  H16X20104   1.295   1.007  49.444 -0.3671 -1.2048 -1.8510
  176SAPI  H16Y20105   1.228   0.966  49.603  0.9489  0.7620 -0.5106
  176SAPI  C31720106   1.206   0.830  49.426  0.1984  0.3726 -0.1712
  176SAPI  H17X20107   1.254   0.815  49.327  0.7291 -3.2031  0.4673
  176SAPI  H17Y20108   1.102   0.869  49.422  0.1087  0.0532 -1.2983
  176SAPI  C31820109   1.188   0.695  49.502 -0.0474  0.1175  0.6021
  176SAPI  H18X20110   1.112   0.640  49.442 -1.8292  3.5111 -0.5470
  176SAPI  H18Y20111   1.152   0.707  49.606 -1.1541 -2.0195  0.5250
  176SAPI  H18Z20112   1.280   0.632  49.498  1.6860  2.5482 -2.1808
  177SLPC     N20113   0.465   0.677  58.997 -0.7426  0.4940 -0.1938
  177SLPC   C1320114   0.344   0.756  58.967 -0.1308 -0.2061  0.5522
  177SLPC  H13A20115   0.257   0.713  59.015  0.5064 -4.0808 -1.4028
  177SLPC  H13B20116   0.356   0.849  59.021 -1.7115 -1.2638  2.8562
  177SLPC  H13C20117   0.329   0.775  58.861 -0.0661  0.1230  0.5951
  177SLPC   C1420118   0.588   0.690  58.895  0.2092  0.2470 -0.0971
  177SLPC  H14A20119   0.623   0.792  58.898 -1.8898  1.0785 -1.6718
  177SLPC  H14B20120   0.666   0.629  58.939 -1.5399  0.5279  3.8361
  177SLPC  H14C20121   0.564   0.661  58.794 -0.9348 -2.5995  0.8892
  177SLPC   C1520122   0.438   0.528  58.990  0.7138  0.3429  0.7008
  177SLPC  H15A20123   0.399   0.512  58.891 -2.8628  2.4413  1.5805
  177SLPC  H15B20124   0.529   0.469  58.986 -0.7608 -1.9671 -0.9976
  177SLPC  H15C20125   0.361   0.495  59.058 -0.0363  2.4582  0.9423
  177SLPC   C1220126   0.515   0.711  59.141 -0.4708  1.6817  0.3699
  177SLPC  H12A20127   0.600   0.653  59.173 -0.1172  1.9805 -0.0135
  177SLPC  H12B20128   0.431   0.680  59.202 -1.2140  0.1306 -1.3252
  177SLPC   C1120129   0.557   0.853  59.166 -0.9682 -0.4029 -0.7149
  177SLPC  H11A20130   0.475   0.928  59.177  1.4295  2.3078 -0.1080
  177SLPC  H11B20131   0.609   0.893  59.076  0.3572 -0.2020  0.1159
  177SLPC     P20132   0.613   0.859  59.424  0.4525 -0.4142  0.0648
  177SLPC   O1320133   0.501   0.764  59.434  0.1724 -0.3047  0.1013
  177SLPC   O1420134   0.730   0.837  59.507 -0.8846 -0.3045  0.3367
  177SLPC   O1220135   0.653   0.861  59.273 -0.1146 -0.0735 -0.7591
  177SLPC   O1120136   0.554   1.003  59.453 -0.0348 -0.2695  0.3031
  177SLPC    C120137   0.626   1.125  59.413 -0.4616  0.7963 -0.3087
  177SLPC    HA20138   0.729   1.118  59.372  0.1781  3.1667  0.7224
  177SLPC    HB20139   0.586   1.177  59.324  0.7687  1.3217 -0.5594
  177SLPC    C220140   0.630   1.233  59.524  0.2841 -0.0622 -0.2810
  177SLPC    HS20141   0.702   1.310  59.488  2.0872 -0.2618  2.5867
  177SLPC   O2120142   0.673   1.191  59.656 -0.1897  0.3596 -0.4271
  177SLPC   C2120143   0.810   1.171  59.664 -0.1493  0.5498 -0.1870
  177SLPC   O2220144   0.882   1.174  59.565 -0.6090 -0.6012 -0.9236
  177SLPC   C2220145   0.840   1.178  59.815  0.4888 -0.6570 -0.1304
  177SLPC   H2R20146   0.785   1.272  59.840 -1.5231 -2.2024  1.6648
  177SLPC   H2S20147   0.788   1.100  59.875 -0.0430  0.7935  1.3855
  177SLPC    C320148   0.502   1.300  59.533  0.6800  0.1123  0.8899
  177SLPC    HX20149   0.424   1.223  59.514  0.2070  0.8598 -0.3698
  177SLPC    HY20150   0.509   1.368  59.445  3.9511 -1.0887  0.0700
  177SLPC   O3120151   0.464   1.359  59.650  0.5057  0.9797 -0.0772
  177SLPC   C3120152   0.530   1.457  59.701  0.5319  0.3944 -0.3862
  177SLPC   O3220153   0.632   1.505  59.659 -0.3408 -0.2790 -0.6113
  177SLPC   C3220154   0.478   1.506  59.838  0.0725 -0.4664 -0.4261
  177SLPC   H2X20155   0.572   1.511  59.897  0.3452  1.0528 -0.9586
  177SLPC   H2Y20156   0.413   1.424  59.876 -0.7301  0.3966  0.1036
  177SLPC   C2320157   0.985   1.189  59.849  0.1669 -0.0434 -0.0098
  177SLPC   H3R20158   1.030   1.285  59.816 -0.0674  0.5751  1.3827
  177SLPC   H3S20159   1.057   1.114  59.812  1.5836  2.7070 -3.3954
  177SLPC   C2420160   1.000   1.180  60.005 -0.5238 -0.2514  0.5143
  177SLPC   H4R20161   0.963   1.085  60.048 -0.0029 -0.3369  0.7834
  177SLPC   H4S20162   0.969   1.273  60.057  1.4329  0.9281 -0.2849
  177SLPC   C2520163   1.138   1.181  60.057 -0.2311  0.6255  0.0623
  177SLPC   H5R20164   1.203   1.234  59.985 -2.3223  2.1310 -0.8108
  177SLPC   H5S20165   1.177   1.078  60.073 -2.6478 -0.9701 -3.0307
  177SLPC   C2620166   1.157   1.272  60.182  0.6308  0.4163 -0.0158
  177SLPC   H6R20167   1.089   1.220  60.253  0.5855 -0.1623 -0.4681
  177SLPC   H6S20168   1.122   1.373  60.154 -1.9632 -0.7660 -1.3700
  177SLPC   C2720169   1.299   1.293  60.223  0.4654 -0.3509  1.1011
  177SLPC   H7R20170   1.289   1.363  60.309 -0.0682  3.4625 -1.7718
  177SLPC   H7S20171   1.363   1.333  60.141 -0.3725  0.1098  0.6442
  177SLPC   C2820172   1.359   1.165  60.285  0.1490  0.9514  0.3581
  177SLPC   H8R20173   1.404   1.115  60.197 -0.5326 -1.9657  1.5595
  177SLPC   H8S20174   1.284   1.103  60.339  3.1605 -2.9120  0.5462
  177SLPC   C2920175   1.474   1.195  60.378 -0.9664 -0.3292 -0.1801
  177SLPC   H9R20176   1.454   1.268  60.458  1.7588 -3.2810  3.5997
  177SLPC  C21020177   1.608   1.163  60.370  0.4721 -0.1079  0.8099
  177SLPC  H10R20178   1.664   1.176  60.464  0.8158  0.7396  0.4969
  177SLPC  C21120179   1.670   1.065  60.266  0.5858 -0.2580  0.4733
  177SLPC  H11R20180   1.612   1.056  60.172 -2.5044  2.4998  1.9033
  177SLPC  H11S20181   1.766   1.117  60.247  0.3814  0.6345  1.7814
  177SLPC  C21220182   1.699   0.930  60.331 -0.9612  0.3512  0.9737
  177SLPC  H12R20183   1.703   0.933  60.441  0.8226  1.1652  0.9265
  177SLPC  C21320184   1.730   0.821  60.265  0.6605 -0.4673 -0.2701
  177SLPC  H13R20185   1.750   0.733  60.327  1.5770  1.6580  2.6832
  177SLPC  C21420186   1.729   0.805  60.120  0.5250  0.3870  1.2168
  177SLPC  H14R20187   1.835   0.808  60.087  0.7190  2.3936  1.8705
  177SLPC  H14S20188   1.685   0.896  60.072  1.1208  0.7503  1.3439
  177SLPC  C21520189   1.668   0.675  60.071  0.5434 -0.8299  0.3062
  177SLPC  H15R20190   1.723   0.580  60.087 -0.3696 -1.0279  2.8252
  177SLPC  H15S20191   1.685   0.669  59.961 -2.2209 -1.8446 -0.1625
  177SLPC  C21620192   1.521   0.656  60.086  0.3106 -0.0041 -0.6815
  177SLPC  H16R20193   1.473   0.736  60.026 -1.0388 -0.8318 -0.7438
  177SLPC  H16S20194   1.483   0.674  60.189 -0.4833  1.5705 -1.2129
  177SLPC  C21720195   1.470   0.519  60.033 -0.4770 -0.3029  0.4874
  177SLPC  H17R20196   1.490   0.522  59.924  0.8890 -0.5189  0.7186
  177SLPC  H17S20197   1.359   0.518  60.036 -0.6634 -2.7970 -2.6885
  177SLPC  C21820198   1.541   0.401  60.091  1.4351  1.0639  0.2847
  177SLPC  H18R20199   1.640   0.378  60.047  0.9969  0.9066 -0.6520
  177SLPC  H18S20200   1.470   0.317  60.076  1.9911  1.0682 -3.4250
  177SLPC  H18T20201   1.559   0.408  60.200  0.3616 -3.6505  0.9821
  177SLPC   C3320202   0.385   1.630  59.826 -0.3077  0.9018  0.5169
  177SLPC   H3X20203   0.299   1.599  59.763  0.9091 -0.5440 -0.5022
  177SLPC   H3Y20204   0.433   1.717  59.776 -1.3365  2.9651  2.8940
  177SLPC   C3420205   0.329   1.652  59.966  0.4144 -0.3817 -0.1924
  177SLPC   H4X20206   0.295   1.551  59.999 -2.2274 -0.0511 -1.5993
  177SLPC   H4Y20207   0.242   1.720  59.955  2.1098  1.8886 -0.0707
  177SLPC   C3520208   0.427   1.712  60.067 -0.0749  0.8704 -0.1896
  177SLPC   H5X20209   0.423   1.819  60.037 -1.2389  0.3385 -2.1350
  177SLPC   H5Y20210   0.530   1.676  60.048 -0.6268 -1.0007  0.1197
  177SLPC   C3620211   0.377   1.687  60.212 -0.4430  0.5822 -0.1017
  177SLPC   H6X20212   0.429   1.599  60.256 -2.7121 -0.3411  0.8310
  177SLPC   H6Y20213   0.270   1.662  60.203 -0.0152 -2.3902  1.7405
  177SLPC   C3720214   0.399   1.821  60.298  0.3690 -0.2997  0.3069
  177SLPC   H7X20215   0.357   1.909  60.245  1.0945  0.1399  0.4485
  177SLPC   H7Y20216   0.510   1.814  60.300  0.7100  0.9576 -3.9875
  177SLPC   C3820217   0.326   1.817  60.438 -0.1410 -0.1882  0.7592
  177SLPC   H8X20218   0.388   1.751  60.504  3.3155  1.7796 -0.2376
  177SLPC   H8Y20219   0.228   1.764  60.435  0.0217 -1.1371  5.1130
  177SLPC   C3920220   0.325   1.955  60.502  0.1829 -0.2520  0.4578
  177SLPC   H9X20221   0.420   2.008  60.482  0.5192 -0.3925  1.6240
  177SLPC   H9Y20222   0.330   1.946  60.612 -0.3639 -1.1440  0.4250
  177SLPC  C31020223   0.199   2.031  60.454  0.3243  0.7672  0.2713
  177SLPC  H10X20224   0.100   1.981  60.444  1.2460 -0.7110 -3.4073
  177SLPC  H10Y20225   0.228   2.049  60.348 -1.8040 -2.5993 -1.0667
  177SLPC  C31120226   0.195   2.180  60.506  0.3978  0.0060  0.1026
  177SLPC  H11X20227   0.116   2.242  60.458 -3.0391 -1.6192  3.1774
  177SLPC  H11Y20228   0.298   2.220  60.488 -0.4173  1.1144 -2.6899
  177SLPC  C31220229   0.167   2.200  60.655 -0.1133 -0.3873 -0.0958
  177SLPC  H12X20230   0.268   2.206  60.702  0.2199  1.6901 -0.9648
  177SLPC  H12Y20231   0.101   2.122  60.699 -2.5074  0.5041 -1.8863
  177SLPC  C31320232   0.117   2.326  60.699 -0.1397 -0.7727 -0.1055
  177SLPC  H13X20233   0.019   2.344  60.650 -0.4602 -2.4077 -0.1371
  177SLPC  H13Y20234   0.171   2.416  60.663 -1.2096  0.7012  1.7922
  177SLPC  C31420235   0.103   2.328  60.853  0.0702 -0.5380  0.3638
  177SLPC  H14X20236   0.082   2.226  60.890 -2.5521 -0.0339  0.4186
  177SLPC  H14Y20237   0.011   2.385  60.878  0.3741  1.3996 -2.4937
  177SLPC  C31520238   0.224   2.402  60.924 -0.1148 -0.3790  0.0330
  177SLPC  H15X20239   0.319   2.356  60.889  0.9471 -0.7124  3.0554
  177SLPC  H15Y20240   0.225   2.384  61.034 -0.0648 -0.9143 -0.0500
  177SLPC  C31620241   0.215   2.560  60.922  0.6607  0.0348 -0.2820
  177SLPC  H16X20242   0.120   2.589  60.970  3.0069  2.6922  3.2749
  177SLPC  H16Y20243   0.206   2.602  60.819  0.9401  0.4214 -0.1482
  177SLPC  C31720244   0.333   2.622  60.997 -0.2620 -0.8345  0.7053
  177SLPC  H17X20245   0.344   2.590  61.103  0.9338 -0.3983  0.7224
  177SLPC  H17Y20246   0.305   2.729  60.996 -1.0765 -1.0149 -1.4990
  177SLPC  C31820247   0.476   2.601  60.939  0.7800 -0.4325  0.3814
  177SLPC  H18X20248   0.537   2.687  60.976 -0.6211 -0.3962  2.8236
  177SLPC  H18Y20249   0.456   2.615  60.830  0.0672  1.3843  0.7080
  177SLPC  H18Z20250   0.518   2.499  60.941  0.4729 -0.6526 -1.8924
  178SLPC     N20251   0.506   2.276  69.027 -0.0585 -0.1676  0.1876
  178SLPC   C1320252   0.493   2.319  68.888 -0.0447  1.0916  0.3602
  178SLPC  H13A20253   0.553   2.244  68.839 -1.9232 -1.8565  2.2385
  178SLPC  H13B20254   0.393   2.312  68.846  0.0804  0.2779  0.1816
  178SLPC  H13C20255   0.555   2.405  68.869  2.8846 -0.3481  2.7018
  178SLPC   C1420256   0.418   2.150  69.060  0.0197 -0.7602  0.3858
  178SLPC  H14A20257   0.456   2.056  69.022 -0.4038 -0.7795 -0.0031
  178SLPC  H14B20258   0.397   2.142  69.166 -0.4926 -1.7860  0.2239
  178SLPC  H14C20259   0.322   2.160  69.011  1.9659 -0.3839 -3.7726
  178SLPC   C1520260   0.474   2.393  69.110  0.7558 -0.5054 -0.0640
  178SLPC  H15A20261   0.548   2.471  69.112 -0.7308  1.0059  3.0380
  178SLPC  H15B20262   0.375   2.425  69.082  0.6019 -1.6717 -0.9144
  178SLPC  H15C20263   0.470   2.371  69.216 -1.5970 -1.1244 -0.2232
  178SLPC   C1220264   0.653   2.246  69.045 -0.4888 -0.2789 -0.0254
  178SLPC  H12A20265   0.668   2.199  69.141  3.3133 -1.0091 -0.8086
  178SLPC  H12B20266   0.713   2.335  69.057 -1.1501 -0.1552  3.4859
  178SLPC   C1120267   0.730   2.165  68.945 -0.0569 -0.3179 -0.3362
  178SLPC  H11A20268   0.830   2.146  68.991 -1.2068 -1.7245  1.7584
  178SLPC  H11B20269   0.741   2.214  68.846  1.6777  0.2599  0.0994
  178SLPC     P20270   0.699   1.963  68.788  0.1079 -0.1804  0.3932
  178SLPC   O1320271   0.611   1.844  68.781  0.1845 -0.4657  1.0226
  178SLPC   O1420272   0.686   2.060  68.676 -0.1130  0.7454 -0.4918
  178SLPC   O1220273   0.663   2.045  68.924 -0.6352 -0.3701 -0.0672
  178SLPC   O1120274   0.851   1.915  68.813 -0.7164  0.7269 -0.0861
  178SLPC    C120275   0.972   1.968  68.765  0.2262  0.0237  0.0872
  178SLPC    HA20276   0.955   2.078  68.766 -0.3034 -0.0549  0.4389
  178SLPC    HB20277   1.054   1.950  68.837 -0.5202  4.0769  2.2694
  178SLPC    C220278   1.016   1.924  68.621  0.3831 -0.1997  0.0008
  178SLPC    HS20279   0.929   1.925  68.552 -0.5227  0.1434  1.1228
  178SLPC   O2120280   1.067   1.793  68.636 -0.0711 -0.1552  0.1647
  178SLPC   C2120281   0.987   1.694  68.611 -0.0448 -0.3244 -0.3693
  178SLPC   O2220282   0.870   1.689  68.575  0.1507  1.0876  0.0492
  178SLPC   C2220283   1.075   1.570  68.625 -0.2706 -0.2516 -0.0654
  178SLPC   H2R20284   1.170   1.582  68.569  0.1311 -2.0140  0.1861
  178SLPC   H2S20285   1.106   1.554  68.730 -0.8021 -0.7275  0.0230
  178SLPC    C320286   1.114   2.033  68.566 -0.0191 -0.3670 -0.2841
  178SLPC    HX20287   1.056   2.128  68.569  1.5496  0.6186  0.2044
  178SLPC    HY20288   1.153   2.009  68.465  2.8600 -4.5683  1.5189
  178SLPC   O3120289   1.227   2.053  68.651 -0.0142 -0.0169 -0.1541
  178SLPC   C3120290   1.291   2.166  68.632 -0.4050 -0.5931  0.2271
  178SLPC   O3220291   1.290   2.235  68.525 -0.2192  0.1074 -0.3270
  178SLPC   C3220292   1.381   2.194  68.755  0.3400 -0.2803 -0.3628
  178SLPC   H2X20293   1.481   2.152  68.728  0.0596 -0.1758 -1.6489
  178SLPC   H2Y20294   1.340   2.138  68.842 -3.2062 -2.7804 -3.2994
  178SLPC   C2320295   1.012   1.443  68.566 -0.3466 -0.3289 -0.0880
  178SLPC   H3R20296   0.907   1.427  68.599 -0.7024  0.7511 -0.6140
  178SLPC   H3S20297   1.086   1.362  68.581 -2.0375 -2.0596 -0.6916
  178SLPC   C2420298   0.998   1.452  68.411  0.1497  0.3953  0.1329
  178SLPC   H4R20299   1.092   1.501  68.377  0.2469  1.9850  2.4459
  178SLPC   H4S20300   0.915   1.524  68.391  0.3690  0.4740 -0.4977
  178SLPC   C2520301   0.966   1.321  68.330 -0.7958 -0.6030  0.4083
  178SLPC   H5R20302   0.913   1.374  68.248 -1.8756  3.1501  3.2509
  178SLPC   H5S20303   0.886   1.260  68.377  0.3388 -1.4835  1.2538
  178SLPC   C2620304   1.078   1.239  68.259  0.6322  0.7130  0.4986
  178SLPC   H6R20305   1.134   1.187  68.339 -0.5592 -1.1692  0.1646
  178SLPC   H6S20306   1.130   1.321  68.205  0.0203  0.6875 -0.1513
  178SLPC   C2720307   1.032   1.127  68.158 -0.3055  0.2376 -0.6446
  178SLPC   H7R20308   0.968   1.164  68.076  1.1519  0.4018 -1.7614
  178SLPC   H7S20309   0.982   1.052  68.223  3.3020  0.8345  3.2916
  178SLPC   C2820310   1.144   1.061  68.080 -0.4678  0.6019  0.9265
  178SLPC   H8R20311   1.239   1.064  68.138  0.9178  0.3061 -1.2324
  178SLPC   H8S20312   1.163   1.124  67.991 -0.3837  2.7259  2.3640
  178SLPC   C2920313   1.097   0.931  68.030  0.4633  0.2818 -0.1937
  178SLPC   H9R20314   1.016   0.941  67.955 -3.0608 -0.5822  3.1471
  178SLPC  C21020315   1.130   0.812  68.080 -0.7328 -0.1152 -0.3179
  178SLPC  H10R20316   1.094   0.718  68.037 -0.1594 -1.0216  1.1187
  178SLPC  C21120317   1.216   0.783  68.202  0.3444 -0.4780  0.4987
  178SLPC  H11R20318   1.161   0.713  68.269 -1.3188  1.2756  1.0386
  178SLPC  H11S20319   1.222   0.869  68.272  1.6148 -0.3753  0.2860
  178SLPC  C21220320   1.353   0.732  68.182  0.4919 -0.6377 -0.3954
  178SLPC  H12R20321   1.422   0.815  68.203 -0.3420  0.2753 -1.2037
  178SLPC  C21320322   1.396   0.610  68.173 -0.1310  0.3023  0.4564
  178SLPC  H13R20323   1.505   0.596  68.172 -0.4185 -2.5353 -1.2489
  178SLPC  C21420324   1.316   0.482  68.181 -0.0964 -0.3463 -0.1268
  178SLPC  H14R20325   1.331   0.436  68.081  1.8449  2.6130 -1.3497
  178SLPC  H14S20326   1.206   0.480  68.194 -0.1008  3.0883  1.5764
  178SLPC  C21520327   1.377   0.387  68.292 -1.2775  0.1549  0.5290
  178SLPC  H15R20328   1.483   0.361  68.271 -0.2544  3.7690  0.5878
  178SLPC  H15S20329   1.315   0.295  68.290  0.4414 -1.0839  1.3888
  178SLPC  C21620330   1.366   0.453  68.435 -0.4183 -0.0592 -0.6769
  178SLPC  H16R20331   1.399   0.558  68.422  2.0487 -0.7061 -0.1877
  178SLPC  H16S20332   1.443   0.404  68.498  0.1169 -0.9274 -1.9495
  178SLPC  C21720333   1.235   0.457  68.515 -0.4640 -0.2094  0.4355
  178SLPC  H17R20334   1.159   0.501  68.447 -2.2261 -2.4262  0.8702
  178SLPC  H17S20335   1.246   0.516  68.608  1.8384  4.7424 -2.5407
  178SLPC  C21820336   1.189   0.311  68.549 -0.9515  0.2852 -0.2615
  178SLPC  H18R20337   1.183   0.247  68.459  1.1222  0.0837 -0.3140
  178SLPC  H18S20338   1.092   0.325  68.602  0.0170 -0.9504  1.9554
  178SLPC  H18T20339   1.261   0.271  68.624 -0.8210 -1.2295 -1.1631
  178SLPC   C3320340   1.389   2.351  68.777  0.5339  0.0592 -0.1949
  178SLPC   H3X20341   1.433   2.375  68.876  2.6245  0.1079 -1.0773
  178SLPC   H3Y20342   1.285   2.388  68.770  1.1142  1.9667  0.5710
  178SLPC   C3420343   1.476   2.433  68.682  0.1285 -0.2093  0.2765
  178SLPC   H4X20344   1.460   2.426  68.572 -0.2165  0.9125  0.2402
  178SLPC   H4Y20345   1.574   2.382  68.695 -0.5731 -2.0349 -1.0186
  178SLPC   C3520346   1.492   2.575  68.716 -0.5244  0.5876 -0.1611
  178SLPC   H5X20347   1.573   2.588  68.791  0.9991  2.2749 -2.0031
  178SLPC   H5Y20348   1.406   2.632  68.758  2.4728  3.1057  3.2030
  178SLPC   C3620349   1.534   2.665  68.597 -0.1684 -0.1998 -0.8722
  178SLPC   H6X20350   1.460   2.657  68.515 -3.2581 -1.7794  1.8341
  178SLPC   H6Y20351   1.636   2.629  68.573  0.6282  0.5477  1.1335
  178SLPC   C3720352   1.553   2.805  68.652 -0.2468 -0.1201  0.0282
  178SLPC   H7X20353   1.608   2.792  68.748  2.8124  0.4083 -1.5178
  178SLPC   H7Y20354   1.467   2.874  68.668  0.7117  1.6174 -1.8739
  178SLPC   C3820355   1.640   2.886  68.557 -0.4391  1.1965 -0.5223
  178SLPC   H8X20356   1.562   2.913  68.483 -1.2783 -0.4212 -0.2873
  178SLPC   H8Y20357   1.732   2.836  68.519  1.0292  1.5585  2.3239
  178SLPC   C3920358   1.700   3.018  68.618 -0.1754  0.4647  0.1307
  178SLPC   H9X20359   1.775   2.992  68.695  0.1076 -3.2928 -1.1906
  178SLPC   H9Y20360   1.617   3.088  68.643  0.5186  0.5984  2.3037
  178SLPC  C31020361   1.782   3.101  68.512  0.1239  0.5294 -0.0415
  178SLPC  H10X20362   1.719   3.093  68.420  0.3493 -1.4085 -0.0671
  178SLPC  H10Y20363   1.873   3.042  68.488  0.4354  0.7662  0.5576
  178SLPC  C31120364   1.800   3.242  68.567  0.1868  0.1119  0.6144
  178SLPC  H11X20365   1.892   3.284  68.521  0.5818 -2.4046 -1.0300
  178SLPC  H11Y20366   1.794   3.241  68.678 -0.6605 -3.9306  0.6627
  178SLPC  C31220367   1.691   3.337  68.512 -0.4009  0.2085 -0.4525
  178SLPC  H12X20368   1.590   3.306  68.548  0.2777 -1.2420  0.2996
  178SLPC  H12Y20369   1.711   3.340  68.403 -2.8979 -0.1952 -0.9934
  178SLPC  C31320370   1.702   3.470  68.587  0.7157  0.2698  0.2039
  178SLPC  H13X20371   1.803   3.511  68.562  0.6864 -0.6807 -1.6274
  178SLPC  H13Y20372   1.680   3.442  68.692  4.3569  0.9066  1.2866
  178SLPC  C31420373   1.588   3.573  68.541 -0.4543  0.4063 -0.7622
  178SLPC  H14X20374   1.574   3.647  68.623  0.8343 -1.8726  1.6654
  178SLPC  H14Y20375   1.485   3.536  68.552 -0.5851  0.6547 -1.1135
  178SLPC  C31520376   1.636   3.646  68.413 -0.7101 -0.2594  0.0267
  178SLPC  H15X20377   1.735   3.696  68.419 -1.5690  2.3430 -3.8764
  178SLPC  H15Y20378   1.652   3.571  68.333  1.1912  0.5414 -0.4115
  178SLPC  C31620379   1.541   3.758  68.355 -0.1207 -0.1504  0.4344
  178SLPC  H16X20380   1.552   3.829  68.440  1.4740 -0.0539  0.1603
  178SLPC  H16Y20381   1.435   3.727  68.340 -0.2514  0.0873  0.8370
  178SLPC  C31720382   1.592   3.837  68.229  0.0985  0.1537  0.2436
  178SLPC  H17X20383   1.703   3.844  68.231  0.0237  1.6017  0.4292
  178SLPC  H17Y20384   1.556   3.941  68.248 -0.2432  0.5132 -2.0375
  178SLPC  C31820385   1.531   3.789  68.097 -0.3953 -0.2053  0.5355
  178SLPC  H18X20386   1.430   3.744  68.094  0.6164 -2.6286 -0.5700
  178SLPC  H18Y20387   1.600   3.719  68.044 -0.6624 -0.1828  0.1556
  178SLPC  H18Z20388   1.526   3.882  68.036  2.1964 -0.5569 -0.3671
  179SLPC     N20389   2.512   1.161  68.912  0.0223 -0.4485  1.0352
  179SLPC   C1320390   2.481   1.310  68.890 -0.0974 -0.1603 -0.6103
  179SLPC  H13A20391   2.419   1.331  68.805  0.8542  1.0313 -1.0409
  179SLPC  H13B20392   2.450   1.355  68.983  3.0937 -0.2487  0.6400
  179SLPC  H13C20393   2.578   1.352  68.866 -0.9621  2.1155 -0.3662
  179SLPC   C1420394   2.582   1.117  68.785  0.1549 -0.0523  0.3439
  179SLPC  H14A20395   2.518   1.113  68.699 -0.1199 -2.9406  0.5955
  179SLPC  H14B20396   2.663   1.184  68.761  0.2420 -0.7931 -1.6631
  179SLPC  H14C20397   2.629   1.020  68.780  1.1674  0.5023 -2.5391
  179SLPC   C1520398   2.386   1.088  68.927 -0.2578  0.0527 -0.4972
  179SLPC  H15A20399   2.386   0.980  68.925 -5.5827 -0.2256 -0.9821
  179SLPC  H15B20400   2.353   1.101  69.029  0.2770  0.6702 -0.4005
  179SLPC  H15C20401   2.307   1.116  68.859  0.0944  0.1962 -0.8462
  179SLPC   C1220402   2.614   1.137  69.028  1.1830  0.7184 -0.4193
  179SLPC  H12A20403   2.713   1.143  68.986  0.6999  0.0542 -1.7173
  179SLPC  H12B20404   2.587   1.039  69.066  2.0928  0.2379 -0.9820
  179SLPC   C1120405   2.596   1.226  69.152 -0.3037  0.5919 -0.2451
  179SLPC  H11A20406   2.601   1.332  69.118  1.8482  0.4328 -0.5418
  179SLPC  H11B20407   2.680   1.204  69.220  0.1317 -1.5146 -1.3813
  179SLPC     P20408   2.440   1.079  69.295 -0.3548  0.2806  0.4305
  179SLPC   O1320409   2.441   0.958  69.213 -0.3085 -0.2680 -0.3842
  179SLPC   O1420410   2.541   1.074  69.402 -0.3147 -0.2737 -0.1046
  179SLPC   O1220411   2.471   1.213  69.211  0.6031  0.1845 -0.0817
  179SLPC   O1120412   2.295   1.086  69.359  0.8356 -0.6040  0.1628
  179SLPC    C120413   2.194   1.167  69.299 -0.1498 -0.3176  0.7190
  179SLPC    HA20414   2.228   1.225  69.210 -1.2759 -0.5936  0.0841
  179SLPC    HB20415   2.102   1.111  69.270 -1.0307  0.9071  1.0663
  179SLPC    C220416   2.143   1.271  69.400  0.0347 -0.2299 -0.4808
  179SLPC    HS20417   2.065   1.329  69.346 -1.8375 -0.8721  1.3637
  179SLPC   O2120418   2.242   1.368  69.433 -0.8213 -0.1061 -0.2713
  179SLPC   C2120419   2.274   1.456  69.338 -0.6206 -0.0295 -0.1611
  179SLPC   O2220420   2.216   1.474  69.238  0.6285  0.6765 -0.2958
  179SLPC   C2220421   2.403   1.526  69.381 -0.1651  0.3773  0.0587
  179SLPC   H2R20422   2.443   1.460  69.460 -2.4972 -0.4702  0.6012
  179SLPC   H2S20423   2.474   1.529  69.295 -2.6766 -1.4651 -2.2307
  179SLPC    C320424   2.084   1.197  69.532 -1.0372 -0.3722 -0.5774
  179SLPC    HX20425   2.162   1.132  69.577 -0.6196  0.2836 -0.3494
  179SLPC    HY20426   2.004   1.130  69.494 -1.8691 -0.7049  1.6187
  179SLPC   O3120427   2.025   1.290  69.627 -0.4948  0.1401 -0.2774
  179SLPC   C3120428   2.110   1.331  69.718 -0.0866  0.3035 -0.1241
  179SLPC   O3220429   2.216   1.276  69.744 -0.1046 -0.0126 -0.2242
  179SLPC   C3220430   2.050   1.454  69.791 -0.3228 -0.1470  0.0281
  179SLPC   H2X20431   1.982   1.514  69.727  1.4783  1.9196 -0.0716
  179SLPC   H2Y20432   2.138   1.519  69.810 -2.0800  2.7179 -0.9362
  179SLPC   C2320433   2.378   1.671  69.423  0.6661  0.1042 -0.1656
  179SLPC   H3R20434   2.290   1.664  69.491 -0.7788  1.1033 -1.8594
  179SLPC   H3S20435   2.351   1.728  69.332 -0.8579 -2.6179 -1.5651
  179SLPC   C2420436   2.506   1.737  69.480  0.4516  0.3821  0.7025
  179SLPC   H4R20437   2.480   1.831  69.532  1.8077  0.9655  0.3522
  179SLPC   H4S20438   2.569   1.766  69.394 -0.7467 -1.5309 -0.9272
  179SLPC   C2520439   2.580   1.666  69.594 -0.2555  0.1168 -0.4369
  179SLPC   H5R20440   2.685   1.702  69.585 -0.7082  1.4796 -0.5816
  179SLPC   H5S20441   2.555   1.559  69.585 -2.3589  0.6609 -1.9173
  179SLPC   C2620442   2.534   1.715  69.742 -0.6577  0.7633  0.2216
  179SLPC   H6R20443   2.561   1.822  69.756 -0.6945  0.6054  1.6979
  179SLPC   H6S20444   2.579   1.671  69.833 -0.7991  1.8084  0.8141
  179SLPC   C2720445   2.383   1.702  69.762  0.4972 -0.2825 -0.5453
  179SLPC   H7R20446   2.357   1.595  69.775  0.6473 -0.6341 -2.7120
  179SLPC   H7S20447   2.328   1.758  69.683  0.8554  1.0566  0.1330
  179SLPC   C2820448   2.342   1.769  69.896 -0.4875  0.7537  0.6078
  179SLPC   H8R20449   2.419   1.729  69.965  1.1662 -1.0083 -2.0681
  179SLPC   H8S20450   2.242   1.732  69.926  0.5910 -1.9087  1.1887
  179SLPC   C2920451   2.333   1.921  69.897  0.2600  0.3617 -0.3279
  179SLPC   H9R20452   2.383   1.975  69.815  2.2646 -0.5523  0.2133
  179SLPC  C21020453   2.245   1.983  69.982 -0.7909  0.6680 -0.8714
  179SLPC  H10R20454   2.267   2.091  69.988  0.5670  0.4199 -0.8996
  179SLPC  C21120455   2.159   1.917  70.093  0.6105 -0.1318  0.1160
  179SLPC  H11R20456   2.151   1.986  70.180  1.1413 -0.2920  0.2975
  179SLPC  H11S20457   2.191   1.820  70.137 -4.7897 -2.1008  0.3444
  179SLPC  C21220458   2.024   1.897  70.030 -0.1852 -0.6276 -0.1807
  179SLPC  H12R20459   2.027   1.853  69.929 -2.5053  0.1330 -0.6497
  179SLPC  C21320460   1.906   1.907  70.095 -0.3549 -0.3025 -0.7299
  179SLPC  H13R20461   1.821   1.869  70.037  0.7628 -0.7703 -2.1184
  179SLPC  C21420462   1.876   1.948  70.245  0.0811 -0.2283 -0.3567
  179SLPC  H14R20463   1.770   1.980  70.250  0.4216  0.7382  2.1443
  179SLPC  H14S20464   1.926   2.042  70.276 -1.6303  0.6360 -0.1075
  179SLPC  C21520465   1.904   1.831  70.346  0.2558  0.6420 -0.0630
  179SLPC  H15R20466   1.993   1.767  70.331 -0.3408 -0.1756 -0.1809
  179SLPC  H15S20467   1.817   1.763  70.354  1.0220 -0.1496  2.9359
  179SLPC  C21620468   1.946   1.898  70.477  0.0072 -0.3025 -0.3269
  179SLPC  H16R20469   1.867   1.975  70.493  0.7392  0.6729 -1.2866
  179SLPC  H16S20470   2.041   1.954  70.467  1.7617 -2.7786  1.3204
  179SLPC  C21720471   1.961   1.801  70.596 -0.0004 -0.5318 -0.1036
  179SLPC  H17R20472   2.023   1.710  70.588  2.8714  1.2864  0.2245
  179SLPC  H17S20473   1.862   1.759  70.624  1.4965 -3.8268  0.6675
  179SLPC  C21820474   2.018   1.883  70.717 -0.1744 -0.0554 -0.5108
  179SLPC  H18R20475   2.010   1.818  70.807  2.2550 -1.3980 -1.1734
  179SLPC  H18S20476   1.975   1.985  70.718  0.2492  0.2199 -3.4387
  179SLPC  H18T20477   2.129   1.892  70.707  0.3687 -3.7886  0.5359
  179SLPC   C3320478   2.004   1.430  69.932 -0.1048 -0.0609 -0.3155
  179SLPC   H3X20479   2.000   1.522  69.995  0.8493  0.2773 -0.7365
  179SLPC   H3Y20480   2.074   1.362  69.986  2.6115  3.8696  1.6715
  179SLPC   C3420481   1.857   1.391  69.926 -1.0813 -0.2369  0.3095
  179SLPC   H4X20482   1.849   1.296  69.870  2.3195 -0.8783  0.6931
  179SLPC   H4Y20483   1.804   1.469  69.867 -4.1616 -0.7885  2.1098
  179SLPC   C3520484   1.786   1.374  70.061 -0.7654  0.1223 -1.3399
  179SLPC   H5X20485   1.823   1.279  70.105 -1.8105 -0.0732 -0.8587
  179SLPC   H5Y20486   1.679   1.367  70.031 -0.6286 -1.4997 -1.5519
  179SLPC   C3620487   1.799   1.493  70.162  0.3110 -0.1884  0.1716
  179SLPC   H6X20488   1.768   1.583  70.105  0.2506 -0.0600  0.4037
  179SLPC   H6Y20489   1.902   1.499  70.205 -0.5453 -1.9538  2.6526
  179SLPC   C3720490   1.706   1.461  70.281  0.8155 -0.2777  0.1134
  179SLPC   H7X20491   1.605   1.436  70.242  0.2326  2.0616 -0.0275
  179SLPC   H7Y20492   1.686   1.555  70.335 -0.4273 -0.0128 -0.7625
  179SLPC   C3820493   1.767   1.365  70.391  0.6026 -0.2829 -0.3550
  179SLPC   H8X20494   1.857   1.408  70.440 -2.5168  3.6224  2.6968
  179SLPC   H8Y20495   1.797   1.270  70.341  2.1298 -0.9137  1.5827
  179SLPC   C3920496   1.668   1.346  70.512 -0.0649 -0.3916 -0.1406
  179SLPC   H9X20497   1.714   1.255  70.556  2.9581  1.8794  1.8028
  179SLPC   H9Y20498   1.564   1.328  70.479 -0.2274  2.2607 -1.2809
  179SLPC  C31020499   1.685   1.461  70.614  0.0890  0.4266  0.0440
  179SLPC  H10X20500   1.638   1.556  70.581 -2.0385 -0.3999  0.4985
  179SLPC  H10Y20501   1.795   1.475  70.623  0.1825  0.0978 -0.5507
  179SLPC  C31120502   1.638   1.413  70.747  0.3391 -0.5946  0.2266
  179SLPC  H11X20503   1.646   1.499  70.818 -0.4054  1.1231 -1.6674
  179SLPC  H11Y20504   1.702   1.326  70.776  0.8629 -0.6018 -0.9219
  179SLPC  C31220505   1.483   1.379  70.764  1.3464  0.2091  0.6823
  179SLPC  H12X20506   1.475   1.338  70.867  3.8253 -2.5706 -0.1031
  179SLPC  H12Y20507   1.466   1.302  70.687 -0.6451  1.9369 -0.7150
  179SLPC  C31320508   1.387   1.499  70.733 -0.4497  0.8079  0.9379
  179SLPC  H13X20509   1.454   1.587  70.727 -1.1051  1.2687  0.1621
  179SLPC  H13Y20510   1.319   1.501  70.821 -0.8120  0.5053  0.6664
  179SLPC  C31420511   1.291   1.508  70.612  0.3778 -0.0394  0.3073
  179SLPC  H14X20512   1.350   1.532  70.522  0.3630 -0.4850  0.1752
  179SLPC  H14Y20513   1.211   1.584  70.628 -0.1417  0.1058 -2.5645
  179SLPC  C31520514   1.224   1.373  70.581  0.4506 -0.7056 -0.3231
  179SLPC  H15X20515   1.303   1.310  70.535  1.3912 -0.0721  0.4169
  179SLPC  H15Y20516   1.159   1.391  70.492 -0.8867 -1.6325  0.4257
  179SLPC  C31620517   1.160   1.279  70.676  0.0490 -0.2712 -0.1036
  179SLPC  H16X20518   1.064   1.322  70.712  0.6865  0.7756  0.4077
  179SLPC  H16Y20519   1.226   1.273  70.766 -0.9588 -1.0720  0.6086
  179SLPC  C31720520   1.123   1.148  70.612 -0.5453  0.2111 -0.9379
  179SLPC  H17X20521   1.214   1.114  70.558 -0.5486 -1.7036  0.1542
  179SLPC  H17Y20522   1.065   1.185  70.525 -0.0279  2.3940 -0.3892
  179SLPC  C31820523   1.062   1.044  70.700 -0.0203 -0.7496  0.3889
  179SLPC  H18X20524   0.965   1.080  70.739  0.1145 -0.5786  0.5656
  179SLPC  H18Y20525   1.110   1.030  70.800  0.7865 -0.6763  0.0220
  179SLPC  H18Z20526   1.031   0.952  70.645  0.7788 -0.8597  0.1018
  180SLPC     N20527   0.274   0.170  66.637  1.0724  0.1590 -0.5214
  180SLPC   C1320528   0.350   0.228  66.754  0.2794  0.8922 -1.0691
  180SLPC  H13A20529   0.292   0.295  66.816  1.4934  3.5088 -2.5785
  180SLPC  H13B20530   0.390   0.149  66.816 -0.7018  1.0571 -0.2058
  180SLPC  H13C20531   0.431   0.284  66.709  0.7285  0.6226 -0.6025
  180SLPC   C1420532   0.140   0.130  66.692  0.9435 -0.8015  0.4355
  180SLPC  H14A20533   0.078   0.097  66.609  2.9199 -0.5401 -1.2310
  180SLPC  H14B20534   0.157   0.039  66.748  0.1589 -1.4540 -0.3628
  180SLPC  H14C20535   0.071   0.200  66.738  1.5827 -1.8241  3.1414
  180SLPC   C1520536   0.344   0.060  66.584 -0.6044 -0.2979  0.3785
  180SLPC  H15A20537   0.272  -0.005  66.535 -1.4343  1.0449 -0.2504
  180SLPC  H15B20538   0.429   0.085  66.522  0.1552 -2.4641  0.4596
  180SLPC  H15C20539   0.385   0.006  66.667 -2.6515 -3.0399 -0.2548
  180SLPC   C1220540   0.245   0.278  66.531 -0.6250 -0.4503  0.3080
  180SLPC  H12A20541   0.162   0.336  66.569  0.6170  0.4157  1.8328
  180SLPC  H12B20542   0.199   0.230  66.446 -3.8357  2.6793  0.0518
  180SLPC   C1120543   0.362   0.360  66.475  0.4610 -0.4894  0.0427
  180SLPC  H11A20544   0.408   0.415  66.560  0.4908  0.9320 -0.8605
  180SLPC  H11B20545   0.325   0.438  66.404  1.6792  1.2804  1.2862
  180SLPC     P20546   0.457   0.208  66.285 -0.1246 -0.0217 -0.2164
  180SLPC   O1320547   0.582   0.220  66.199  0.7686  0.3130 -0.1118
  180SLPC   O1420548   0.413   0.067  66.306  0.0900  0.7328 -0.0462
  180SLPC   O1220549   0.468   0.285  66.423  0.0538 -0.7047 -0.2444
  180SLPC   O1120550   0.341   0.285  66.223  0.7319 -0.2650 -0.1082
  180SLPC    C120551   0.313   0.314  66.092 -0.4027  0.3006 -0.9910
  180SLPC    HA20552   0.245   0.402  66.084  0.0879  1.4188  3.9524
  180SLPC    HB20553   0.406   0.351  66.045 -0.5779 -0.3742 -1.8882
  180SLPC    C220554   0.258   0.186  66.008 -0.2291  0.4955 -1.2251
  180SLPC    HS20555   0.335   0.108  66.028  2.2006  3.0896  0.1460
  180SLPC   O2120556   0.240   0.209  65.872 -0.5757 -0.2789 -0.5175
  180SLPC   C2120557   0.340   0.157  65.793  0.7868  0.3583 -0.0644
  180SLPC   O2220558   0.433   0.094  65.828 -0.0590 -0.0568 -0.6504
  180SLPC   C2220559   0.327   0.200  65.648  0.3761 -0.4531  0.5279
  180SLPC   H2R20560   0.324   0.309  65.629 -2.2903 -0.3551  1.1575
  180SLPC   H2S20561   0.412   0.146  65.600 -2.2298 -3.6382 -0.8983
  180SLPC    C320562   0.124   0.150  66.072  0.5324 -0.0590  0.2644
  180SLPC    HX20563   0.052   0.235  66.064  0.5408 -0.1814 -1.5587
  180SLPC    HY20564   0.139   0.141  66.181  1.1543  0.3544  0.2175
  180SLPC   O3120565   0.077   0.028  66.022 -0.3709 -0.6932  0.0771
  180SLPC   C3120566  -0.053   0.013  66.056  0.0149  0.2792  0.5182
  180SLPC   O3220567  -0.113   0.058  66.154  0.0867 -0.4219  0.5839
  180SLPC   C3220568  -0.139  -0.064  65.951 -0.9317 -0.2865 -0.2158
  180SLPC   H2X20569  -0.158  -0.165  65.993  2.1562 -0.9261 -0.1448
  180SLPC   H2Y20570  -0.076  -0.081  65.861 -0.5086 -4.0929  0.6398
  180SLPC   C2320571   0.207   0.139  65.569 -0.0921  0.1996  0.2915
  180SLPC   H3R20572   0.180   0.044  65.620  0.1440  0.3533  0.7043
  180SLPC   H3S20573   0.228   0.118  65.462  0.1714 -2.1586  0.7376
  180SLPC   C2420574   0.082   0.228  65.554  0.5646 -1.0354  0.3618
  180SLPC   H4R20575   0.114   0.324  65.508  0.7252 -0.9709  0.6043
  180SLPC   H4S20576   0.033   0.241  65.653 -2.0556 -3.3015 -0.4947
  180SLPC   C2520577  -0.037   0.175  65.471 -0.2715 -0.0024 -0.7240
  180SLPC   H5R20578   0.012   0.136  65.379 -0.8440 -2.0792 -0.1996
  180SLPC   H5S20579  -0.105   0.262  65.455 -1.5342 -0.1728  2.8558
  180SLPC   C2620580  -0.121   0.060  65.527 -0.0800 -0.5931  0.4963
  180SLPC   H6R20581  -0.210   0.103  65.578  0.0174  0.2466 -0.0298
  180SLPC   H6S20582  -0.066  -0.002  65.600  1.5653 -0.1891 -0.3481
  180SLPC   C2720583  -0.179  -0.025  65.408  0.4196 -0.5266  0.8967
  180SLPC   H7R20584  -0.230   0.044  65.337  1.7512  0.2792  0.6869
  180SLPC   H7S20585  -0.264  -0.082  65.452 -0.2959 -0.5552 -0.4702
  180SLPC   C2820586  -0.084  -0.128  65.339 -0.2686  0.3431  0.0275
  180SLPC   H8R20587  -0.029  -0.192  65.411 -1.7375 -0.5215  0.4317
  180SLPC   H8S20588  -0.007  -0.065  65.290  1.3427  0.0903  2.0717
  180SLPC   C2920589  -0.154  -0.204  65.226  0.4563  0.2217 -1.1934
  180SLPC   H9R20590  -0.238  -0.156  65.174 -1.8398 -1.8031  0.4197
  180SLPC  C21020591  -0.118  -0.325  65.190 -0.2827 -1.2775  0.6078
  180SLPC  H10R20592  -0.167  -0.380  65.109 -0.8611 -3.7528  2.5219
  180SLPC  C21120593  -0.009  -0.411  65.250  0.0535 -0.5744  0.4998
  180SLPC  H11R20594  -0.003  -0.382  65.358  2.7500 -1.2321  0.5895
  180SLPC  H11S20595   0.096  -0.392  65.219 -0.0349 -3.0227 -1.5400
  180SLPC  C21220596  -0.013  -0.559  65.250 -0.5650  0.5485 -0.3063
  180SLPC  H12R20597   0.060  -0.602  65.180 -0.7033 -0.5507  0.2075
  180SLPC  C21320598  -0.075  -0.638  65.338 -0.5988  0.2821  0.0607
  180SLPC  H13R20599  -0.055  -0.745  65.321  2.9797  1.0123 -1.3083
  180SLPC  C21420600  -0.170  -0.591  65.438  0.1123  0.1997 -0.0098
  180SLPC  H14R20601  -0.265  -0.625  65.392  1.2184  0.4169 -2.6703
  180SLPC  H14S20602  -0.171  -0.480  65.443 -0.9420  0.2137 -0.3389
  180SLPC  C21520603  -0.153  -0.647  65.583  0.5534  0.5146  0.5132
  180SLPC  H15R20604  -0.240  -0.621  65.646  0.3677  1.2762 -0.0542
  180SLPC  H15S20605  -0.062  -0.598  65.624  0.1697 -0.8122  3.1516
  180SLPC  C21620606  -0.133  -0.797  65.594  0.1906  0.2390  0.5265
  180SLPC  H16R20607  -0.035  -0.821  65.546  0.3537 -0.7990  1.3442
  180SLPC  H16S20608  -0.211  -0.841  65.528  1.2665  0.7941 -1.2157
  180SLPC  C21720609  -0.141  -0.838  65.740 -0.4200 -0.1720  0.4888
  180SLPC  H17R20610  -0.236  -0.806  65.787  1.3630  1.1241  3.5202
  180SLPC  H17S20611  -0.049  -0.793  65.783  2.7077 -0.5566 -4.8831
  180SLPC  C21820612  -0.115  -0.992  65.758  0.4181  0.8643 -0.1465
  180SLPC  H18R20613  -0.020  -1.017  65.708  1.4822  0.1620  2.1015
  180SLPC  H18S20614  -0.194  -1.049  65.704  0.8129  0.5802 -0.4318
  180SLPC  H18T20615  -0.117  -1.032  65.862  3.8539  0.3190 -0.1979
  180SLPC   C3320616  -0.269   0.015  65.900  0.3470  0.5520  0.3795
  180SLPC   H3X20617  -0.251   0.091  65.821  2.8866 -1.1948 -0.8516
  180SLPC   H3Y20618  -0.298   0.065  65.995 -0.3288 -1.2197  1.1623
  180SLPC   C3420619  -0.398  -0.074  65.876 -0.2114  0.1764 -0.7284
  180SLPC   H4X20620  -0.485  -0.023  65.922 -0.2758  0.7807 -1.4910
  180SLPC   H4Y20621  -0.392  -0.164  65.941 -2.6541  0.1428 -0.4634
  180SLPC   C3520622  -0.412  -0.105  65.729  0.7820 -0.3304  0.3808
  180SLPC   H5X20623  -0.333  -0.177  65.700 -1.6940 -2.5906 -1.2209
  180SLPC   H5Y20624  -0.404  -0.011  65.670  1.1599  0.3922  1.5522
  180SLPC   C3620625  -0.552  -0.163  65.690  0.1110 -0.2939 -0.2627
  180SLPC   H6X20626  -0.632  -0.093  65.722 -0.1231 -0.8273  0.3403
  180SLPC   H6Y20627  -0.570  -0.264  65.734  0.5883 -1.7936 -3.2208
  180SLPC   C3720628  -0.562  -0.181  65.540  0.1057 -0.2295 -0.9420
  180SLPC   H7X20629  -0.475  -0.246  65.517  0.9699  0.5426  0.0562
  180SLPC   H7Y20630  -0.552  -0.088  65.480 -0.0012  0.4293  0.0237
  180SLPC   C3820631  -0.697  -0.251  65.496 -0.6763  0.6563 -0.4277
  180SLPC   H8X20632  -0.785  -0.187  65.517 -0.7850  1.2217 -2.3887
  180SLPC   H8Y20633  -0.696  -0.341  65.562 -0.4658  2.1381  1.6733
  180SLPC   C3920634  -0.699  -0.297  65.344 -0.5392  0.0002 -0.4953
  180SLPC   H9X20635  -0.616  -0.368  65.324 -0.9768  0.0062 -2.6074
  180SLPC   H9Y20636  -0.669  -0.205  65.290  0.2689  1.7788  2.7287
  180SLPC  C31020637  -0.835  -0.345  65.298  0.5110 -0.7546  0.0294
  180SLPC  H10X20638  -0.906  -0.261  65.311 -0.2129 -0.7588 -3.2178
  180SLPC  H10Y20639  -0.864  -0.429  65.366 -3.9040 -0.8376 -1.6015
  180SLPC  C31120640  -0.852  -0.392  65.148 -0.2366 -0.9517 -0.5244
  180SLPC  H11X20641  -0.938  -0.462  65.135  0.2921 -1.7326  0.0643
  180SLPC  H11Y20642  -0.755  -0.435  65.116  0.0960 -1.4163  1.0211
  180SLPC  C31220643  -0.885  -0.272  65.069 -0.1716  0.4644 -0.4393
  180SLPC  H12X20644  -0.824  -0.183  65.098  1.1428 -1.4421  3.3819
  180SLPC  H12Y20645  -0.994  -0.256  65.079 -0.4920 -1.1068 -1.2136
  180SLPC  C31320646  -0.876  -0.295  64.920 -0.4608  0.2422  0.1797
  180SLPC  H13X20647  -0.934  -0.383  64.884  1.8621 -2.1493  1.8086
  180SLPC  H13Y20648  -0.767  -0.305  64.897 -0.3013  3.9391 -1.2884
  180SLPC  C31420649  -0.933  -0.174  64.836  0.0268 -0.5158  0.8191
  180SLPC  H14X20650  -0.874  -0.083  64.862 -0.3622  0.0963 -0.3769
  180SLPC  H14Y20651  -1.039  -0.152  64.862 -0.0176  0.1605  0.0983
  180SLPC  C31520652  -0.926  -0.198  64.685 -0.2017  0.4971  0.1390
  180SLPC  H15X20653  -1.001  -0.281  64.687  1.8815 -1.4880  2.2753
  180SLPC  H15Y20654  -0.835  -0.255  64.659 -1.6952 -1.9786 -0.0387
  180SLPC  C31620655  -0.981  -0.087  64.589  0.0903  0.7288 -0.2614
  180SLPC  H16X20656  -1.000  -0.144  64.495  1.0759 -1.8341  1.0040
  180SLPC  H16Y20657  -0.898  -0.021  64.557 -0.2322  0.1287 -2.5520
  180SLPC  C31720658  -1.090   0.012  64.637 -0.5901  0.4337 -0.8731
  180SLPC  H17X20659  -1.038   0.071  64.716  1.6322  0.0042 -1.9385
  180SLPC  H17Y20660  -1.179  -0.043  64.675 -0.3826  0.5796 -0.1652
  180SLPC  C31820661  -1.141   0.110  64.532  0.2503 -0.0516 -0.2272
  180SLPC  H18X20662  -1.113   0.091  64.427 -0.1552 -1.0138 -0.1683
  180SLPC  H18Y20663  -1.109   0.215  64.551 -0.4840  0.0168  0.7312
  180SLPC  H18Z20664  -1.251   0.117  64.538  0.1786 -1.3644  0.5276
  181SLPC     N20665   0.206   0.115  63.319 -0.0388 -0.5532 -0.0177
  181SLPC   C1320666   0.085   0.183  63.374 -0.2588  0.8173  0.0866
  181SLPC  H13A20667  -0.010   0.146  63.340  0.8194  0.4860 -2.8738
  181SLPC  H13B20668   0.096   0.189  63.481  0.7271 -0.3412  0.0836
  181SLPC  H13C20669   0.084   0.282  63.330 -0.1082  1.0511  0.6021
  181SLPC   C1420670   0.322   0.203  63.347 -0.1631  0.0497 -0.2482
  181SLPC  H14A20671   0.404   0.171  63.285  1.0179  0.0402  1.2532
  181SLPC  H14B20672   0.295   0.306  63.329 -1.1001 -0.1633 -0.1555
  181SLPC  H14C20673   0.347   0.182  63.450 -0.6212 -2.3814 -0.5645
  181SLPC   C1520674   0.197   0.126  63.168  0.4228  1.0701  0.3141
  181SLPC  H15A20675   0.099   0.094  63.135  1.1566 -1.5896  0.4502
  181SLPC  H15B20676   0.215   0.226  63.132 -1.7994  1.7623  0.9444
  181SLPC  H15C20677   0.275   0.062  63.130  1.1436  2.5951 -0.8514
  181SLPC   C1220678   0.218  -0.030  63.365 -1.3111 -0.8968 -0.2824
  181SLPC  H12A20679   0.146  -0.098  63.322 -1.4518  0.6644 -2.6913
  181SLPC  H12B20680   0.199  -0.033  63.472 -1.3172  2.9247 -0.0576
  181SLPC   C1120681   0.350  -0.091  63.339 -0.8034  0.5331 -0.1602
  181SLPC  H11A20682   0.372  -0.183  63.396  0.4907  0.9567  0.0598
  181SLPC  H11B20683   0.436  -0.023  63.360 -1.2304  1.8338 -2.2946
  181SLPC     P20684   0.275  -0.250  63.142  0.0488  0.2217 -0.0776
  181SLPC   O1320685   0.357  -0.363  63.093 -0.1591  0.1064 -0.4437
  181SLPC   O1420686   0.171  -0.290  63.236  0.1038  0.2889  0.0157
  181SLPC   O1220687   0.365  -0.140  63.202  0.2116 -0.3425 -0.1700
  181SLPC   O1120688   0.211  -0.179  63.020 -0.3533 -0.1213 -0.0113
  181SLPC    C120689   0.276  -0.183  62.893  0.6067  0.1409  0.6680
  181SLPC    HA20690   0.316  -0.281  62.859 -1.9147 -1.0779  0.9683
  181SLPC    HB20691   0.211  -0.148  62.810  0.3200  0.5149  1.0441
  181SLPC    C220692   0.401  -0.088  62.882 -0.1716 -0.2191  0.5720
  181SLPC    HS20693   0.475  -0.128  62.955  1.0812  0.2876 -0.3701
  181SLPC   O2120694   0.360   0.049  62.903 -0.7955 -0.2418 -0.4111
  181SLPC   C2120695   0.451   0.151  62.903  0.1682  0.2361 -0.0950
  181SLPC   O2220696   0.569   0.138  62.914 -0.5561 -0.0642 -0.2356
  181SLPC   C2220697   0.385   0.284  62.899  0.1634  0.5272 -0.0650
  181SLPC   H2R20698   0.314   0.298  62.984  0.4069 -1.1213  0.4586
  181SLPC   H2S20699   0.454   0.369  62.916 -0.2007  0.2342  4.0469
  181SLPC    C320700   0.472  -0.086  62.753  0.2861  0.5826 -0.2577
  181SLPC    HX20701   0.564  -0.026  62.741  0.3103  0.5761 -0.1055
  181SLPC    HY20702   0.385  -0.046  62.697  0.0577 -1.3937 -1.4154
  181SLPC   O3120703   0.477  -0.218  62.693  0.7263 -0.3458 -0.0114
  181SLPC   C3120704   0.596  -0.276  62.690  0.4428 -0.1557 -1.5097
  181SLPC   O3220705   0.696  -0.231  62.744  0.3325  0.8063 -0.0999
  181SLPC   C3220706   0.578  -0.411  62.630  0.3141 -0.1461 -0.5322
  181SLPC   H2X20707   0.567  -0.412  62.519  1.6097 -0.9446 -0.6828
  181SLPC   H2Y20708   0.491  -0.456  62.682  0.3815  1.6207  1.2045
  181SLPC   C2320709   0.285   0.305  62.777  1.0418  0.2274  0.5769
  181SLPC   H3R20710   0.221   0.388  62.814  2.5938  1.0517  1.4817
  181SLPC   H3S20711   0.214   0.222  62.755 -2.4882  3.5265 -1.7265
  181SLPC   C2420712   0.342   0.342  62.646  0.4540  0.2042  1.2593
  181SLPC   H4R20713   0.379   0.246  62.604  0.6764  0.3534  1.1103
  181SLPC   H4S20714   0.430   0.409  62.641  0.9820 -0.5376 -0.2147
  181SLPC   C2520715   0.241   0.401  62.537  0.1044  0.1476  0.3088
  181SLPC   H5R20716   0.201   0.496  62.578  0.5310 -0.3350  1.9354
  181SLPC   H5S20717   0.144   0.348  62.527 -0.6257  0.9473  2.5211
  181SLPC   C2620718   0.296   0.380  62.390 -0.0011 -0.1877 -0.4666
  181SLPC   H6R20719   0.407   0.385  62.396  0.3296 -3.4046 -2.0628
  181SLPC   H6S20720   0.263   0.463  62.324  1.0274 -1.2963 -2.4769
  181SLPC   C2720721   0.253   0.250  62.320 -0.5296 -0.5326  0.4371
  181SLPC   H7R20722   0.143   0.259  62.305 -0.1440  1.1080 -2.0048
  181SLPC   H7S20723   0.271   0.160  62.382  0.6263 -0.9193 -0.4328
  181SLPC   C2820724   0.305   0.219  62.180  0.2369 -1.0653  0.4321
  181SLPC   H8R20725   0.272   0.114  62.164 -0.5369 -0.7285 -0.2168
  181SLPC   H8S20726   0.415   0.235  62.187  0.2290  1.0952 -2.5132
  181SLPC   C2920727   0.246   0.303  62.078  0.4444 -0.2268  0.3512
  181SLPC   H9R20728   0.176   0.383  62.105 -0.2481 -1.4055  2.2196
  181SLPC  C21020729   0.267   0.288  61.942  0.1979  0.8656 -0.5109
  181SLPC  H10R20730   0.215   0.343  61.863 -1.6294  0.4452  0.3522
  181SLPC  C21120731   0.392   0.198  61.883  0.0794 -0.4377  0.4230
  181SLPC  H11R20732   0.478   0.188  61.952  0.7184  1.1131 -0.0992
  181SLPC  H11S20733   0.426   0.246  61.788  1.1866 -1.2926  0.3719
  181SLPC  C21220734   0.353   0.057  61.843 -0.1238 -0.4968  0.5390
  181SLPC  H12R20735   0.246   0.037  61.860 -0.5608 -0.8442 -2.1229
  181SLPC  C21320736   0.427  -0.034  61.782  0.3111 -0.0796  0.3473
  181SLPC  H13R20737   0.376  -0.127  61.753 -0.3681  0.1454  0.7742
  181SLPC  C21420738   0.566  -0.024  61.733  0.5947 -0.2563  0.4313
  181SLPC  H14R20739   0.626  -0.110  61.769 -0.9002 -2.1258 -1.2829
  181SLPC  H14S20740   0.609   0.071  61.770  2.9543 -1.0258 -0.1327
  181SLPC  C21520741   0.569  -0.028  61.570  0.5970 -0.0491  1.0276
  181SLPC  H15R20742   0.667   0.007  61.532  0.6423 -2.9645 -1.8612
  181SLPC  H15S20743   0.495   0.051  61.542  2.3509  1.7151  1.1505
  181SLPC  C21620744   0.529  -0.161  61.510  0.4345 -0.0217  0.3058
  181SLPC  H16R20745   0.426  -0.188  61.543 -0.2494  1.3786 -0.5978
  181SLPC  H16S20746   0.597  -0.243  61.541 -1.4365 -0.7978  2.6773
  181SLPC  C21720747   0.531  -0.158  61.357  0.0968  0.0285 -0.3527
  181SLPC  H17R20748   0.624  -0.112  61.317  0.9149  1.6342  3.0250
  181SLPC  H17S20749   0.455  -0.078  61.338 -1.5571 -1.1715  0.9190
  181SLPC  C21820750   0.491  -0.293  61.281  0.1288 -0.1572 -0.3719
  181SLPC  H18R20751   0.478  -0.273  61.172 -0.4823 -2.1357 -0.7077
  181SLPC  H18S20752   0.395  -0.330  61.324  0.5732  2.2913  3.1683
  181SLPC  H18T20753   0.568  -0.373  61.279  0.2619 -0.0341 -0.1176
  181SLPC   C3320754   0.706  -0.483  62.637 -0.6583  0.7189 -0.1140
  181SLPC   H3X20755   0.690  -0.576  62.695  2.5640 -0.8657 -1.5324
  181SLPC   H3Y20756   0.791  -0.439  62.694  3.1532 -2.1576 -3.0580
  181SLPC   C3420757   0.769  -0.530  62.499 -0.1238  0.2279  0.0443
  181SLPC   H4X20758   0.857  -0.594  62.523  1.8256  2.8197  0.3865
  181SLPC   H4Y20759   0.816  -0.442  62.449  0.9998  0.0908  0.8148
  181SLPC   C3520760   0.685  -0.617  62.403  0.3729 -0.7476 -1.6893
  181SLPC   H5X20761   0.601  -0.547  62.385  1.7175  2.2347  2.2370
  181SLPC   H5Y20762   0.638  -0.706  62.450  1.5464 -0.3425  0.3927
  181SLPC   C3620763   0.747  -0.653  62.276 -1.2528  1.0169 -0.4009
  181SLPC   H6X20764   0.824  -0.733  62.284  1.5957  3.5388 -1.2368
  181SLPC   H6Y20765   0.813  -0.582  62.223  0.4380 -1.4859 -1.8272
  181SLPC   C3720766   0.642  -0.697  62.169 -0.3397  0.1242 -1.0914
  181SLPC   H7X20767   0.626  -0.605  62.109  2.6698  1.0883 -0.5970
  181SLPC   H7Y20768   0.550  -0.724  62.226  0.0969  2.3027  0.7782
  181SLPC   C3820769   0.680  -0.817  62.077 -0.4233 -0.1031  0.3289
  181SLPC   H8X20770   0.789  -0.823  62.053  0.5541 -0.4971  4.1521
  181SLPC   H8Y20771   0.616  -0.817  61.987  0.1882 -1.3273 -0.1206
  181SLPC   C3920772   0.647  -0.963  62.139 -1.0334 -0.4379 -0.1773
  181SLPC   H9X20773   0.545  -0.964  62.181 -0.6240 -0.3992  0.8466
  181SLPC   H9Y20774   0.713  -0.955  62.228 -0.2282 -0.4875 -0.7489
  181SLPC  C31020775   0.682  -1.076  62.036  0.0383 -0.8760 -0.6785
  181SLPC  H10X20776   0.690  -1.169  62.095  0.8215 -0.6228 -0.3556
  181SLPC  H10Y20777   0.768  -1.038  61.976  1.2395 -1.3653  0.6830
  181SLPC  C31120778   0.560  -1.094  61.937 -0.0727 -0.5296  0.3130
  181SLPC  H11X20779   0.537  -0.998  61.885 -2.5461 -0.3887  1.5329
  181SLPC  H11Y20780   0.476  -1.120  62.005  1.9977 -2.2878  2.3386
  181SLPC  C31220781   0.574  -1.222  61.857  0.2595 -0.3638  0.3698
  181SLPC  H12X20782   0.499  -1.289  61.902  0.4989 -1.5571 -0.9245
  181SLPC  H12Y20783   0.670  -1.271  61.884 -0.3354 -1.4091  0.6463
  181SLPC  C31320784   0.547  -1.215  61.709  0.0989 -0.1586  0.8054
  181SLPC  H13X20785   0.455  -1.156  61.690  0.6893  0.7900  0.8518
  181SLPC  H13Y20786   0.505  -1.313  61.677 -2.3151 -0.5289  4.4915
  181SLPC  C31420787   0.672  -1.168  61.630  0.7027 -0.4417 -0.6045
  181SLPC  H14X20788   0.677  -1.224  61.535 -2.7614  1.2043 -1.9407
  181SLPC  H14Y20789   0.759  -1.190  61.696 -0.7491  2.1553  2.5153
  181SLPC  C31520790   0.687  -1.023  61.583 -0.7817 -0.9977  0.1541
  181SLPC  H15X20791   0.709  -0.954  61.668 -0.8451 -0.1302 -0.5162
  181SLPC  H15Y20792   0.599  -0.997  61.521 -1.5557 -0.7574  1.3315
  181SLPC  C31620793   0.802  -1.014  61.472 -1.0397  0.0768 -0.5128
  181SLPC  H16X20794   0.774  -1.069  61.380  2.1686  5.0334 -4.9709
  181SLPC  H16Y20795   0.896  -1.057  61.515 -2.1353 -0.5773  1.3667
  181SLPC  C31720796   0.823  -0.867  61.429  0.0491  0.4301 -0.0361
  181SLPC  H17X20797   0.734  -0.814  61.389  0.4752  1.9950  1.0222
  181SLPC  H17Y20798   0.908  -0.860  61.358 -1.4153  1.2397 -1.7929
  181SLPC  C31820799   0.860  -0.763  61.530 -0.1248 -0.3727 -0.0324
  181SLPC  H18X20800   0.967  -0.755  61.559 -0.8514 -1.1900  3.3513
  181SLPC  H18Y20801   0.807  -0.770  61.628  2.5805 -1.3499  1.4594
  181SLPC  H18Z20802   0.826  -0.666  61.488 -2.5808 -1.0842  0.1378
  182SLPC     N20803   1.687   2.217  63.005 -0.2940 -1.0679  0.0203
  182SLPC   C1320804   1.716   2.292  63.132  0.2763  0.1847  0.4473
  182SLPC  H13A20805   1.726   2.400  63.123  1.4069  0.2718  2.1778
  182SLPC  H13B20806   1.631   2.270  63.195 -0.4159  1.4381 -0.0031
  182SLPC  H13C20807   1.804   2.253  63.180  1.2040  3.1469  1.3574
  182SLPC   C1420808   1.780   2.282  62.905 -0.7620  0.5539 -0.0679
  182SLPC  H14A20809   1.770   2.389  62.897 -0.2442  0.4682 -4.0235
  182SLPC  H14B20810   1.886   2.265  62.914 -0.6322  0.1910 -1.7923
  182SLPC  H14C20811   1.748   2.245  62.808 -1.8778  2.1610 -0.3580
  182SLPC   C1520812   1.547   2.253  62.964 -1.2511 -0.0229 -0.2290
  182SLPC  H15A20813   1.552   2.355  62.930  2.3448  1.3185  3.4459
  182SLPC  H15B20814   1.520   2.195  62.877 -3.5906  0.0980  0.3287
  182SLPC  H15C20815   1.472   2.241  63.041 -1.5471  0.0254 -0.5089
  182SLPC   C1220816   1.717   2.074  63.029 -0.1353 -0.3042  0.1656
  182SLPC  H12A20817   1.704   2.012  62.941  0.9119 -1.8295  1.0400
  182SLPC  H12B20818   1.649   2.034  63.102 -1.0088 -0.3544 -0.6608
  182SLPC   C1120819   1.861   2.041  63.078 -0.0553  0.8249  0.5204
  182SLPC  H11A20820   1.884   2.072  63.182  0.9848 -1.0603  0.9009
  182SLPC  H11B20821   1.934   2.083  63.005  0.8140 -1.6077 -0.1189
  182SLPC     P20822   1.865   1.804  62.962  0.4070  0.0538 -0.4417
  182SLPC   O1320823   1.912   1.665  62.996  0.1166  0.4817 -0.7561
  182SLPC   O1420824   1.726   1.815  62.918  0.2612 -0.3861  0.0967
  182SLPC   O1220825   1.876   1.897  63.094 -0.3132 -0.9871  0.0214
  182SLPC   O1120826   1.963   1.887  62.867  0.3800  0.8129 -0.6638
  182SLPC    C120827   1.914   1.958  62.754  0.6130 -0.3526 -0.2149
  182SLPC    HA20828   1.810   1.995  62.771  1.6108  2.4489  0.2572
  182SLPC    HB20829   1.976   2.050  62.749 -0.4752  0.3419 -1.8325
  182SLPC    C220830   1.939   1.880  62.622 -0.9320  0.0983 -0.2246
  182SLPC    HS20831   1.897   1.930  62.532 -0.8186 -2.5318 -1.8419
  182SLPC   O2120832   1.887   1.750  62.634 -0.1850  0.0149  0.5839
  182SLPC   C2120833   1.776   1.720  62.568  0.8953 -0.5930 -0.4716
  182SLPC   O2220834   1.719   1.790  62.489 -0.8704  0.1606  0.7597
  182SLPC   C2220835   1.745   1.565  62.598 -0.1031 -0.3726  0.8490
  182SLPC   H2R20836   1.842   1.510  62.605  0.8758  1.3765  1.9971
  182SLPC   H2S20837   1.700   1.583  62.698 -1.4643  0.9996  0.0354
  182SLPC    C320838   2.088   1.874  62.612  0.8154  0.0332  0.5449
  182SLPC    HX20839   2.133   1.807  62.688  2.9116  0.1456 -0.5149
  182SLPC    HY20840   2.112   1.981  62.629  1.3660  0.2642 -1.5252
  182SLPC   O3120841   2.122   1.848  62.482 -0.6239  0.8064  0.9722
  182SLPC   C3120842   2.248   1.877  62.441 -0.8776  0.8135 -0.0661
  182SLPC   O3220843   2.338   1.919  62.512  0.5019 -0.3510  0.9201
  182SLPC   C3220844   2.271   1.836  62.295  0.9031 -1.3427 -0.2949
  182SLPC   H2X20845   2.205   1.910  62.245  0.9781 -0.1688  1.2600
  182SLPC   H2Y20846   2.219   1.737  62.297 -1.2829 -0.2658  1.9207
  182SLPC   C2320847   1.639   1.492  62.516  0.6267  0.0085  1.3822
  182SLPC   H3R20848   1.547   1.553  62.503  1.8912  1.5575 -1.0818
  182SLPC   H3S20849   1.613   1.397  62.568 -0.1694 -1.1577 -1.0014
  182SLPC   C2420850   1.685   1.464  62.372  0.2735  0.2870 -0.0913
  182SLPC   H4R20851   1.771   1.396  62.387  0.6587  1.0151  1.1303
  182SLPC   H4S20852   1.701   1.552  62.306 -3.9390  0.4589 -1.2076
  182SLPC   C2520853   1.560   1.398  62.302 -0.4947  0.0362 -0.5455
  182SLPC   H5R20854   1.500   1.489  62.282 -0.6579  0.3820  1.3568
  182SLPC   H5S20855   1.502   1.334  62.372  0.5361  0.8875  1.1570
  182SLPC   C2620856   1.579   1.315  62.177  0.0431 -0.5574  0.4845
  182SLPC   H6R20857   1.610   1.385  62.096  0.4744  0.1912  1.2810
  182SLPC   H6S20858   1.485   1.265  62.143  0.9940 -0.5238 -2.5570
  182SLPC   C2720859   1.687   1.208  62.182  0.3777  0.1009  0.3106
  182SLPC   H7R20860   1.654   1.152  62.272 -0.9764  2.5738  1.4546
  182SLPC   H7S20861   1.788   1.251  62.203  0.1261  0.0790  1.6434
  182SLPC   C2820862   1.686   1.099  62.073  0.6839  0.6205 -0.2267
  182SLPC   H8R20863   1.586   1.054  62.086  0.2931  1.3762 -0.5473
  182SLPC   H8S20864   1.766   1.023  62.086  1.8375  1.7325 -0.5382
  182SLPC   C2920865   1.698   1.153  61.933  0.3211 -0.1674  0.0011
  182SLPC   H9R20866   1.632   1.241  61.921  0.3572 -0.0944  0.3282
  182SLPC  C21020867   1.768   1.114  61.823 -0.6820  0.7513 -0.3115
  182SLPC  H10R20868   1.747   1.154  61.723  0.3043  0.4377 -0.6605
  182SLPC  C21120869   1.832   0.978  61.808 -0.4817  0.0495 -0.2186
  182SLPC  H11R20870   1.866   0.958  61.704 -1.6702 -2.5694 -0.1698
  182SLPC  H11S20871   1.759   0.897  61.827  1.4080 -1.8693 -0.6543
  182SLPC  C21220872   1.954   0.959  61.895 -0.9104  0.0154 -0.5165
  182SLPC  H12R20873   1.922   0.981  61.998 -1.9627 -0.6773 -0.6672
  182SLPC  C21320874   2.092   0.948  61.863 -0.3612  1.1315  0.5120
  182SLPC  H13R20875   2.165   0.956  61.945  1.9319 -1.4950 -1.0503
  182SLPC  C21420876   2.158   0.956  61.725 -0.3694  0.3528 -0.7115
  182SLPC  H14R20877   2.102   1.015  61.649 -1.1774 -0.3477 -0.6690
  182SLPC  H14S20878   2.149   0.851  61.689  1.2544 -0.2029  0.3858
  182SLPC  C21520879   2.305   0.985  61.713  0.0741 -0.2032 -0.2474
  182SLPC  H15R20880   2.335   0.941  61.616  2.7299  1.1277 -0.1247
  182SLPC  H15S20881   2.357   0.926  61.791 -0.5931  0.1931  0.5143
  182SLPC  C21620882   2.329   1.131  61.716  0.2427 -0.9525  0.2169
  182SLPC  H16R20883   2.251   1.177  61.780  2.3693 -1.9973  3.8221
  182SLPC  H16S20884   2.318   1.180  61.617 -2.7331 -0.4198  0.7246
  182SLPC  C21720885   2.473   1.165  61.774  0.2633  0.5491 -0.1704
  182SLPC  H17R20886   2.474   1.139  61.882  0.3749  2.1634  0.2481
  182SLPC  H17S20887   2.448   1.273  61.775  0.0880  0.5787 -2.5244
  182SLPC  C21820888   2.594   1.121  61.695 -0.2338 -0.0356  0.4431
  182SLPC  H18R20889   2.614   1.013  61.704 -0.9640 -0.1520  0.7926
  182SLPC  H18S20890   2.687   1.174  61.724 -0.6000 -0.3425  2.2519
  182SLPC  H18T20891   2.574   1.137  61.587 -0.1124  0.9202  0.5551
  182SLPC   C3320892   2.420   1.831  62.248 -0.1286 -0.1804 -0.2043
  182SLPC   H3X20893   2.468   1.735  62.277  0.4274 -0.9159 -3.2564
  182SLPC   H3Y20894   2.469   1.925  62.282 -1.5130  2.4292 -4.6682
  182SLPC   C3420895   2.428   1.838  62.095  0.8895  0.4031 -0.1123
  182SLPC   H4X20896   2.531   1.832  62.053  0.4270 -0.3413 -1.1912
  182SLPC   H4Y20897   2.373   1.926  62.056 -1.9878 -0.9162  0.7542
  182SLPC   C3520898   2.357   1.716  62.028 -0.8609 -0.2911  0.5999
  182SLPC   H5X20899   2.251   1.738  62.053 -0.7421  2.7357 -1.0537
  182SLPC   H5Y20900   2.395   1.621  62.071 -0.5375 -0.9599 -1.0865
  182SLPC   C3620901   2.373   1.709  61.875 -0.1591  1.3313 -0.0192
  182SLPC   H6X20902   2.291   1.647  61.833 -0.2080 -0.8262  2.9056
  182SLPC   H6Y20903   2.472   1.661  61.857 -0.2333  0.3993  1.8102
  182SLPC   C3720904   2.357   1.847  61.805 -1.0181 -0.2118 -0.7564
  182SLPC   H7X20905   2.449   1.904  61.833 -3.1036  1.1831  4.5495
  182SLPC   H7Y20906   2.275   1.908  61.850 -1.9308 -0.5115 -1.9676
  182SLPC   C3820907   2.347   1.822  61.656 -0.6094 -0.0815 -0.9627
  182SLPC   H8X20908   2.270   1.746  61.629 -0.2704 -0.8235  0.1074
  182SLPC   H8Y20909   2.431   1.772  61.602 -2.4847 -1.8751 -2.4269
  182SLPC   C3920910   2.307   1.941  61.579 -0.7654 -0.2610  0.1328
  182SLPC   H9X20911   2.357   2.028  61.626 -1.1389  1.1502 -1.9381
  182SLPC   H9Y20912   2.202   1.964  61.606 -0.7157 -1.4242  1.4379
  182SLPC  C31020913   2.325   1.920  61.429 -0.3067 -0.4753 -0.1302
  182SLPC  H10X20914   2.305   2.015  61.376  0.0801 -0.4129 -0.1664
  182SLPC  H10Y20915   2.253   1.858  61.373  0.8491 -2.0106  0.0333
  182SLPC  C31120916   2.463   1.882  61.374 -0.3325  0.3001 -0.2537
  182SLPC  H11X20917   2.478   1.775  61.403 -2.3925 -0.5952 -2.1481
  182SLPC  H11Y20918   2.544   1.932  61.431  1.8445 -2.4951 -0.6427
  182SLPC  C31220919   2.478   1.877  61.219  0.8543 -0.2622 -0.2450
  182SLPC  H12X20920   2.574   1.835  61.183  0.4792 -0.3351 -1.1866
  182SLPC  H12Y20921   2.468   1.982  61.183  0.3669  1.3144  3.9131
  182SLPC  C31320922   2.361   1.785  61.152 -0.6238 -0.3131 -0.3100
  182SLPC  H13X20923   2.265   1.841  61.144  0.2783  1.3785  0.2679
  182SLPC  H13Y20924   2.329   1.705  61.221 -1.5562  1.3356  1.2604
  182SLPC  C31420925   2.404   1.753  60.999  0.5932 -0.4536  0.4960
  182SLPC  H14X20926   2.509   1.716  61.010  0.8544  0.3388  0.7061
  182SLPC  H14Y20927   2.407   1.857  60.960 -1.5730  0.2488  2.0409
  182SLPC  C31520928   2.290   1.671  60.930 -0.6719 -0.0212  0.4237
  182SLPC  H15X20929   2.198   1.729  60.951 -1.0349 -1.5449  3.6406
  182SLPC  H15Y20930   2.277   1.577  60.989  1.1984 -1.9584 -2.0107
  182SLPC  C31620931   2.341   1.632  60.790  1.2090  0.1848  0.2547
  182SLPC  H16X20932   2.352   1.521  60.787  1.7282  0.1592  2.1446
  182SLPC  H16Y20933   2.446   1.666  60.776  0.8519  1.1739 -0.1396
  182SLPC  C31720934   2.269   1.698  60.669 -0.7106 -0.1473 -0.1166
  182SLPC  H17X20935   2.260   1.805  60.698 -0.9787 -0.0171 -0.6840
  182SLPC  H17Y20936   2.173   1.649  60.644  0.1393 -1.6679 -0.5303
  182SLPC  C31820937   2.345   1.686  60.534  0.3932 -1.1542 -0.4837
  182SLPC  H18X20938   2.265   1.700  60.458  2.4109 -2.5475 -3.0252
  182SLPC  H18Y20939   2.384   1.585  60.510  1.8082 -0.9019  0.6048
  182SLPC  H18Z20940   2.413   1.774  60.526  0.7396 -1.3476  0.2085
  183SLPC     N20941   0.548   2.544  67.361 -0.4382  0.6393  0.0992
  183SLPC   C1320942   0.535   2.611  67.500  0.1555 -0.1818 -0.2062
  183SLPC  H13A20943   0.438   2.640  67.535  1.3143  1.0343  2.2430
  183SLPC  H13B20944   0.566   2.547  67.581 -0.7857 -0.1130  0.2224
  183SLPC  H13C20945   0.591   2.703  67.506 -1.5750  1.0537 -1.9051
  183SLPC   C1420946   0.675   2.463  67.355 -0.2864  0.3972  0.1910
  183SLPC  H14A20947   0.682   2.392  67.436 -1.6136  0.3700  0.3062
  183SLPC  H14B20948   0.680   2.401  67.267 -1.7284 -0.5167  0.7041
  183SLPC  H14C20949   0.748   2.541  67.370  1.3110 -0.7838 -1.0988
  183SLPC   C1520950   0.561   2.654  67.256  0.4129 -0.7188  0.1358
  183SLPC  H15A20951   0.581   2.612  67.158  2.3353 -2.1785  1.0866
  183SLPC  H15B20952   0.474   2.718  67.259  0.4393 -0.7200  1.5777
  183SLPC  H15C20953   0.649   2.704  67.294 -1.0475  0.8002  1.7332
  183SLPC   C1220954   0.426   2.455  67.338 -0.6029 -0.3846 -0.3622
  183SLPC  H12A20955   0.449   2.403  67.246  1.9104  0.5596 -0.3587
  183SLPC  H12B20956   0.333   2.510  67.334 -1.1939 -0.8963  3.1784
  183SLPC   C1120957   0.409   2.344  67.441 -0.1965 -0.1879  0.4851
  183SLPC  H11A20958   0.301   2.321  67.426 -0.3806  1.7146 -1.6892
  183SLPC  H11B20959   0.419   2.370  67.549  3.4485  0.2312  0.1566
  183SLPC     P20960   0.487   2.099  67.503 -0.0109  0.5098 -0.1010
  183SLPC   O1320961   0.540   2.112  67.636  0.3548  0.3248 -0.3930
  183SLPC   O1420962   0.351   2.044  67.486 -0.8883 -0.3193 -0.2660
  183SLPC   O1220963   0.494   2.229  67.420  0.1921  0.0017  0.1762
  183SLPC   O1120964   0.574   2.002  67.412 -0.5514  0.1473  0.0843
  183SLPC    C120965   0.662   2.041  67.315 -1.7550 -0.2308 -0.0133
  183SLPC    HA20966   0.657   1.966  67.234 -0.0953  1.1866 -1.5019
  183SLPC    HB20967   0.655   2.147  67.285 -0.1104  0.0646  0.5682
  183SLPC    C220968   0.808   2.035  67.377  1.4764 -1.0703  0.1955
  183SLPC    HS20969   0.835   2.132  67.424  1.6857  0.7291 -3.3090
  183SLPC   O2120970   0.900   2.007  67.278 -0.6107  0.0555 -0.2683
  183SLPC   C2120971   0.927   2.097  67.189  0.9695  0.0179  0.0825
  183SLPC   O2220972   0.905   2.217  67.199 -0.3139 -0.4493 -0.6223
  183SLPC   C2220973   1.005   2.027  67.082  1.0443  0.3179  0.2234
  183SLPC   H2R20974   1.067   1.955  67.139 -0.7896 -0.3771  1.4393
  183SLPC   H2S20975   0.939   1.969  67.014  0.7677  0.9302 -0.0446
  183SLPC    C320976   0.816   1.915  67.478  0.1892 -0.6542 -0.8976
  183SLPC    HX20977   0.744   1.837  67.446 -1.2283  0.2950 -0.1095
  183SLPC    HY20978   0.765   1.944  67.572 -1.0775 -5.3576  0.1549
  183SLPC   O3120979   0.952   1.866  67.510 -0.8102  0.0245 -0.5186
  183SLPC   C3120980   1.020   1.945  67.596  0.0710  0.4392  0.1131
  183SLPC   O3220981   0.977   2.049  67.649  0.5745  0.1192  0.1363
  183SLPC   C3220982   1.157   1.883  67.619  0.7324 -0.3779 -0.6584
  183SLPC   H2X20983   1.178   1.807  67.540 -0.7045 -2.1262  0.5670
  183SLPC   H2Y20984   1.157   1.835  67.719 -0.3049  0.2994 -0.3131
  183SLPC   C2320985   1.090   2.112  66.979  0.0256 -0.7086  0.2696
  183SLPC   H3R20986   1.168   2.178  67.023  1.7701 -0.4729 -2.8892
  183SLPC   H3S20987   1.012   2.180  66.937  1.0452 -1.4655 -3.2056
  183SLPC   C2420988   1.144   2.021  66.869 -0.1261  0.4996  0.1039
  183SLPC   H4R20989   1.067   1.962  66.815  0.8119 -3.0226  2.2794
  183SLPC   H4S20990   1.217   1.944  66.901 -2.0199 -1.7816 -0.8192
  183SLPC   C2520991   1.210   2.106  66.758 -0.4506 -0.0040  0.1402
  183SLPC   H5R20992   1.129   2.172  66.720 -0.8804  1.0771  2.7412
  183SLPC   H5S20993   1.229   2.031  66.678 -0.4432 -0.0283  0.1574
  183SLPC   C2620994   1.336   2.179  66.807 -0.0326 -0.1490  0.4694
  183SLPC   H6R20995   1.376   2.127  66.896  0.7015  1.1848  0.9429
  183SLPC   H6S20996   1.294   2.277  66.838 -2.3924 -0.8891 -0.1264
  183SLPC   C2720997   1.445   2.208  66.707  0.6956  0.4763  0.2124
  183SLPC   H7R20998   1.467   2.110  66.658  0.8492  0.2431  0.7406
  183SLPC   H7S20999   1.529   2.258  66.760  0.7669 -2.1144  2.8287
  183SLPC   C2821000   1.401   2.298  66.588 -0.2422 -0.6144 -0.2900
  183SLPC   H8R21001   1.291   2.313  66.585 -0.1889  1.1470  2.7292
  183SLPC   H8S21002   1.444   2.255  66.495  4.1350 -0.3694  1.3543
  183SLPC   C2921003   1.460   2.434  66.620 -0.2709  0.6626 -0.0647
  183SLPC   H9R21004   1.568   2.433  66.596  0.1590  1.7509  1.7009
  183SLPC  C21021005   1.412   2.553  66.664 -0.2060  0.4843 -1.0370
  183SLPC  H10R21006   1.486   2.634  66.676  1.5988 -0.8951 -2.3369
  183SLPC  C21121007   1.265   2.577  66.720  0.4864 -0.7233 -0.2540
  183SLPC  H11R21008   1.256   2.560  66.829  0.2655  2.3966  0.3043
  183SLPC  H11S21009   1.202   2.496  66.676 -2.6529  1.0556  0.7145
  183SLPC  C21221010   1.229   2.718  66.690 -0.3546  0.0943  0.6116
  183SLPC  H12R21011   1.203   2.774  66.781 -0.3890 -0.6578  1.0752
  183SLPC  C21321012   1.189   2.785  66.576 -0.4385 -0.3611 -0.7041
  183SLPC  H13R21013   1.159   2.891  66.584 -2.0143 -0.4743 -3.7277
  183SLPC  C21421014   1.200   2.728  66.444  0.4690 -0.1458  0.0651
  183SLPC  H14R21015   1.105   2.682  66.410  0.1957  0.3140  0.1985
  183SLPC  H14S21016   1.279   2.649  66.444  0.9420  0.3201 -0.2285
  183SLPC  C21521017   1.246   2.832  66.344 -0.1958 -0.5265 -0.3751
  183SLPC  H15R21018   1.343   2.881  66.371  1.4613 -2.5688 -2.2856
  183SLPC  H15S21019   1.170   2.908  66.315  0.3997  0.4125  0.4303
  183SLPC  C21621020   1.292   2.773  66.208  0.6636  0.2235 -0.5296
  183SLPC  H16R21021   1.201   2.726  66.166  0.0484  1.6730 -0.8797
  183SLPC  H16S21022   1.374   2.698  66.210 -0.2309 -0.7830 -0.4424
  183SLPC  C21721023   1.315   2.873  66.096 -0.0245  0.2492  0.0051
  183SLPC  H17R21024   1.320   2.811  66.004  1.5875  0.4113 -0.0371
  183SLPC  H17S21025   1.413   2.922  66.108 -0.4150  1.0358  0.0471
  183SLPC  C21821026   1.206   2.983  66.063  0.1310  0.2018  0.4136
  183SLPC  H18R21027   1.196   3.056  66.147 -2.8223 -2.8666  3.0639
  183SLPC  H18S21028   1.104   2.939  66.069  0.4993 -0.6760  0.4530
  183SLPC  H18T21029   1.215   3.014  65.957 -1.6203 -2.5058 -0.6436
  183SLPC   C3321030   1.274   1.982  67.606 -0.6602 -0.2749 -0.9128
  183SLPC   H3X21031   1.248   2.070  67.668 -0.3245  0.3820 -1.6878
  183SLPC   H3Y21032   1.291   2.032  67.508 -0.5011  0.8935 -0.3094
  183SLPC   C3421033   1.401   1.928  67.682  0.3414  0.6424 -0.0806
  183SLPC   H4X21034   1.421   1.821  67.660  0.9845  0.5990  0.6720
  183SLPC   H4Y21035   1.373   1.928  67.789 -1.0029  1.5975 -0.4054
  183SLPC   C3521036   1.524   2.024  67.665 -0.1496  1.3114  0.3152
  183SLPC   H5X21037   1.595   2.001  67.748 -0.2988  0.8584  0.3181
  183SLPC   H5Y21038   1.485   2.128  67.672 -0.6891  1.1495 -0.2296
  183SLPC   C3621039   1.611   1.997  67.541  0.0047 -0.8631 -0.2493
  183SLPC   H6X21040   1.558   2.038  67.452 -2.3624 -2.2624  0.4214
  183SLPC   H6Y21041   1.628   1.890  67.515  0.5508 -1.4876  2.3927
  183SLPC   C3721042   1.753   2.061  67.534  0.3793 -0.9665 -0.5819
  183SLPC   H7X21043   1.831   2.024  67.464  1.2559  1.6990 -1.1019
  183SLPC   H7Y21044   1.804   2.058  67.633  1.0259 -0.6285 -0.8972
  183SLPC   C3821045   1.747   2.219  67.499  0.3756 -0.1459  0.1191
  183SLPC   H8X21046   1.848   2.259  67.477 -0.8781  2.3736 -1.5260
  183SLPC   H8Y21047   1.724   2.265  67.598  3.5724  1.9358  0.0507
  183SLPC   C3921048   1.646   2.269  67.389 -0.5707 -0.5453 -0.2160
  183SLPC   H9X21049   1.546   2.224  67.410 -1.4935 -0.3562 -3.6319
  183SLPC   H9Y21050   1.683   2.255  67.285 -0.2645  1.4108 -0.3943
  183SLPC  C31021051   1.624   2.422  67.392 -0.0769  0.2733  0.2340
  183SLPC  H10X21052   1.714   2.472  67.349 -0.1445  1.0683  0.9850
  183SLPC  H10Y21053   1.611   2.456  67.497  0.8020 -1.1653  0.8363
  183SLPC  C31121054   1.508   2.467  67.313  0.7320  0.0170  0.0544
  183SLPC  H11X21055   1.411   2.423  67.346 -0.9088  2.1027 -1.7317
  183SLPC  H11Y21056   1.521   2.419  67.214  3.4342  0.5162  0.0826
  183SLPC  C31221057   1.497   2.621  67.297 -0.0056 -0.5425  0.0584
  183SLPC  H12X21058   1.603   2.652  67.284  0.2218  0.4202  3.2582
  183SLPC  H12Y21059   1.451   2.682  67.378  0.6540  0.7708 -0.5274
  183SLPC  C31321060   1.438   2.669  67.165 -0.0775 -0.1112  0.5148
  183SLPC  H13X21061   1.328   2.653  67.161 -0.1645  0.2731  1.0940
  183SLPC  H13Y21062   1.479   2.604  67.085 -2.2175 -2.1545  0.9617
  183SLPC  C31421063   1.468   2.812  67.140  0.8093 -0.0441 -0.0446
  183SLPC  H14X21064   1.579   2.826  67.139  0.9925 -0.7378  2.7195
  183SLPC  H14Y21065   1.427   2.887  67.211  0.6462 -0.7411  0.6085
  183SLPC  C31521066   1.431   2.855  66.989  0.1777 -0.4213 -0.6514
  183SLPC  H15X21067   1.322   2.865  66.973  0.1235  0.2609  0.0938
  183SLPC  H15Y21068   1.485   2.783  66.923  0.1165 -1.4205  0.3603
  183SLPC  C31621069   1.488   3.003  66.971  0.0983 -0.0883  1.1432
  183SLPC  H16X21070   1.594   2.992  67.005 -0.3145 -0.5557  2.3205
  183SLPC  H16Y21071   1.433   3.084  67.022  2.6554  3.1051 -0.7934
  183SLPC  C31721072   1.491   3.053  66.829 -0.5027  0.2335 -0.2438
  183SLPC  H17X21073   1.388   3.071  66.791  0.8727  0.6723 -4.1729
  183SLPC  H17Y21074   1.537   2.973  66.767 -0.7283 -0.5812  0.6110
  183SLPC  C31821075   1.565   3.183  66.801  0.1166 -1.3033  0.4656
  183SLPC  H18X21076   1.595   3.192  66.694  0.3021  2.2624  0.7088
  183SLPC  H18Y21077   1.657   3.180  66.864  0.2963  1.3421  0.4544
  183SLPC  H18Z21078   1.499   3.263  66.841  2.2358 -0.1635  1.9385
  184SLPC     N21079   0.503   1.939  69.914 -0.5661 -0.3543  0.6971
  184SLPC   C1321080   0.628   1.963  69.830  0.1682  0.4082 -0.4213
  184SLPC  H13A21081   0.682   2.050  69.863 -1.3179  0.9657  0.7056
  184SLPC  H13B21082   0.692   1.876  69.836 -0.6093 -0.0738  3.0327
  184SLPC  H13C21083   0.594   1.973  69.728  1.3880  1.8250 -0.7019
  184SLPC   C1421084   0.546   1.931  70.052 -0.1055  0.2436  0.3504
  184SLPC  H14A21085   0.466   1.894  70.115  3.0097 -3.6645  2.5076
  184SLPC  H14B21086   0.615   1.849  70.063 -2.3520 -1.4430  3.8661
  184SLPC  H14C21087   0.593   2.022  70.087  0.9747  1.4290 -3.6762
  184SLPC   C1521088   0.447   1.809  69.871  1.1676  0.5912 -0.0412
  184SLPC  H15A21089   0.506   1.720  69.884 -2.0384 -1.2980  4.1201
  184SLPC  H15B21090   0.348   1.810  69.914  1.3337  0.4641  0.3515
  184SLPC  H15C21091   0.438   1.815  69.764  0.1110 -1.1648 -0.0871
  184SLPC   C1221092   0.401   2.048  69.881  0.0678  0.4268 -0.1942
  184SLPC  H12A21093   0.302   2.028  69.920 -0.2561  1.8023 -0.2664
  184SLPC  H12B21094   0.390   2.056  69.774 -2.4730  0.2986 -0.0150
  184SLPC   C1121095   0.434   2.187  69.933 -0.4309 -1.1895 -0.8994
  184SLPC  H11A21096   0.449   2.189  70.043  1.2598  1.3938 -1.0868
  184SLPC  H11B21097   0.346   2.255  69.925  1.7965  2.1428  0.4305
  184SLPC     P21098   0.664   2.301  69.938 -0.5236 -0.0621 -0.3241
  184SLPC   O1321099   0.763   2.195  69.965 -0.0784  0.5723 -0.6712
  184SLPC   O1421100   0.719   2.411  69.861  0.5156  0.7962  0.1526
  184SLPC   O1221101   0.542   2.249  69.862 -0.0263 -0.2789  0.1283
  184SLPC   O1121102   0.604   2.350  70.075  0.1475  0.0759 -0.2440
  184SLPC    C121103   0.697   2.358  70.185 -0.1165  0.3187 -0.4584
  184SLPC    HA21104   0.799   2.377  70.147  0.2227 -0.7021 -0.0961
  184SLPC    HB21105   0.660   2.447  70.240  1.3565  0.4779  0.3107
  184SLPC    C221106   0.698   2.237  70.294 -0.2666  0.4209 -0.8417
  184SLPC    HS21107   0.741   2.149  70.241  0.3164  1.7642 -2.7279
  184SLPC   O2121108   0.559   2.215  70.330  0.3873 -0.1149 -0.5466
  184SLPC   C2121109   0.532   2.097  70.371  0.2168  0.3943  1.2246
  184SLPC   O2221110   0.607   2.007  70.390 -0.0849  0.0467  0.7651
  184SLPC   C2221111   0.374   2.085  70.376 -0.3230 -0.3323  1.4407
  184SLPC   H2R21112   0.322   2.179  70.403 -0.1336  0.4479 -0.6857
  184SLPC   H2S21113   0.350   2.051  70.273 -3.7447  0.6715  1.7826
  184SLPC    C321114   0.782   2.286  70.418  0.2275 -0.2437  0.3341
  184SLPC    HX21115   0.724   2.362  70.475  0.3010  0.4810 -0.5435
  184SLPC    HY21116   0.861   2.354  70.379 -1.1620  0.6245 -1.0757
  184SLPC   O3121117   0.832   2.181  70.502 -0.3173  0.5450  0.2492
  184SLPC   C3121118   0.962   2.169  70.512  0.4199 -0.1739 -0.0301
  184SLPC   O3221119   1.041   2.243  70.458 -0.5053 -0.0439  0.0472
  184SLPC   C3221120   0.995   2.038  70.592  0.5110 -0.4567  0.5341
  184SLPC   H2X21121   1.034   2.070  70.691  1.4561  0.2628 -0.0638
  184SLPC   H2Y21122   1.073   2.001  70.522 -0.7623 -0.1604 -1.0881
  184SLPC   C2321123   0.331   1.988  70.475  0.5438  0.3787 -0.0626
  184SLPC   H3R21124   0.382   1.889  70.480  1.1458  0.6676 -0.4430
  184SLPC   H3S21125   0.228   1.966  70.439  1.6394 -1.3581 -2.4324
  184SLPC   C2421126   0.315   2.039  70.619 -0.4528  0.1939  0.6657
  184SLPC   H4R21127   0.273   2.142  70.616  2.0617  1.3183 -2.8974
  184SLPC   H4S21128   0.419   2.038  70.658 -0.6551  0.3667  1.2182
  184SLPC   C2521129   0.249   1.931  70.708 -0.0586  0.5286 -0.2827
  184SLPC   H5R21130   0.296   1.831  70.693 -0.1015  0.7231 -1.8566
  184SLPC   H5S21131   0.142   1.917  70.683 -0.3162 -2.1732  1.8275
  184SLPC   C2621132   0.255   1.966  70.860  0.4758  0.9599 -0.2310
  184SLPC   H6R21133   0.184   1.911  70.925  0.3469  0.8719 -0.4427
  184SLPC   H6S21134   0.239   2.076  70.869  1.0491  1.3991 -3.3667
  184SLPC   C2721135   0.405   1.954  70.914 -0.4752  0.6165 -0.2420
  184SLPC   H7R21136   0.484   1.981  70.841  1.5232  0.1567  1.6430
  184SLPC   H7S21137   0.437   1.852  70.946 -0.7975  1.3203  2.6395
  184SLPC   C2821138   0.423   2.031  71.051 -0.2556 -0.1685 -0.0167
  184SLPC   H8R21139   0.406   2.140  71.038  0.9729  0.4983  3.2083
  184SLPC   H8S21140   0.533   2.042  71.063  0.0164  0.6746 -2.6449
  184SLPC   C2921141   0.360   1.983  71.171 -0.3467  0.5404  0.1615
  184SLPC   H9R21142   0.267   2.034  71.198 -0.4113 -0.3922  1.8514
  184SLPC  C21021143   0.413   1.887  71.259  0.0288  0.4454  0.0062
  184SLPC  H10R21144   0.353   1.851  71.344 -2.2746  1.2359 -1.2022
  184SLPC  C21121145   0.541   1.809  71.234 -0.4160 -0.1554 -0.2483
  184SLPC  H11R21146   0.534   1.758  71.135  0.4047  0.4000 -0.6042
  184SLPC  H11S21147   0.552   1.726  71.308 -2.5710 -0.0285  0.2803
  184SLPC  C21221148   0.665   1.898  71.253 -0.1868  0.3895  0.5128
  184SLPC  H12R21149   0.639   2.005  71.254 -2.8826 -0.1916  1.9177
  184SLPC  C21321150   0.795   1.869  71.277  0.4047 -0.0860  0.2076
  184SLPC  H13R21151   0.869   1.947  71.298  1.2591 -0.5559 -0.9734
  184SLPC  C21421152   0.847   1.728  71.290 -0.2934 -0.1534  0.5007
  184SLPC  H14R21153   0.947   1.727  71.240 -0.8361 -0.5635 -0.5937
  184SLPC  H14S21154   0.783   1.652  71.240 -3.6145  0.6116  3.1986
  184SLPC  C21521155   0.855   1.683  71.437 -0.9555  0.4586 -0.4011
  184SLPC  H15R21156   0.751   1.703  71.471 -0.9576  4.1641 -2.1433
  184SLPC  H15S21157   0.919   1.751  71.496 -0.8125  0.2389 -0.2983
  184SLPC  C21621158   0.883   1.530  71.453 -0.5382 -0.3027 -0.6442
  184SLPC  H16R21159   0.984   1.510  71.412 -0.8642 -3.8065 -0.0201
  184SLPC  H16S21160   0.804   1.481  71.391 -0.8942 -1.2289  0.4989
  184SLPC  C21721161   0.869   1.475  71.599  0.5295 -0.2844  0.5728
  184SLPC  H17R21162   0.932   1.538  71.665  0.4847  1.3947 -0.9116
  184SLPC  H17S21163   0.925   1.379  71.597  1.7998  0.4279  1.4414
  184SLPC  C21821164   0.731   1.448  71.650 -0.0287  1.0404  0.2897
  184SLPC  H18R21165   0.671   1.388  71.579  0.4515  2.2717 -1.2352
  184SLPC  H18S21166   0.667   1.539  71.643 -0.0185  0.9198 -2.0768
  184SLPC  H18T21167   0.720   1.401  71.750 -2.3657  0.9852  0.0737
  184SLPC   C3321168   0.879   1.939  70.618  0.1734  0.6109 -0.2618
  184SLPC   H3X21169   0.847   1.904  70.517  0.5950  0.3615 -0.3109
  184SLPC   H3Y21170   0.788   1.990  70.658  0.1067  0.2100  0.1003
  184SLPC   C3421171   0.943   1.828  70.704 -0.3706 -0.9988 -0.5317
  184SLPC   H4X21172   1.001   1.872  70.788  1.2270 -2.2027 -0.9513
  184SLPC   H4Y21173   1.015   1.779  70.636  1.6745  0.3615  0.5323
  184SLPC   C3521174   0.832   1.725  70.742 -0.1627 -0.4416  0.7228
  184SLPC   H5X21175   0.852   1.641  70.672 -0.1088  0.9074 -0.9499
  184SLPC   H5Y21176   0.727   1.760  70.736 -0.0874 -0.0351  1.6499
  184SLPC   C3621177   0.842   1.681  70.880  0.0370 -0.2115  0.0201
  184SLPC   H6X21178   0.841   1.761  70.957 -1.6645 -0.3501  0.1702
  184SLPC   H6Y21179   0.937   1.631  70.907 -0.1186  1.0739  3.3520
  184SLPC   C3721180   0.712   1.610  70.919 -0.0522  0.1615 -0.1508
  184SLPC   H7X21181   0.620   1.672  70.912  1.6219  2.7414 -0.8701
  184SLPC   H7Y21182   0.735   1.601  71.027  2.9274  3.8579 -0.2823
  184SLPC   C3821183   0.684   1.477  70.856  0.3152  1.3653 -0.6107
  184SLPC   H8X21184   0.771   1.424  70.812 -0.9180  0.0287 -1.5111
  184SLPC   H8Y21185   0.607   1.494  70.778 -2.1538 -1.1862  1.0878
  184SLPC   C3921186   0.631   1.372  70.962 -0.4691 -0.5013 -0.2053
  184SLPC   H9X21187   0.608   1.273  70.917  0.1682 -0.2143 -1.2012
  184SLPC   H9Y21188   0.537   1.413  71.005 -1.6456 -1.8568 -1.3899
  184SLPC  C31021189   0.740   1.333  71.066 -0.7400 -0.7839  0.0003
  184SLPC  H10X21190   0.745   1.416  71.140  0.7947 -0.6709 -0.1956
  184SLPC  H10Y21191   0.836   1.335  71.010 -1.1523 -1.1909 -0.7375
  184SLPC  C31121192   0.720   1.202  71.136  0.8278  0.0470  0.4189
  184SLPC  H11X21193   0.610   1.190  71.154  1.0452 -0.8654  1.2152
  184SLPC  H11Y21194   0.770   1.198  71.235  1.4824  3.7272  0.3604
  184SLPC  C31221195   0.775   1.082  71.058  0.0573  0.3864 -0.3774
  184SLPC  H12X21196   0.880   1.079  71.021  0.4949 -3.7224  0.7151
  184SLPC  H12Y21197   0.727   1.078  70.958 -0.4557 -1.0253 -0.0932
  184SLPC  C31321198   0.773   0.957  71.134  0.2371  0.0449 -0.6224
  184SLPC  H13X21199   0.674   0.911  71.155  1.4826 -2.1429  0.8429
  184SLPC  H13Y21200   0.829   0.983  71.226  3.3210 -1.5625 -1.9179
  184SLPC  C31421201   0.837   0.845  71.047 -0.6493 -0.3615  0.4180
  184SLPC  H14X21202   0.946   0.868  71.057 -1.1560  1.5110  2.3855
  184SLPC  H14Y21203   0.818   0.857  70.938  1.5664 -0.7526 -0.0675
  184SLPC  C31521204   0.809   0.703  71.097  0.9516 -0.3206  0.2124
  184SLPC  H15X21205   0.860   0.624  71.038 -0.4623 -0.7486 -0.4787
  184SLPC  H15Y21206   0.701   0.677  71.095  1.4174 -2.5974 -3.3616
  184SLPC  C31621207   0.862   0.704  71.241  0.1745  0.7940 -0.5695
  184SLPC  H16X21208   0.777   0.739  71.303 -1.3508 -3.1284 -0.1378
  184SLPC  H16Y21209   0.950   0.767  71.266  1.8713 -0.8014 -2.2368
  184SLPC  C31721210   0.884   0.565  71.303  0.1558  0.6156  0.5743
  184SLPC  H17X21211   0.937   0.570  71.400 -1.4874 -2.6998  1.7917
  184SLPC  H17Y21212   0.957   0.503  71.246 -1.1908 -2.6356  2.0834
  184SLPC  C31821213   0.757   0.490  71.314  0.7716 -0.3841 -0.2008
  184SLPC  H18X21214   0.689   0.540  71.386  1.0203 -0.3449  0.0044
  184SLPC  H18Y21215   0.760   0.382  71.342  0.7854 -0.5033 -0.6506
  184SLPC  H18Z21216   0.703   0.482  71.217 -2.5899  0.2581  1.4825
  185SLPC     N21217   1.665   0.092  42.222  0.1946 -0.0425 -0.1944
  185SLPC   C1321218   1.618   0.152  42.346  0.1947 -0.3788 -0.0060
  185SLPC  H13A21219   1.676   0.121  42.432 -0.8698 -1.3144  0.3955
  185SLPC  H13B21220   1.596   0.258  42.346 -1.7964 -0.7483  0.5587
  185SLPC  H13C21221   1.518   0.117  42.368 -0.1744  0.0553 -0.9663
  185SLPC   C1421222   1.642  -0.061  42.219 -0.2073  0.1301  1.0954
  185SLPC  H14A21223   1.535  -0.078  42.217 -0.4397  1.5584 -0.4256
  185SLPC  H14B21224   1.691  -0.117  42.141 -0.8504  0.5616  0.3773
  185SLPC  H14C21225   1.678  -0.106  42.311 -0.0728 -0.1378  0.9120
  185SLPC   C1521226   1.809   0.107  42.202  0.4009  0.1071 -0.1726
  185SLPC  H15A21227   1.848   0.208  42.196  1.6436 -0.4438 -2.5830
  185SLPC  H15B21228   1.851   0.059  42.289 -0.4414  0.4402  0.4396
  185SLPC  H15C21229   1.835   0.051  42.114 -0.7124  0.2200 -0.5956
  185SLPC   C1221230   1.589   0.163  42.103 -0.3185  0.5172 -0.1806
  185SLPC  H12A21231   1.612   0.268  42.104 -1.6055  0.8004  0.5131
  185SLPC  H12B21232   1.482   0.166  42.109 -0.3489 -0.2452 -0.2066
  185SLPC   C1121233   1.623   0.104  41.965  0.5338  0.3256  0.2049
  185SLPC  H11A21234   1.539   0.143  41.904 -0.7054 -2.4808 -0.0408
  185SLPC  H11B21235   1.619  -0.007  41.962  0.4098  0.3546 -1.2857
  185SLPC     P21236   1.763   0.283  41.856 -0.4536  0.2280 -0.2653
  185SLPC   O1321237   1.734   0.383  41.966 -0.1407  0.1155 -0.6385
  185SLPC   O1421238   1.893   0.294  41.781  0.1195 -0.5755  0.2449
  185SLPC   O1221239   1.748   0.129  41.907 -0.1934  0.6660 -0.1571
  185SLPC   O1121240   1.637   0.310  41.763 -0.0066  0.0710 -0.0879
  185SLPC    C121241   1.619   0.236  41.645  0.6054  0.2831  0.0538
  185SLPC    HA21242   1.700   0.255  41.571 -0.1294 -1.0102 -1.1242
  185SLPC    HB21243   1.627   0.128  41.674  1.8805  0.1946 -0.5416
  185SLPC    C221244   1.485   0.263  41.573  0.0969  0.5261  0.0650
  185SLPC    HS21245   1.460   0.182  41.501  0.8629 -0.6776  1.0894
  185SLPC   O2121246   1.480   0.387  41.500  0.1971 -0.0856  0.2406
  185SLPC   C2121247   1.554   0.379  41.389 -1.1590  0.1406 -1.2298
  185SLPC   O2221248   1.622   0.285  41.353  0.1663  0.5681  0.2194
  185SLPC   C2221249   1.547   0.505  41.320  0.4139 -0.1376  0.2018
  185SLPC   H2R21250   1.508   0.582  41.390 -0.4189 -0.5808  0.2326
  185SLPC   H2S21251   1.641   0.534  41.268 -1.7175  3.2219 -2.2206
  185SLPC    C321252   1.369   0.255  41.679 -0.1497  0.1961 -1.0472
  185SLPC    HX21253   1.388   0.319  41.767 -1.3985  0.9238 -1.2828
  185SLPC    HY21254   1.370   0.151  41.718  1.4711 -0.0321 -1.6138
  185SLPC   O3121255   1.245   0.289  41.616  0.3902 -0.3345 -0.1060
  185SLPC   C3121256   1.212   0.413  41.625  0.1563  0.0278  0.3306
  185SLPC   O3221257   1.266   0.509  41.673 -0.2254  0.7722 -0.3269
  185SLPC   C3221258   1.071   0.414  41.558 -0.1043  0.2955  0.0534
  185SLPC   H2X21259   1.011   0.341  41.616 -1.0678  1.7888  1.0316
  185SLPC   H2Y21260   1.094   0.379  41.456  2.6430 -1.3359  1.1296
  185SLPC   C2321261   1.456   0.483  41.196 -0.1192  0.1596 -0.3096
  185SLPC   H3R21262   1.513   0.414  41.130 -3.3036 -4.1363  0.9836
  185SLPC   H3S21263   1.436   0.582  41.149 -2.2223 -0.5225 -0.9651
  185SLPC   C2421264   1.316   0.425  41.227 -0.5596 -0.8863  0.0948
  185SLPC   H4R21265   1.289   0.473  41.324 -3.4423 -2.0593 -0.0336
  185SLPC   H4S21266   1.326   0.319  41.256  3.0285  0.2434  4.0025
  185SLPC   C2521267   1.211   0.463  41.121  0.4375  0.4331 -0.2722
  185SLPC   H5R21268   1.127   0.417  41.177  0.4920  0.4881 -0.1449
  185SLPC   H5S21269   1.228   0.412  41.023 -0.3416  0.0751 -0.2323
  185SLPC   C2621270   1.184   0.612  41.122 -0.8397 -0.3504 -0.4552
  185SLPC   H6R21271   1.262   0.679  41.081 -0.2867  0.6251  2.0594
  185SLPC   H6S21272   1.183   0.650  41.226 -1.9206  1.3228 -1.0390
  185SLPC   C2721273   1.045   0.642  41.064 -0.2933  0.3938 -0.4364
  185SLPC   H7R21274   1.037   0.752  41.073  2.7623  0.6270  0.6764
  185SLPC   H7S21275   0.966   0.586  41.120  0.1134  2.7535  2.7645
  185SLPC   C2821276   1.033   0.610  40.920 -0.0311  0.8397 -0.8107
  185SLPC   H8R21277   1.057   0.501  40.910  0.3355  0.5665  2.2454
  185SLPC   H8S21278   1.100   0.664  40.850 -0.1789  0.7609 -1.0184
  185SLPC   C2921279   0.884   0.620  40.877 -0.4540  0.4259 -0.0880
  185SLPC   H9R21280   0.825   0.532  40.904 -0.1950 -0.4238 -2.1058
  185SLPC  C21021281   0.827   0.719  40.807 -0.2542 -0.4421  0.8623
  185SLPC  H10R21282   0.720   0.718  40.784 -0.3322 -1.2829  1.2186
  185SLPC  C21121283   0.900   0.838  40.764 -0.1707 -0.0217  0.5602
  185SLPC  H11R21284   0.956   0.819  40.670 -1.5421 -2.0102  0.0731
  185SLPC  H11S21285   0.968   0.880  40.841 -1.6704  1.2218  1.2666
  185SLPC  C21221286   0.827   0.967  40.730  0.5953 -0.0444 -0.5134
  185SLPC  H12R21287   0.756   1.004  40.805 -1.9365  0.3311 -2.9317
  185SLPC  C21321288   0.826   1.058  40.628  0.2309 -0.4499 -0.7734
  185SLPC  H13R21289   0.747   1.135  40.631  0.4811 -0.1013 -2.1852
  185SLPC  C21421290   0.894   1.045  40.494  0.6775 -0.0779 -0.2427
  185SLPC  H14R21291   0.819   1.052  40.413  2.1648  4.0786 -1.5592
  185SLPC  H14S21292   0.949   0.949  40.495  0.3778 -0.2476  0.9462
  185SLPC  C21521293   0.994   1.162  40.459 -0.2666  0.4857 -0.5120
  185SLPC  H15R21294   0.921   1.245  40.448 -1.5239 -0.6121 -0.7234
  185SLPC  H15S21295   1.049   1.144  40.365  0.0496 -2.0669  0.0843
  185SLPC  C21621296   1.101   1.177  40.568  0.3601 -0.1489 -0.2896
  185SLPC  H16R21297   1.125   1.071  40.593 -0.7614 -0.3349  0.0688
  185SLPC  H16S21298   1.050   1.216  40.659  3.1139 -0.3110  1.4213
  185SLPC  C21721299   1.218   1.268  40.533 -0.1136  0.1883 -0.0003
  185SLPC  H17R21300   1.299   1.220  40.474 -1.4408 -0.1004 -1.6365
  185SLPC  H17S21301   1.268   1.289  40.631 -1.2294  1.6835  0.2917
  185SLPC  C21821302   1.181   1.403  40.458 -0.2574  0.0463 -0.2671
  185SLPC  H18R21303   1.096   1.453  40.510 -2.4094 -3.4781 -0.0943
  185SLPC  H18S21304   1.143   1.396  40.354 -0.7404  2.0555 -0.2861
  185SLPC  H18T21305   1.275   1.459  40.441  2.0112 -4.0276 -2.4517
  185SLPC   C3321306   0.993   0.544  41.550  0.0296 -0.2300  0.0264
  185SLPC   H3X21307   1.030   0.595  41.459  0.7111 -2.1093 -0.7821
  185SLPC   H3Y21308   1.013   0.596  41.647  0.4969  0.3657 -0.3796
  185SLPC   C3421309   0.839   0.522  41.530 -0.4594  0.3566  0.7140
  185SLPC   H4X21310   0.800   0.444  41.598  2.4551 -0.6046  1.4019
  185SLPC   H4Y21311   0.830   0.477  41.428 -0.5220 -0.8691  1.2388
  185SLPC   C3521312   0.760   0.656  41.541  0.1869  0.1340 -0.0507
  185SLPC   H5X21313   0.650   0.642  41.540  0.3905 -1.6750 -0.1484
  185SLPC   H5Y21314   0.791   0.725  41.460  0.7664 -0.9490 -0.7810
  185SLPC   C3621315   0.778   0.733  41.669  0.6185  0.5250 -0.5913
  185SLPC   H6X21316   0.728   0.832  41.666  2.2143  1.4082  0.5136
  185SLPC   H6Y21317   0.884   0.750  41.697  1.2915 -0.5169 -2.3748
  185SLPC   C3721318   0.718   0.666  41.795  0.9090  1.0084  0.1120
  185SLPC   H7X21319   0.745   0.559  41.804  0.1732  0.7571 -0.5015
  185SLPC   H7Y21320   0.608   0.683  41.787  0.8813  1.9581 -8.9103
  185SLPC   C3821321   0.757   0.729  41.925 -0.2948 -0.7784 -0.3832
  185SLPC   H8X21322   0.796   0.831  41.906 -0.3135 -0.6593  0.1919
  185SLPC   H8Y21323   0.841   0.667  41.962 -1.0767 -2.2922 -1.0348
  185SLPC   C3921324   0.648   0.745  42.038  0.0616  0.8272 -0.3859
  185SLPC   H9X21325   0.640   0.648  42.092 -0.0898  0.7420 -0.5588
  185SLPC   H9Y21326   0.550   0.773  41.994 -0.5088  0.7636  0.7892
  185SLPC  C31021327   0.679   0.840  42.152 -0.9946 -0.6624  0.1786
  185SLPC  H10X21328   0.786   0.826  42.176 -0.6473  1.1167 -0.2008
  185SLPC  H10Y21329   0.615   0.816  42.240  1.1455 -1.0179  1.7080
  185SLPC  C31121330   0.640   0.988  42.117  0.2612  0.1922 -0.0063
  185SLPC  H11X21331   0.556   0.978  42.045  1.3548 -2.0322 -1.0587
  185SLPC  H11Y21332   0.717   1.051  42.068  1.4029 -0.9785  0.2279
  185SLPC  C31221333   0.612   1.066  42.244 -0.2213  0.1804 -0.4938
  185SLPC  H12X21334   0.704   1.108  42.291 -1.2356  0.1501  1.6519
  185SLPC  H12Y21335   0.571   0.996  42.320 -1.4091  2.3388  0.9697
  185SLPC  C31321336   0.540   1.187  42.211  0.3023  0.3827  0.0624
  185SLPC  H13X21337   0.449   1.174  42.148 -0.4080 -0.8450  1.2782
  185SLPC  H13Y21338   0.604   1.255  42.152 -1.1866  1.7979  0.0097
  185SLPC  C31421339   0.497   1.266  42.336  0.2089  0.1206  0.6156
  185SLPC  H14X21340   0.580   1.312  42.394 -1.5031  2.4852  1.3710
  185SLPC  H14Y21341   0.454   1.193  42.408  1.0104  0.3417  1.3429
  185SLPC  C31521342   0.388   1.372  42.308 -0.1465  0.1590  0.1223
  185SLPC  H15X21343   0.312   1.338  42.235 -0.0561  1.9855 -0.8845
  185SLPC  H15Y21344   0.432   1.466  42.267 -1.7498  0.0977 -1.8966
  185SLPC  C31621345   0.312   1.409  42.444 -0.5445  0.4608 -0.5175
  185SLPC  H16X21346   0.387   1.408  42.526  0.2037  1.0161 -1.1835
  185SLPC  H16Y21347   0.238   1.326  42.453 -1.8888  1.3443 -2.6767
  185SLPC  C31721348   0.234   1.540  42.440 -0.2798 -0.5157 -0.3364
  185SLPC  H17X21349   0.205   1.550  42.546 -1.3258  1.2242 -0.7470
  185SLPC  H17Y21350   0.142   1.526  42.380  0.5463 -1.9662 -1.3622
  185SLPC  C31821351   0.314   1.669  42.400  0.7837 -0.0823 -0.2460
  185SLPC  H18X21352   0.413   1.668  42.451  1.7870 -1.1064 -2.0894
  185SLPC  H18Y21353   0.262   1.765  42.420 -0.1846 -1.0155  2.0938
  185SLPC  H18Z21354   0.340   1.663  42.292  1.9173  2.1699 -0.1475
  186SLPC     N21355   1.881   0.501  48.267 -0.4285 -0.2143 -0.0863
  186SLPC   C1321356   1.914   0.640  48.234 -0.5600 -0.3530  0.2199
  186SLPC  H13A21357   1.913   0.706  48.320  1.7914 -0.9574  0.7644
  186SLPC  H13B21358   2.007   0.650  48.181  1.0765 -2.2516  2.5311
  186SLPC  H13C21359   1.841   0.678  48.163  1.0506 -1.9058 -2.4275
  186SLPC   C1421360   1.841   0.424  48.147  0.0980 -0.5755 -0.2104
  186SLPC  H14A21361   1.815   0.322  48.173  0.9352 -1.1353 -1.4680
  186SLPC  H14B21362   1.752   0.468  48.104  0.6800 -0.1217 -0.9666
  186SLPC  H14C21363   1.919   0.415  48.073 -1.7023  1.0567 -2.4478
  186SLPC   C1521364   1.759   0.503  48.359  0.1863 -0.9187 -0.4612
  186SLPC  H15A21365   1.796   0.532  48.456  0.8455  0.2108 -1.0278
  186SLPC  H15B21366   1.688   0.582  48.346 -0.4670 -1.3497  0.4213
  186SLPC  H15C21367   1.720   0.404  48.379 -1.2817 -0.4624 -0.9679
  186SLPC   C1221368   1.995   0.429  48.338 -0.3809 -0.6179 -0.2157
  186SLPC  H12A21369   2.081   0.444  48.275 -1.0511  1.7997 -0.6643
  186SLPC  H12B21370   1.978   0.324  48.356  1.9571 -0.8192  1.1991
  186SLPC   C1121371   2.052   0.486  48.470 -0.0358  0.3427  0.2003
  186SLPC  H11A21372   2.120   0.405  48.506 -0.9018  0.1267  1.4245
  186SLPC  H11B21373   1.963   0.494  48.537 -1.2751 -2.5249 -0.9380
  186SLPC     P21374   2.180   0.700  48.563  0.3985  0.1449 -0.1982
  186SLPC   O1321375   2.275   0.797  48.512 -0.5738  0.2383  0.3783
  186SLPC   O1421376   2.059   0.759  48.628  0.0278 -0.1418  0.2781
  186SLPC   O1221377   2.120   0.606  48.444 -0.5836  0.3878  0.5520
  186SLPC   O1121378   2.255   0.607  48.666  0.3102  0.0992 -0.1928
  186SLPC    C121379   2.229   0.615  48.815 -0.2404 -0.9969 -0.2326
  186SLPC    HA21380   2.128   0.638  48.854  0.5879  1.8309  0.4832
  186SLPC    HB21381   2.271   0.525  48.865  0.4187  0.3285  1.7385
  186SLPC    C221382   2.312   0.732  48.883 -0.3365 -0.0926 -0.2931
  186SLPC    HS21383   2.301   0.815  48.810  2.4730 -0.0216 -0.7607
  186SLPC   O2121384   2.451   0.692  48.888  0.6744 -0.9824 -0.4142
  186SLPC   C2121385   2.544   0.796  48.871  0.8757  0.8081 -0.0904
  186SLPC   O2221386   2.517   0.914  48.873 -0.7775  0.0289  0.4647
  186SLPC   C2221387   2.681   0.737  48.903 -0.4665 -0.5225 -0.0015
  186SLPC   H2R21388   2.672   0.626  48.891 -2.4948 -0.5195  1.0591
  186SLPC   H2S21389   2.751   0.771  48.824 -0.7796  0.2769  0.0608
  186SLPC    C321390   2.258   0.753  49.027 -0.3081 -0.0147 -0.9151
  186SLPC    HX21391   2.268   0.663  49.090  1.3851 -0.2188 -1.4268
  186SLPC    HY21392   2.149   0.777  49.022 -0.5230 -1.0474 -1.4922
  186SLPC   O3121393   2.338   0.848  49.091 -0.0745  0.2163 -0.7638
  186SLPC   C3121394   2.308   0.970  49.062 -0.0783 -0.2810 -0.6186
  186SLPC   O3221395   2.229   1.007  48.974  0.1997 -0.2758  0.0630
  186SLPC   C3221396   2.371   1.077  49.150 -0.0618  0.8051 -0.2656
  186SLPC   H2X21397   2.406   1.156  49.081  1.3870  0.2722 -0.1744
  186SLPC   H2Y21398   2.463   1.045  49.204  0.2129  3.5737  1.0927
  186SLPC   C2321399   2.738   0.769  49.042  0.0070  0.5070  0.5866
  186SLPC   H3R21400   2.749   0.880  49.036  2.4434  0.2685 -0.7050
  186SLPC   H3S21401   2.842   0.734  49.058 -0.7260 -1.7043  0.7975
  186SLPC   C2421402   2.655   0.715  49.148 -0.4746 -0.0021  0.1939
  186SLPC   H4R21403   2.567   0.661  49.107 -0.8093 -1.5567  2.7460
  186SLPC   H4S21404   2.603   0.801  49.195  2.2066  1.0384  1.4791
  186SLPC   C2521405   2.737   0.646  49.263 -0.0263 -0.6579 -0.9113
  186SLPC   H5R21406   2.770   0.549  49.220 -2.5360 -1.1153 -2.0245
  186SLPC   H5S21407   2.674   0.630  49.353 -1.8233  1.5207 -1.6689
  186SLPC   C2621408   2.859   0.718  49.327  0.2794  0.1592 -0.2447
  186SLPC   H6R21409   2.943   0.737  49.258 -0.0245  3.6518  0.1319
  186SLPC   H6S21410   2.902   0.664  49.414 -0.1663 -0.7985 -0.6009
  186SLPC   C2721411   2.824   0.866  49.377 -0.1636  0.0380  0.9574
  186SLPC   H7R21412   2.721   0.869  49.417  0.1887 -0.3540  1.9105
  186SLPC   H7S21413   2.816   0.932  49.287  0.1600  0.7424  1.4350
  186SLPC   C2821414   2.932   0.925  49.468  0.3323 -0.8820  0.3888
  186SLPC   H8R21415   2.963   0.844  49.538  0.1252 -2.4859 -1.2817
  186SLPC   H8S21416   2.883   1.009  49.521 -2.0295 -1.6255 -0.4439
  186SLPC   C2921417   3.059   0.975  49.405  0.5546 -0.8790  0.2901
  186SLPC   H9R21418   3.059   0.940  49.300  2.9691 -2.9791  0.8840
  186SLPC  C21021419   3.157   1.042  49.458 -0.1133  0.1544  0.5788
  186SLPC  H10R21420   3.238   1.068  49.388 -0.0535 -1.6487 -0.0603
  186SLPC  C21121421   3.173   1.081  49.601  0.3674  0.5056  0.0246
  186SLPC  H11R21422   3.113   1.007  49.658  0.3524 -0.5360 -1.2910
  186SLPC  H11S21423   3.111   1.172  49.617 -1.6557 -0.9189  0.6201
  186SLPC  C21221424   3.311   1.064  49.663 -0.2196 -0.9718 -0.1367
  186SLPC  H12R21425   3.385   1.004  49.608  0.6484 -0.6736  0.7075
  186SLPC  C21321426   3.335   1.096  49.790 -0.6306 -0.2365 -0.8497
  186SLPC  H13R21427   3.437   1.078  49.829 -0.6614 -0.8430 -1.0315
  186SLPC  C21421428   3.243   1.169  49.892 -0.7516 -0.1256 -0.5147
  186SLPC  H14R21429   3.139   1.171  49.854 -0.1329 -0.2261 -2.3080
  186SLPC  H14S21430   3.265   1.276  49.907  0.3215  0.0599 -3.0207
  186SLPC  C21521431   3.249   1.080  50.022  0.9903 -0.5799  0.6693
  186SLPC  H15R21432   3.355   1.079  50.058  0.7229 -0.3340  1.4883
  186SLPC  H15S21433   3.215   0.978  49.996  0.9997 -0.0093 -1.8558
  186SLPC  C21621434   3.169   1.130  50.144 -0.7002 -0.2543  0.2196
  186SLPC  H16R21435   3.214   1.229  50.165  1.3389 -0.2825 -3.1898
  186SLPC  H16S21436   3.198   1.069  50.232 -1.8274  4.1633  4.0371
  186SLPC  C21721437   3.021   1.137  50.130 -0.1282  0.8764 -0.1769
  186SLPC  H17R21438   2.977   1.038  50.103 -1.5255  1.0188  1.4498
  186SLPC  H17S21439   3.005   1.205  50.044 -2.1633 -1.5639 -1.8816
  186SLPC  C21821440   2.949   1.181  50.255  0.6863 -0.2469 -0.0317
  186SLPC  H18R21441   2.843   1.213  50.248 -0.1974 -1.4498  4.4438
  186SLPC  H18S21442   2.997   1.262  50.314  0.0571 -0.7408  1.2188
  186SLPC  H18T21443   2.923   1.094  50.319 -2.2829  0.4668 -0.1262
  186SLPC   C3321444   2.283   1.141  49.245  0.1636 -0.1620 -0.2022
  186SLPC   H3X21445   2.252   1.085  49.336 -1.5904 -2.2744 -1.9608
  186SLPC   H3Y21446   2.183   1.168  49.205  0.0891  0.3914  0.3326
  186SLPC   C3421447   2.349   1.274  49.289 -0.2357  0.2719  0.1342
  186SLPC   H4X21448   2.292   1.322  49.371 -2.2867 -0.4918 -0.7608
  186SLPC   H4Y21449   2.347   1.343  49.202 -0.2996 -0.2243 -0.2605
  186SLPC   C3521450   2.498   1.261  49.340  0.9190 -0.1610  0.0784
  186SLPC   H5X21451   2.515   1.365  49.376 -0.0241 -0.4208  1.3232
  186SLPC   H5Y21452   2.572   1.240  49.260 -0.3480 -2.1574 -0.6544
  186SLPC   C3621453   2.522   1.160  49.465  0.7278  0.3501  0.4876
  186SLPC   H6X21454   2.590   1.083  49.423 -1.4244 -1.4574  0.0918
  186SLPC   H6Y21455   2.424   1.115  49.492 -0.6132  0.3095 -3.7050
  186SLPC   C3721456   2.570   1.242  49.584  0.1432 -0.4070  0.9146
  186SLPC   H7X21457   2.492   1.314  49.614 -1.8286 -1.8684 -0.4070
  186SLPC   H7Y21458   2.665   1.290  49.552 -0.1570 -0.7464 -0.5824
  186SLPC   C3821459   2.606   1.146  49.691 -0.4275  0.4998  0.0736
  186SLPC   H8X21460   2.713   1.120  49.674 -0.2164  0.5735  1.2402
  186SLPC   H8Y21461   2.547   1.052  49.697  2.5076 -1.5821 -1.2895
  186SLPC   C3921462   2.602   1.219  49.821 -0.2907 -0.0913 -0.7088
  186SLPC   H9X21463   2.592   1.140  49.899  1.9783 -0.3255 -0.5990
  186SLPC   H9Y21464   2.511   1.283  49.819 -0.2719 -0.0792 -1.2233
  186SLPC  C31021465   2.732   1.298  49.856  0.2965 -0.1419  0.3920
  186SLPC  H10X21466   2.746   1.378  49.781  0.7877 -0.6937 -0.1107
  186SLPC  H10Y21467   2.819   1.231  49.839  0.8940  0.8119 -0.4377
  186SLPC  C31121468   2.718   1.342  50.005  0.1420 -0.8708 -0.2982
  186SLPC  H11X21469   2.807   1.394  50.046 -1.2204 -1.8193  4.3828
  186SLPC  H11Y21470   2.696   1.256  50.072 -2.2690 -0.3386 -0.3228
  186SLPC  C31221471   2.596   1.449  50.030  0.0871 -0.9593 -0.2130
  186SLPC  H12X21472   2.580   1.450  50.139  1.0236 -0.3232 -0.0713
  186SLPC  H12Y21473   2.501   1.422  49.977 -0.2921  1.1334 -0.7051
  186SLPC  C31321474   2.630   1.586  49.981  0.3749  0.7986 -0.9919
  186SLPC  H13X21475   2.688   1.585  49.885 -2.0863 -1.0576 -2.5888
  186SLPC  H13Y21476   2.686   1.632  50.065 -0.1200  0.0413 -0.2253
  186SLPC  C31421477   2.509   1.675  49.949  0.0424 -0.6680 -0.2991
  186SLPC  H14X21478   2.467   1.703  50.048  0.9805  1.8233 -0.5415
  186SLPC  H14Y21479   2.431   1.615  49.897 -0.7791 -1.2168  1.4864
  186SLPC  C31521480   2.537   1.807  49.884  0.7484 -0.5475 -0.3994
  186SLPC  H15X21481   2.438   1.852  49.860  0.1777 -2.1290 -1.1606
  186SLPC  H15Y21482   2.577   1.781  49.783 -3.5296  0.4577 -2.5829
  186SLPC  C31621483   2.625   1.900  49.955 -0.4366  0.1075 -0.1125
  186SLPC  H16X21484   2.661   1.982  49.890 -0.0559 -1.2697 -1.7364
  186SLPC  H16Y21485   2.714   1.846  49.995  1.3072  0.7886 -2.8068
  186SLPC  C31721486   2.557   1.976  50.078  0.4053 -0.1425  0.1774
  186SLPC  H17X21487   2.473   1.917  50.118  1.6733  0.2593  3.7832
  186SLPC  H17Y21488   2.518   2.074  50.042 -2.4346  0.3248  4.0056
  186SLPC  C31821489   2.664   2.000  50.183 -0.1778 -0.8356 -0.4061
  186SLPC  H18X21490   2.744   2.048  50.123  0.6523  0.0161  1.3005
  186SLPC  H18Y21491   2.686   1.907  50.240 -0.1831 -0.1392  0.7852
  186SLPC  H18Z21492   2.627   2.073  50.260 -0.6266 -2.7248  1.2588
  187SLPC     N21493   2.568   1.553  47.553  0.0445 -0.5202  0.7463
  187SLPC   C1321494   2.561   1.413  47.483 -0.9594  0.1842 -0.1627
  187SLPC  H13A21495   2.464   1.385  47.445 -0.7768 -2.7113  1.2343
  187SLPC  H13B21496   2.641   1.397  47.413 -0.9020 -2.8885  0.4774
  187SLPC  H13C21497   2.599   1.335  47.547  2.3313 -0.0381 -2.1696
  187SLPC   C1421498   2.678   1.558  47.651 -0.3257 -0.9007 -0.0037
  187SLPC  H14A21499   2.772   1.535  47.603 -0.3777  0.1369 -0.6256
  187SLPC  H14B21500   2.696   1.659  47.683 -1.4939 -0.8848  0.6569
  187SLPC  H14C21501   2.668   1.498  47.740  4.0109  0.1474  1.4439
  187SLPC   C1521502   2.434   1.568  47.623  0.0534 -0.4678 -0.4085
  187SLPC  H15A21503   2.436   1.507  47.713  0.2129  0.6036  0.3454
  187SLPC  H15B21504   2.412   1.669  47.655  2.1336 -0.5211  1.4422
  187SLPC  H15C21505   2.359   1.536  47.553 -0.5534  0.6079 -0.2765
  187SLPC   C1221506   2.595   1.660  47.441  0.0293  0.4484  0.0498
  187SLPC  H12A21507   2.518   1.652  47.366 -0.0479 -0.7108  0.2271
  187SLPC  H12B21508   2.698   1.654  47.408  1.1741  1.4606  3.0917
  187SLPC   C1121509   2.561   1.800  47.487 -0.2741  0.9061  0.4955
  187SLPC  H11A21510   2.569   1.810  47.598 -0.2624  2.2649  0.3862
  187SLPC  H11B21511   2.453   1.814  47.470 -0.6155 -0.9766  0.8995
  187SLPC     P21512   2.653   1.900  47.252 -0.0441 -0.1433 -0.5184
  187SLPC   O1321513   2.569   1.790  47.203 -0.5944 -0.1150 -0.1504
  187SLPC   O1421514   2.618   2.038  47.199  0.2506  0.4740  0.2588
  187SLPC   O1221515   2.640   1.897  47.410 -0.3663  0.3185 -0.5976
  187SLPC   O1121516   2.804   1.865  47.211  0.2694  0.6281  0.0426
  187SLPC    C121517   2.916   1.947  47.239  0.1308  1.1561 -0.0229
  187SLPC    HA21518   2.906   2.000  47.336  0.6433  1.2311 -0.0085
  187SLPC    HB21519   3.007   1.885  47.255 -0.9044  0.0446  1.9897
  187SLPC    C221520   2.943   2.054  47.136 -0.0618  0.1012 -0.2102
  187SLPC    HS21521   2.863   2.131  47.134 -1.0648 -0.8908 -2.3871
  187SLPC   O2121522   2.965   1.988  47.007  0.8988  0.7767  0.5471
  187SLPC   C2121523   2.919   2.070  46.918  0.5839  0.3224  0.4042
  187SLPC   O2221524   2.880   2.186  46.929 -0.1997  0.5163 -0.3238
  187SLPC   C2221525   2.930   1.992  46.790  0.2011  0.1409  1.2149
  187SLPC   H2R21526   3.037   1.969  46.774 -0.6120 -2.3520 -1.5705
  187SLPC   H2S21527   2.870   1.898  46.789  0.2593  0.1071  0.7841
  187SLPC    C321528   3.081   2.120  47.173  0.0394  0.3579  0.9851
  187SLPC    HX21529   3.107   2.204  47.106 -3.5644  0.7045 -0.2358
  187SLPC    HY21530   3.166   2.048  47.168  0.1173  0.5264 -0.7144
  187SLPC   O3121531   3.073   2.172  47.306 -0.7433  0.2569  0.4515
  187SLPC   C3121532   3.185   2.176  47.379  1.0064 -0.9414 -0.5561
  187SLPC   O3221533   3.294   2.144  47.344  0.4213 -0.1305 -0.3286
  187SLPC   C3221534   3.152   2.271  47.500 -0.7752  0.3247 -0.0949
  187SLPC   H2X21535   3.159   2.207  47.590 -1.6697  0.3409 -0.0046
  187SLPC   H2Y21536   3.051   2.317  47.487 -0.6595  1.0762  1.4361
  187SLPC   C2321537   2.877   2.078  46.669 -0.1237  0.4026 -0.8025
  187SLPC   H3R21538   2.942   2.167  46.663  1.0677 -0.3085  0.6675
  187SLPC   H3S21539   2.769   2.095  46.691 -0.1329 -0.5197 -0.0382
  187SLPC   C2421540   2.885   2.005  46.533  0.0466 -0.3889  0.1476
  187SLPC   H4R21541   2.994   1.994  46.517 -0.1659 -0.1017 -1.7947
  187SLPC   H4S21542   2.857   2.072  46.449  0.2700 -0.1924  0.2272
  187SLPC   C2521543   2.807   1.874  46.524  0.3335 -0.0963  0.5513
  187SLPC   H5R21544   2.698   1.896  46.523 -0.6849 -4.1532 -1.5521
  187SLPC   H5S21545   2.840   1.813  46.610  2.4978 -0.6575 -0.6227
  187SLPC   C2621546   2.835   1.807  46.389  0.3883  0.5595 -0.2918
  187SLPC   H6R21547   2.942   1.790  46.364 -0.3458 -2.1321 -2.0049
  187SLPC   H6S21548   2.793   1.860  46.301 -1.1180 -0.7911 -0.4175
  187SLPC   C2721549   2.769   1.671  46.377 -0.0296 -0.0241 -0.0747
  187SLPC   H7R21550   2.659   1.687  46.373 -0.0832 -0.0220  1.0173
  187SLPC   H7S21551   2.785   1.597  46.458 -0.2840 -4.5746 -3.7977
  187SLPC   C2821552   2.827   1.584  46.252 -0.0660 -0.2294 -0.6545
  187SLPC   H8R21553   2.767   1.495  46.225  0.8061 -0.4558 -1.9196
  187SLPC   H8S21554   2.930   1.545  46.266  1.2593  2.9533 -0.7092
  187SLPC   C2921555   2.840   1.669  46.124 -0.5744 -0.3741  0.7808
  187SLPC   H9R21556   2.914   1.749  46.134  0.0751 -0.7631 -0.6661
  187SLPC  C21021557   2.764   1.671  46.012 -0.1862  0.4827  0.4983
  187SLPC  H10R21558   2.780   1.734  45.924 -1.6130 -0.7289 -0.6777
  187SLPC  C21121559   2.649   1.574  45.981 -0.2783 -0.3381 -0.1839
  187SLPC  H11R21560   2.608   1.561  46.084  1.0685  1.8019  0.6856
  187SLPC  H11S21561   2.695   1.480  45.942  0.1205  0.3138 -1.3348
  187SLPC  C21221562   2.556   1.637  45.889  0.2392  0.0986  0.8731
  187SLPC  H12R21563   2.505   1.724  45.933 -2.6006 -0.0156 -1.8255
  187SLPC  C21321564   2.530   1.615  45.755 -0.7637 -0.6611  0.1839
  187SLPC  H13R21565   2.452   1.667  45.698  0.9443  0.6791 -1.0593
  187SLPC  C21421566   2.588   1.507  45.671 -1.2931  0.4145  0.6265
  187SLPC  H14R21567   2.698   1.511  45.687 -1.2679  0.4182  0.4491
  187SLPC  H14S21568   2.580   1.529  45.563 -0.6697  1.6316  0.8020
  187SLPC  C21521569   2.535   1.365  45.692 -0.9844 -0.0232  0.0943
  187SLPC  H15R21570   2.539   1.347  45.802  0.4485  1.1612  0.2675
  187SLPC  H15S21571   2.586   1.286  45.634  1.4145  0.3161  1.6140
  187SLPC  C21621572   2.389   1.347  45.649  0.5089 -0.5866  0.0910
  187SLPC  H16R21573   2.379   1.376  45.542 -2.0585 -0.5194  0.2839
  187SLPC  H16S21574   2.316   1.404  45.710  1.5029 -1.7213  2.4335
  187SLPC  C21721575   2.348   1.199  45.650 -1.0592  0.6010 -0.1299
  187SLPC  H17R21576   2.362   1.157  45.752  0.0879  0.0864 -0.4855
  187SLPC  H17S21577   2.412   1.146  45.577 -0.5987 -0.0988  0.7639
  187SLPC  C21821578   2.216   1.157  45.586  0.5035 -0.1127 -0.7242
  187SLPC  H18R21579   2.132   1.211  45.635 -1.2180 -2.0994 -1.2911
  187SLPC  H18S21580   2.207   1.048  45.606 -2.2252  0.2504  0.5344
  187SLPC  H18T21581   2.215   1.176  45.476 -2.5548 -0.1464 -0.8100
  187SLPC   C3321582   3.255   2.382  47.514 -0.5430 -1.0233  0.0139
  187SLPC   H3X21583   3.248   2.453  47.428  0.1958  0.2136  0.9324
  187SLPC   H3Y21584   3.361   2.348  47.512 -0.4990 -1.1213  2.0589
  187SLPC   C3421585   3.242   2.472  47.646  0.1847  0.8712 -0.1656
  187SLPC   H4X21586   3.328   2.543  47.645  1.4307 -0.6097 -0.9199
  187SLPC   H4Y21587   3.244   2.416  47.742 -1.3475 -0.7613 -1.0318
  187SLPC   C3521588   3.117   2.574  47.643 -0.7861 -0.3201  0.2239
  187SLPC   H5X21589   3.034   2.501  47.661 -1.0219 -0.9378 -2.8915
  187SLPC   H5Y21590   3.103   2.625  47.546 -3.6357 -3.4703 -1.2499
  187SLPC   C3621591   3.128   2.684  47.754 -0.2245 -0.1227 -0.7788
  187SLPC   H6X21592   3.226   2.731  47.734 -1.8858  3.5158 -1.3029
  187SLPC   H6Y21593   3.130   2.639  47.856 -0.6117  1.9815  0.2079
  187SLPC   C3721594   3.034   2.794  47.760  0.9859 -0.7463  0.1792
  187SLPC   H7X21595   3.023   2.854  47.667  3.0851  1.1985  1.0824
  187SLPC   H7Y21596   2.943   2.753  47.810  1.6373 -1.3181  0.9118
  187SLPC   C3821597   3.072   2.908  47.848 -0.5954  0.7398 -0.3955
  187SLPC   H8X21598   3.000   2.991  47.828  0.1357  0.7598 -3.4917
  187SLPC   H8Y21599   3.175   2.926  47.810 -1.0353 -2.6410 -3.7667
  187SLPC   C3921600   3.078   2.871  47.997  1.0803 -0.2217 -0.1743
  187SLPC   H9X21601   2.996   2.798  48.015 -1.8189  2.3893 -1.8571
  187SLPC   H9Y21602   3.039   2.959  48.052 -0.1189 -1.1118  0.4517
  187SLPC  C31021603   3.220   2.815  48.050  0.2770 -0.5671  0.8936
  187SLPC  H10X21604   3.305   2.867  48.000  1.8898 -0.3776  3.5983
  187SLPC  H10Y21605   3.234   2.708  48.024 -2.4934 -0.9853  0.8508
  187SLPC  C31121606   3.226   2.821  48.201 -0.2447 -0.4897 -0.2969
  187SLPC  H11X21607   3.246   2.927  48.226 -1.1331 -0.8992  2.4953
  187SLPC  H11Y21608   3.309   2.761  48.246 -0.3200  0.2731  0.9027
  187SLPC  C31221609   3.099   2.772  48.278  0.3255  0.1363  0.0481
  187SLPC  H12X21610   3.081   2.665  48.254  0.9870 -0.0184  0.2220
  187SLPC  H12Y21611   3.011   2.831  48.244 -0.0305 -0.3270  0.1568
  187SLPC  C31321612   3.097   2.795  48.430 -0.1531  0.0462  0.2417
  187SLPC  H13X21613   3.102   2.904  48.447  1.5430  0.1428 -0.6687
  187SLPC  H13Y21614   3.188   2.757  48.481  0.3572  0.6350 -0.2080
  187SLPC  C31421615   2.977   2.724  48.508 -0.5436  0.2393 -0.1660
  187SLPC  H14X21616   2.958   2.631  48.450  1.5830  1.1711 -2.5242
  187SLPC  H14Y21617   2.892   2.789  48.479  0.4371  1.1718 -1.0540
  187SLPC  C31521618   2.975   2.710  48.659 -0.4673 -0.0597 -0.2008
  187SLPC  H15X21619   3.037   2.627  48.699 -0.3400 -0.2004 -0.6842
  187SLPC  H15Y21620   2.875   2.689  48.702 -0.2471  0.3896  0.5549
  187SLPC  C31621621   3.018   2.835  48.739 -0.3930 -0.5113  0.0515
  187SLPC  H16X21622   2.981   2.918  48.676  3.8200  1.1406 -0.6111
  187SLPC  H16Y21623   3.129   2.840  48.740 -0.3540 -0.0942 -1.9418
  187SLPC  C31721624   2.979   2.825  48.883 -0.1337  0.4917  0.2576
  187SLPC  H17X21625   3.033   2.734  48.918  1.6947  1.3376 -0.2275
  187SLPC  H17Y21626   2.870   2.804  48.885 -0.1735  0.5483 -0.9141
  187SLPC  C31821627   3.004   2.950  48.962  0.8003  0.4144 -0.2276
  187SLPC  H18X21628   3.109   2.977  48.940  0.9469 -0.8843 -1.2418
  187SLPC  H18Y21629   2.989   2.927  49.069 -2.8736  1.0947 -0.4506
  187SLPC  H18Z21630   2.941   3.040  48.947  0.4786  0.7260  2.5282
  188SLPC     N21631   2.216   0.333  38.517 -0.0875 -0.2437 -0.4968
  188SLPC   C1321632   2.092   0.396  38.458 -0.5761 -0.0621 -0.2728
  188SLPC  H13A21633   2.078   0.368  38.355 -0.8979 -0.4106 -0.1334
  188SLPC  H13B21634   2.006   0.376  38.519  1.3781 -0.9259  2.4058
  188SLPC  H13C21635   2.106   0.503  38.457 -0.7077 -0.0354 -1.8575
  188SLPC   C1421636   2.188   0.194  38.554 -0.1489 -0.0357 -0.1759
  188SLPC  H14A21637   2.274   0.151  38.605  2.3414  0.4233 -3.5832
  188SLPC  H14B21638   2.100   0.186  38.615 -0.9376 -0.0540 -1.2835
  188SLPC  H14C21639   2.177   0.136  38.464  1.4225  2.9830 -2.5085
  188SLPC   C1521640   2.238   0.398  38.649  0.3361  0.6292 -0.8403
  188SLPC  H15A21641   2.149   0.406  38.710  2.2154  2.3344  1.9230
  188SLPC  H15B21642   2.315   0.349  38.708 -0.2690  0.8518  0.1699
  188SLPC  H15C21643   2.266   0.501  38.633 -0.7330  1.0894  0.1235
  188SLPC   C1221644   2.345   0.341  38.435 -0.5011 -0.3132 -0.0100
  188SLPC  H12A21645   2.364   0.447  38.422  0.0488 -0.4015  0.0361
  188SLPC  H12B21646   2.325   0.300  38.337  4.4426 -1.0860 -0.9639
  188SLPC   C1121647   2.469   0.268  38.492 -0.2223  0.1459  0.5825
  188SLPC  H11A21648   2.441   0.161  38.505  1.5058 -0.3106  0.8825
  188SLPC  H11B21649   2.502   0.302  38.593 -2.6623  1.0080  1.1385
  188SLPC     P21650   2.640   0.426  38.380  0.5512  0.4817  0.5847
  188SLPC   O1321651   2.745   0.421  38.279 -0.1768  0.7407 -0.1830
  188SLPC   O1421652   2.536   0.533  38.365  0.2068  0.3799 -0.0581
  188SLPC   O1221653   2.573   0.279  38.393 -0.1311 -0.6984  0.3640
  188SLPC   O1121654   2.695   0.432  38.525 -0.3018 -0.4411  0.0276
  188SLPC    C121655   2.810   0.350  38.563 -0.2650  0.5368 -0.8985
  188SLPC    HA21656   2.801   0.241  38.545  0.3535  0.1281  1.0284
  188SLPC    HB21657   2.905   0.387  38.518 -0.6034  0.4107 -1.7338
  188SLPC    C221658   2.845   0.379  38.715 -0.4866  0.2311  0.0603
  188SLPC    HS21659   2.949   0.346  38.739 -0.6702 -1.8120 -1.6783
  188SLPC   O2121660   2.757   0.311  38.808  0.0266  0.4847 -0.8708
  188SLPC   C2121661   2.764   0.181  38.805 -0.7146 -0.6531  0.6608
  188SLPC   O2221662   2.862   0.116  38.769  0.4883 -0.2846  0.6376
  188SLPC   C2221663   2.639   0.134  38.879 -0.3848 -0.0257 -0.3492
  188SLPC   H2R21664   2.552   0.136  38.811  0.3860  0.1701 -1.3524
  188SLPC   H2S21665   2.666   0.032  38.913 -0.4000  0.0846  0.0035
  188SLPC    C321666   2.845   0.530  38.742  0.0485  0.6983  0.1102
  188SLPC    HX21667   2.748   0.575  38.712 -0.0580 -1.4440 -3.2420
  188SLPC    HY21668   2.917   0.575  38.671  0.6698  0.9609  0.8819
  188SLPC   O3121669   2.893   0.559  38.876 -0.3322 -0.4493 -0.3383
  188SLPC   C3121670   2.801   0.581  38.972  0.0223 -0.2867  0.4995
  188SLPC   O3221671   2.681   0.576  38.951 -0.4657  0.2631 -1.0597
  188SLPC   C3221672   2.883   0.591  39.107  0.2895 -0.4091 -1.1198
  188SLPC   H2X21673   2.807   0.593  39.189 -1.5598  0.2574 -2.7679
  188SLPC   H2Y21674   2.935   0.689  39.102 -0.0543 -0.2145 -0.9990
  188SLPC   C2321675   2.604   0.216  39.004  0.0436  0.0584 -0.4289
  188SLPC   H3R21676   2.496   0.197  39.020  0.5122 -1.9164  0.6575
  188SLPC   H3S21677   2.619   0.325  38.987  1.7034  0.0232  0.6348
  188SLPC   C2421678   2.679   0.172  39.139 -0.2150  0.6332 -0.6949
  188SLPC   H4R21679   2.786   0.201  39.135 -0.4802  1.5345 -2.0868
  188SLPC   H4S21680   2.689   0.061  39.141  0.8478  0.7093 -1.1249
  188SLPC   C2521681   2.630   0.226  39.269  0.3412 -0.6135 -0.2643
  188SLPC   H5R21682   2.521   0.206  39.279  0.5006 -2.1743 -1.1901
  188SLPC   H5S21683   2.638   0.335  39.287 -1.6524 -0.3704 -0.6864
  188SLPC   C2621684   2.699   0.147  39.388  0.3003 -0.3669 -0.0295
  188SLPC   H6R21685   2.810   0.150  39.379  0.4296 -1.3552  0.9552
  188SLPC   H6S21686   2.669   0.041  39.376  3.4535 -1.4212  0.3389
  188SLPC   C2721687   2.651   0.186  39.528  0.0433 -0.3010 -0.4747
  188SLPC   H7R21688   2.544   0.216  39.525  0.0779  0.0445  0.9875
  188SLPC   H7S21689   2.708   0.268  39.576  0.1101  0.8045 -2.3601
  188SLPC   C2821690   2.659   0.069  39.630 -0.3010 -0.1743 -0.5785
  188SLPC   H8R21691   2.762   0.029  39.636 -0.5571 -0.6305  2.0842
  188SLPC   H8S21692   2.593  -0.018  39.607  1.0962 -1.1291 -1.0870
  188SLPC   C2921693   2.623   0.118  39.771  0.8639 -0.1065  0.6697
  188SLPC   H9R21694   2.516   0.140  39.785  0.5407 -1.1124 -0.0943
  188SLPC  C21021695   2.707   0.150  39.868  0.2447 -0.0752  0.2716
  188SLPC  H10R21696   2.668   0.179  39.967  0.4736 -0.6892  0.5423
  188SLPC  C21121697   2.857   0.159  39.851  0.5457  0.0800 -0.0731
  188SLPC  H11R21698   2.883   0.239  39.778  2.8858  0.0387  0.6227
  188SLPC  H11S21699   2.896   0.077  39.787 -0.3899 -1.1912  0.9445
  188SLPC  C21221700   2.931   0.164  39.984 -0.1697 -0.2438 -0.6262
  188SLPC  H12R21701   2.961   0.065  40.022  1.6643  1.2540  2.2071
  188SLPC  C21321702   2.946   0.267  40.072  1.0961 -0.5330  0.3275
  188SLPC  H13R21703   2.973   0.247  40.177  1.5221  1.4997  0.6567
  188SLPC  C21421704   2.896   0.409  40.052  0.0505 -0.0412 -0.1030
  188SLPC  H14R21705   2.808   0.425  40.118  0.4794 -2.6188  1.2464
  188SLPC  H14S21706   2.861   0.417  39.947  0.3874 -0.9428 -0.2951
  188SLPC  C21521707   2.993   0.526  40.084 -0.3385  0.0875  0.9381
  188SLPC  H15R21708   3.023   0.509  40.189 -1.2657  0.2695  1.2448
  188SLPC  H15S21709   2.950   0.628  40.076  0.7227  0.5468  1.0180
  188SLPC  C21621710   3.131   0.526  40.008 -0.4584 -0.0790  0.0342
  188SLPC  H16R21711   3.170   0.423  39.993 -1.8260 -0.5231 -0.6724
  188SLPC  H16S21712   3.197   0.587  40.072 -0.5065  0.4801 -0.4382
  188SLPC  C21721713   3.149   0.592  39.870  0.4062  0.0848 -0.5304
  188SLPC  H17R21714   3.252   0.579  39.830 -0.1307 -0.3265 -1.8284
  188SLPC  H17S21715   3.129   0.699  39.892 -1.9874 -0.8946  2.7253
  188SLPC  C21821716   3.052   0.532  39.769  0.2012 -0.0717 -0.8436
  188SLPC  H18R21717   2.949   0.563  39.793  0.4574  0.5245 -0.4952
  188SLPC  H18S21718   3.046   0.421  39.770  3.5542 -0.3875 -1.7696
  188SLPC  H18T21719   3.093   0.570  39.672  0.3029 -0.1070 -0.8150
  188SLPC   C3321720   2.974   0.470  39.148 -0.2841  0.7380  0.0628
  188SLPC   H3X21721   3.066   0.470  39.084  0.0054  1.0951  0.4693
  188SLPC   H3Y21722   2.922   0.373  39.143 -0.4113  0.7740  0.7121
  188SLPC   C3421723   3.028   0.501  39.289 -0.2387  0.4115 -0.3238
  188SLPC   H4X21724   2.934   0.509  39.348  0.3371 -1.5406  0.9707
  188SLPC   H4Y21725   3.092   0.591  39.297 -0.6235  0.5356  2.8438
  188SLPC   C3521726   3.099   0.386  39.371 -0.0556  0.4636  0.5665
  188SLPC   H5X21727   3.049   0.288  39.356 -2.1036  1.0103  3.1148
  188SLPC   H5Y21728   3.091   0.409  39.480  0.3631 -1.1925  0.9715
  188SLPC   C3621729   3.248   0.382  39.334  0.1311  0.4593  0.0441
  188SLPC   H6X21730   3.294   0.482  39.350  1.0064  0.2399 -0.9811
  188SLPC   H6Y21731   3.257   0.341  39.231 -0.1413 -1.9731  0.9254
  188SLPC   C3721732   3.336   0.279  39.419 -0.0819  0.0596  0.5350
  188SLPC   H7X21733   3.438   0.291  39.375 -0.2253 -0.9499 -0.1006
  188SLPC   H7Y21734   3.304   0.174  39.400  2.0602 -0.5151 -0.2272
  188SLPC   C3821735   3.339   0.302  39.564  0.0466 -0.3137  0.2076
  188SLPC   H8X21736   3.250   0.258  39.615  0.0223 -2.7581 -1.7191
  188SLPC   H8Y21737   3.326   0.412  39.573  2.1422 -0.0274  0.3106
  188SLPC   C3921738   3.458   0.243  39.632 -0.2400 -0.0300 -0.4176
  188SLPC   H9X21739   3.547   0.285  39.581  0.3753  0.8596  1.3030
  188SLPC   H9Y21740   3.451   0.134  39.611  0.1400 -0.3139  0.8857
  188SLPC  C31021741   3.467   0.268  39.784 -0.1225  0.3657  0.0518
  188SLPC  H10X21742   3.430   0.174  39.827  0.3945 -1.2628 -2.7772
  188SLPC  H10Y21743   3.389   0.338  39.819 -2.0841 -2.3221  1.3620
  188SLPC  C31121744   3.606   0.297  39.842 -0.5523  0.9045  0.4696
  188SLPC  H11X21745   3.642   0.399  39.816  3.0794 -0.7383 -1.7958
  188SLPC  H11Y21746   3.678   0.231  39.789 -0.0808  1.0251  0.9458
  188SLPC  C31221747   3.618   0.279  39.994  0.5531  0.6437 -0.0818
  188SLPC  H12X21748   3.619   0.170  40.018  2.3707  0.0902 -2.3381
  188SLPC  H12Y21749   3.537   0.334  40.048  1.0595  0.7730  0.5630
  188SLPC  C31321750   3.745   0.331  40.066 -0.2095  1.2453  0.6201
  188SLPC  H13X21751   3.835   0.300  40.008 -1.2286 -0.3750 -0.1679
  188SLPC  H13Y21752   3.758   0.282  40.165  1.2081  1.2094  0.4417
  188SLPC  C31421753   3.750   0.484  40.090 -0.4614  0.4353 -0.5486
  188SLPC  H14X21754   3.653   0.503  40.140 -0.0980 -0.1687  0.4168
  188SLPC  H14Y21755   3.747   0.544  39.996  1.4926  0.1156 -0.8647
  188SLPC  C31521756   3.869   0.533  40.170  1.0828 -0.4214 -0.0125
  188SLPC  H15X21757   3.857   0.643  40.183 -0.0274 -0.8137  3.0488
  188SLPC  H15Y21758   3.962   0.513  40.113  0.3472 -0.9062 -1.0747
  188SLPC  C31621759   3.882   0.473  40.311 -0.3295  0.8360  0.3717
  188SLPC  H16X21760   3.981   0.509  40.346  0.3883  0.5052 -1.2146
  188SLPC  H16Y21761   3.885   0.362  40.304 -1.2231  0.7426  1.1262
  188SLPC  C31721762   3.779   0.509  40.422 -0.2254 -0.2385 -0.8358
  188SLPC  H17X21763   3.795   0.448  40.514 -0.6228 -0.5113 -0.9414
  188SLPC  H17Y21764   3.681   0.486  40.375  0.5467 -1.1665 -2.0484
  188SLPC  C31821765   3.794   0.660  40.455  0.6142 -0.0736 -0.4233
  188SLPC  H18X21766   3.881   0.682  40.520  0.5551 -0.9668 -0.0218
  188SLPC  H18Y21767   3.702   0.682  40.514  1.2890 -0.0589  0.6650
  188SLPC  H18Z21768   3.786   0.716  40.360 -0.1524 -1.7486 -1.3882
  189SLPC     N21769   1.905   0.953  37.871  0.6268 -0.0428  0.3121
  189SLPC   C1321770   1.869   1.087  37.936 -0.3454  0.5269  0.0824
  189SLPC  H13A21771   1.904   1.171  37.878  1.5225 -0.8745 -0.9322
  189SLPC  H13B21772   1.763   1.090  37.954 -0.5315 -3.0804  0.3942
  189SLPC  H13C21773   1.922   1.091  38.030 -0.0517 -1.1976  0.0267
  189SLPC   C1421774   2.047   0.937  37.894  0.0481  0.9085 -0.6683
  189SLPC  H14A21775   2.098   1.010  37.831  1.6938  1.7009  1.4659
  189SLPC  H14B21776   2.072   0.957  37.997 -0.1854 -0.1479 -0.4036
  189SLPC  H14C21777   2.088   0.840  37.871  0.3842  0.3225  2.0664
  189SLPC   C1521778   1.870   0.948  37.727 -0.4066  0.1998  0.2452
  189SLPC  H15A21779   1.765   0.959  37.702 -0.2792 -0.0707 -0.4028
  189SLPC  H15B21780   1.933   1.020  37.678  2.5020 -2.2689  0.0906
  189SLPC  H15C21781   1.905   0.863  37.671 -1.0455  0.9690 -1.3899
  189SLPC   C1221782   1.825   0.842  37.942 -0.0904 -0.3634 -0.3760
  189SLPC  H12A21783   1.723   0.844  37.906 -0.3148 -1.7565  0.1518
  189SLPC  H12B21784   1.815   0.862  38.047 -1.5326 -0.6511 -0.4417
  189SLPC   C1121785   1.886   0.697  37.928 -0.0411  0.6316  0.0136
  189SLPC  H11A21786   1.914   0.666  37.825  0.3602 -0.7077  0.4988
  189SLPC  H11B21787   1.811   0.622  37.963  2.1523 -2.3975 -1.3030
  189SLPC     P21788   1.996   0.683  38.167 -0.4897 -0.0791 -0.2270
  189SLPC   O1321789   1.940   0.549  38.210  0.3917  0.1063  0.2910
  189SLPC   O1421790   2.126   0.718  38.225 -0.6755  0.1976  0.2069
  189SLPC   O1221791   2.005   0.682  38.009 -0.1474 -0.3683  0.4483
  189SLPC   O1121792   1.886   0.793  38.200 -0.5147  0.3265  0.1970
  189SLPC    C121793   1.897   0.912  38.274 -0.1327 -0.5774 -0.3116
  189SLPC    HA21794   1.985   0.969  38.238 -0.6831  0.2036 -0.4286
  189SLPC    HB21795   1.810   0.980  38.261  1.6909  1.7971 -0.9107
  189SLPC    C221796   1.924   0.878  38.426  0.1503  0.0532 -0.5399
  189SLPC    HS21797   2.019   0.822  38.416 -0.0683  0.0693 -3.5682
  189SLPC   O2121798   1.810   0.806  38.477 -0.0847  0.0027  0.4225
  189SLPC   C2121799   1.841   0.687  38.529 -0.5626  0.5641  1.2960
  189SLPC   O2221800   1.952   0.637  38.545  0.0467  0.0572 -0.2179
  189SLPC   C2221801   1.707   0.620  38.549  0.2278  0.0330 -0.4817
  189SLPC   H2R21802   1.635   0.697  38.583  0.7147  0.7747 -1.0984
  189SLPC   H2S21803   1.671   0.603  38.445 -1.3812 -0.1944  0.0867
  189SLPC    C321804   1.946   1.004  38.518 -0.1476 -0.2748 -0.6351
  189SLPC    HX21805   1.856   1.064  38.493 -1.1301 -1.5790 -0.3465
  189SLPC    HY21806   2.035   1.058  38.478  0.7217 -1.3296 -0.1709
  189SLPC   O3121807   1.957   0.971  38.661 -0.9030 -0.3693  0.2204
  189SLPC   C3121808   2.088   0.927  38.699  0.7552 -0.0959 -0.8286
  189SLPC   O3221809   2.180   0.927  38.618 -0.3411  0.0924  0.0364
  189SLPC   C3221810   2.079   0.886  38.841 -0.1258  0.0284  0.1305
  189SLPC   H2X21811   1.982   0.922  38.882 -0.1107 -0.5523  0.6956
  189SLPC   H2Y21812   2.161   0.928  38.903 -0.9819 -0.1433  1.4151
  189SLPC   C2321813   1.708   0.483  38.635 -0.2732 -0.7490  0.1681
  189SLPC   H3R21814   1.806   0.431  38.621 -0.2171 -0.2945 -1.1936
  189SLPC   H3S21815   1.620   0.424  38.604 -1.7854  1.8871 -0.8274
  189SLPC   C2421816   1.689   0.515  38.784 -0.4668 -0.2232 -0.4650
  189SLPC   H4R21817   1.599   0.578  38.801 -0.4587 -0.0692 -0.9688
  189SLPC   H4S21818   1.775   0.574  38.823  1.4174 -2.2784 -1.2347
  189SLPC   C2521819   1.693   0.387  38.870  0.3381  0.6363  0.0638
  189SLPC   H5R21820   1.616   0.317  38.832  0.2957 -1.7522  3.9776
  189SLPC   H5S21821   1.659   0.411  38.973 -1.4006 -0.7828 -0.1445
  189SLPC   C2621822   1.834   0.329  38.869  0.1632  0.4279 -0.5721
  189SLPC   H6R21823   1.914   0.405  38.886  0.5903 -0.3985  1.3990
  189SLPC   H6S21824   1.848   0.278  38.771 -1.1474  0.9344 -1.0444
  189SLPC   C2721825   1.853   0.227  38.987 -0.1066 -0.0723  0.3775
  189SLPC   H7R21826   1.786   0.140  38.969 -1.4394  1.2843 -1.6966
  189SLPC   H7S21827   1.826   0.268  39.086 -0.2347  1.1091 -0.1308
  189SLPC   C2821828   1.994   0.172  38.990  0.3036  0.9345  0.4273
  189SLPC   H8R21829   2.016   0.140  38.886  0.1170 -1.1248  0.9895
  189SLPC   H8S21830   1.976   0.072  39.034 -1.4416 -0.2966 -2.7801
  189SLPC   C2921831   2.092   0.266  39.054  0.1555 -0.5754 -0.0556
  189SLPC   H9R21832   2.151   0.324  38.981  0.5617  0.9605  1.4265
  189SLPC  C21021833   2.112   0.279  39.185  0.1706  0.3900  0.0111
  189SLPC  H10R21834   2.180   0.357  39.222 -1.5189  1.6407  0.6403
  189SLPC  C21121835   2.040   0.200  39.293  0.1956 -0.6694  0.3899
  189SLPC  H11R21836   2.082   0.098  39.297 -2.2837 -1.8490 -0.9955
  189SLPC  H11S21837   1.932   0.186  39.268 -0.7399 -0.9741  3.9825
  189SLPC  C21221838   2.033   0.264  39.433 -0.1136 -0.2184  0.0040
  189SLPC  H12R21839   2.021   0.373  39.440 -2.4766 -0.3466 -1.0228
  189SLPC  C21321840   2.036   0.202  39.554 -1.2873  0.3526  0.4121
  189SLPC  H13R21841   2.013   0.256  39.647  0.3174  1.3503  0.2597
  189SLPC  C21421842   2.072   0.059  39.568  0.6173  0.4605 -0.5928
  189SLPC  H14R21843   2.173   0.039  39.527  0.1872 -4.9304  0.2437
  189SLPC  H14S21844   2.004  -0.011  39.515  1.6630 -1.8268  0.9188
  189SLPC  C21521845   2.091   0.012  39.714  0.5440  0.6665  0.8527
  189SLPC  H15R21846   2.099  -0.098  39.704 -0.6235  0.4691  1.7562
  189SLPC  H15S21847   1.998   0.025  39.775 -1.5039 -0.6743 -1.7948
  189SLPC  C21621848   2.221   0.051  39.776 -0.1079 -0.1355 -0.6623
  189SLPC  H16R21849   2.220   0.162  39.772 -2.8310 -0.0667 -0.2217
  189SLPC  H16S21850   2.300   0.006  39.714  0.0487  0.0228 -0.5797
  189SLPC  C21721851   2.240   0.016  39.926  0.6079 -0.5776 -1.3844
  189SLPC  H17R21852   2.154   0.071  39.970  0.6671 -0.8294 -0.9543
  189SLPC  H17S21853   2.337   0.042  39.975 -0.1531  1.9255 -1.0353
  189SLPC  C21821854   2.211  -0.132  39.958 -0.1384 -0.5976  0.3188
  189SLPC  H18R21855   2.270  -0.190  39.883  0.9735  0.7650  0.1093
  189SLPC  H18S21856   2.102  -0.151  39.946 -0.4902  1.3884  0.1035
  189SLPC  H18T21857   2.236  -0.144  40.066 -2.3589  0.1036  0.9660
  189SLPC   C3321858   2.086   0.732  38.873  0.0792 -0.3489  0.1942
  189SLPC   H3X21859   2.175   0.684  38.828  0.1322  0.4989 -0.6118
  189SLPC   H3Y21860   1.992   0.690  38.830  0.9383 -1.1096 -0.9811
  189SLPC   C3421861   2.065   0.693  39.022 -0.6009 -0.4786  0.2267
  189SLPC   H4X21862   2.151   0.744  39.070  0.5238 -1.8530 -0.2566
  189SLPC   H4Y21863   2.084   0.585  39.040  0.3617 -0.1848  1.0788
  189SLPC   C3521864   1.929   0.726  39.089  0.5150  0.1252  0.6774
  189SLPC   H5X21865   1.848   0.685  39.026  3.1604  0.9956 -3.7667
  189SLPC   H5Y21866   1.913   0.836  39.087  2.0512  0.3753 -1.7620
  189SLPC   C3621867   1.924   0.675  39.233 -0.1101 -0.0204  0.0494
  189SLPC   H6X21868   1.942   0.565  39.228 -1.0885 -0.2236  0.8526
  189SLPC   H6Y21869   1.824   0.688  39.278  0.9710  0.0902  2.6311
  189SLPC   C3721870   2.018   0.742  39.331 -1.4265 -0.6094 -0.0606
  189SLPC   H7X21871   1.984   0.848  39.336  0.9144  0.2699 -1.3922
  189SLPC   H7Y21872   2.121   0.739  39.290 -1.2392 -2.0927  0.4788
  189SLPC   C3821873   2.005   0.690  39.479  0.1778  0.3810  0.2451
  189SLPC   H8X21874   2.049   0.774  39.538  0.5151  1.4263 -1.4455
  189SLPC   H8Y21875   2.063   0.598  39.501  2.0783  1.5130  0.1360
  189SLPC   C3921876   1.859   0.668  39.524  0.6198  0.3140  0.3589
  189SLPC   H9X21877   1.821   0.581  39.467  2.0130 -1.6078  2.2050
  189SLPC   H9Y21878   1.809   0.765  39.501  0.0883  0.5045  2.1512
  189SLPC  C31021879   1.829   0.648  39.673  0.1167  0.3461  0.6213
  189SLPC  H10X21880   1.877   0.719  39.744 -2.5625  1.6549  1.2754
  189SLPC  H10Y21881   1.857   0.545  39.704 -2.8198 -1.2770 -1.6237
  189SLPC  C31121882   1.680   0.657  39.701  0.1009 -0.4830 -0.4500
  189SLPC  H11X21883   1.641   0.576  39.636 -0.4760 -0.3516 -0.2687
  189SLPC  H11Y21884   1.644   0.752  39.656 -1.5546 -0.1188  1.5289
  189SLPC  C31221885   1.632   0.648  39.845  0.7677 -0.9491 -0.5956
  189SLPC  H12X21886   1.662   0.741  39.898 -2.2278 -0.1125 -0.2152
  189SLPC  H12Y21887   1.672   0.564  39.907  0.9708  0.2381  0.9472
  189SLPC  C31321888   1.481   0.641  39.856  0.1242  0.0413 -0.7393
  189SLPC  H13X21889   1.450   0.598  39.954 -0.4189  0.6462 -0.6407
  189SLPC  H13Y21890   1.451   0.573  39.774 -0.8948 -3.2606  2.1138
  189SLPC  C31421891   1.400   0.777  39.831 -0.3791 -0.0558 -0.3991
  189SLPC  H14X21892   1.309   0.768  39.768 -0.4610  4.9168 -1.4041
  189SLPC  H14Y21893   1.459   0.844  39.765 -1.0240 -0.3496 -1.2972
  189SLPC  C31521894   1.365   0.842  39.964  0.0784  0.0368  0.6115
  189SLPC  H15X21895   1.454   0.872  40.023 -0.5708  0.1688  1.5553
  189SLPC  H15Y21896   1.302   0.771  40.022 -1.1582  1.1500  0.6986
  189SLPC  C31621897   1.261   0.950  39.940  0.1569 -0.6278  0.4798
  189SLPC  H16X21898   1.167   0.930  39.884 -1.4890  2.1691  2.0116
  189SLPC  H16Y21899   1.311   1.028  39.880 -0.9653  0.8542  1.4026
  189SLPC  C31721900   1.220   1.031  40.073 -0.2553  0.3406 -0.0282
  189SLPC  H17X21901   1.315   1.054  40.125 -0.2959  1.9518 -0.6272
  189SLPC  H17Y21902   1.149   0.959  40.118 -0.3207  0.1826 -0.3772
  189SLPC  C31821903   1.138   1.159  40.048 -0.1781 -0.0097 -0.4128
  189SLPC  H18X21904   1.072   1.146  39.960 -0.6892 -2.7094  0.2879
  189SLPC  H18Y21905   1.203   1.246  40.023  0.3514 -0.1653  0.3841
  189SLPC  H18Z21906   1.074   1.189  40.134  1.3136 -0.1780  0.8106
  190SLPC     N21907   0.860   0.419  52.655 -0.3602 -0.0785 -0.5529
  190SLPC   C1321908   0.801   0.303  52.578  0.0656  0.2057 -0.0930
  190SLPC  H13A21909   0.818   0.210  52.630 -1.3188 -0.5656 -0.9423
  190SLPC  H13B21910   0.693   0.315  52.580  0.1571  0.9465  1.0540
  190SLPC  H13C21911   0.818   0.294  52.472  0.7033 -1.4729  0.1235
  190SLPC   C1421912   0.779   0.425  52.784  0.2304  1.1571 -0.1044
  190SLPC  H14A21913   0.671   0.423  52.775  0.0948 -0.2891  1.4003
  190SLPC  H14B21914   0.787   0.330  52.834  0.8408  0.9365 -0.6188
  190SLPC  H14C21915   0.814   0.494  52.859  1.7668  0.6232 -0.3034
  190SLPC   C1521916   0.850   0.553  52.580  0.0118  0.8152 -0.3528
  190SLPC  H15A21917   0.871   0.555  52.474 -2.7765  0.7950 -0.9840
  190SLPC  H15B21918   0.747   0.578  52.602 -1.0060 -2.4541 -0.8369
  190SLPC  H15C21919   0.910   0.627  52.631 -0.7742  2.1675 -1.3476
  190SLPC   C1221920   1.005   0.387  52.694  0.0599 -0.5088 -0.0473
  190SLPC  H12A21921   1.051   0.353  52.602  0.2053  0.2580 -0.2709
  190SLPC  H12B21922   1.011   0.296  52.753 -1.8708  0.7784  2.2982
  190SLPC   C1121923   1.097   0.499  52.752 -0.2291 -0.6308  1.1179
  190SLPC  H11A21924   1.087   0.587  52.686  1.7012 -0.3148  1.2147
  190SLPC  H11B21925   1.199   0.456  52.754  0.2830  0.5184  0.4005
  190SLPC     P21926   1.133   0.612  52.995 -0.0910 -0.1696 -0.6244
  190SLPC   O1321927   1.240   0.679  52.917 -0.3378  0.6608  0.9790
  190SLPC   O1421928   1.049   0.707  53.073  0.8243  0.0257 -0.2735
  190SLPC   O1221929   1.048   0.541  52.881 -0.4208 -0.0200  0.1471
  190SLPC   O1121930   1.196   0.503  53.087 -0.4189  0.8121  1.2674
  190SLPC    C121931   1.167   0.362  53.068 -0.7061  1.1293 -0.1639
  190SLPC    HA21932   1.074   0.335  53.012  0.3936 -2.7785 -0.3777
  190SLPC    HB21933   1.244   0.316  53.003 -0.6583 -0.5276  0.9810
  190SLPC    C221934   1.186   0.283  53.196  0.9269 -0.2964 -0.8665
  190SLPC    HS21935   1.158   0.175  53.193  3.2677 -1.0626  0.8807
  190SLPC   O2121936   1.112   0.350  53.300  0.1431 -0.4099  0.2357
  190SLPC   C2121937   0.984   0.331  53.306 -0.5052  0.0443 -0.2322
  190SLPC   O2221938   0.916   0.266  53.227 -0.5072 -0.6923  0.5134
  190SLPC   C2221939   0.924   0.406  53.425  0.3808  0.0853  0.4386
  190SLPC   H2R21940   1.012   0.443  53.482  0.0234  1.2859  0.2580
  190SLPC   H2S21941   0.872   0.490  53.374 -1.8074 -3.0276 -3.0060
  190SLPC    C321942   1.340   0.290  53.239  0.2391 -0.3615  0.5809
  190SLPC    HX21943   1.368   0.397  53.238  0.1317 -0.2353 -3.3552
  190SLPC    HY21944   1.405   0.250  53.158 -0.3837  1.8010 -1.0737
  190SLPC   O3121945   1.374   0.227  53.369  0.2156 -0.1760  0.4781
  190SLPC   C3121946   1.396   0.099  53.371  0.9140 -0.4779 -0.1503
  190SLPC   O3221947   1.397   0.026  53.273 -0.1120 -0.0144  0.5655
  190SLPC   C3221948   1.409   0.041  53.508 -0.8258 -0.5380  0.2643
  190SLPC   H2X21949   1.515   0.059  53.537 -0.0059 -2.2589 -1.4645
  190SLPC   H2Y21950   1.394  -0.069  53.496  3.1115 -1.2824  0.5524
  190SLPC   C2321951   0.811   0.322  53.498  0.1040 -0.8313  0.3028
  190SLPC   H3R21952   0.757   0.255  53.427 -0.3023 -0.4494  0.2474
  190SLPC   H3S21953   0.741   0.389  53.551 -1.0210 -1.9003  0.2244
  190SLPC   C2421954   0.874   0.231  53.602  0.2618  0.4840  0.4735
  190SLPC   H4R21955   0.977   0.199  53.576  1.0796  1.3704  2.4523
  190SLPC   H4S21956   0.818   0.135  53.606  1.6766 -0.3510  0.9177
  190SLPC   C2521957   0.868   0.288  53.747 -0.7016  0.2045  0.4205
  190SLPC   H5R21958   0.772   0.332  53.782 -1.5397  0.1901 -1.7217
  190SLPC   H5S21959   0.924   0.383  53.738 -1.5558  0.4828 -3.6930
  190SLPC   C2621960   0.923   0.198  53.862 -0.1141  0.7800  0.3664
  190SLPC   H6R21961   0.930   0.269  53.948 -0.1467 -1.4431  2.2900
  190SLPC   H6S21962   1.024   0.164  53.830 -0.4675 -1.0066  1.0496
  190SLPC   C2721963   0.827   0.086  53.913  0.3334 -0.3384  0.4175
  190SLPC   H7R21964   0.802   0.030  53.821 -0.1190 -2.4644  1.7615
  190SLPC   H7S21965   0.731   0.138  53.936 -0.7614 -2.3497  0.5829
  190SLPC   C2821966   0.892   0.005  54.029 -0.2590  0.8537  0.4424
  190SLPC   H8R21967   0.995  -0.020  53.998  0.1857  0.5891  2.0515
  190SLPC   H8S21968   0.851  -0.098  54.033  2.1055 -0.2188 -0.8085
  190SLPC   C2921969   0.907   0.085  54.156  0.6258 -0.3320 -0.6296
  190SLPC   H9R21970   1.000   0.144  54.165  1.6365 -2.0498  1.0115
  190SLPC  C21021971   0.823   0.078  54.264 -0.4539 -0.2706 -0.1129
  190SLPC  H10R21972   0.856   0.152  54.338  3.4443  0.9641 -2.7818
  190SLPC  C21121973   0.702  -0.010  54.298 -0.3559 -0.3762  0.8559
  190SLPC  H11R21974   0.657  -0.063  54.211  2.0016  1.9619 -2.0020
  190SLPC  H11S21975   0.621   0.065  54.312 -1.9171 -2.0829  1.3962
  190SLPC  C21221976   0.704  -0.105  54.409  0.8634 -0.4924 -0.3521
  190SLPC  H12R21977   0.653  -0.195  54.372  0.4294  0.1885 -1.4656
  190SLPC  C21321978   0.758  -0.095  54.537  0.1608 -0.6094  0.1900
  190SLPC  H13R21979   0.748  -0.184  54.601  0.0363 -1.1939 -0.6267
  190SLPC  C21421980   0.848   0.016  54.602  0.2945  0.2868 -0.6099
  190SLPC  H14R21981   0.787   0.046  54.690  1.7004 -3.0015  1.6675
  190SLPC  H14S21982   0.863   0.098  54.529  3.8309 -3.0413 -4.0394
  190SLPC  C21521983   0.985  -0.034  54.651  0.2694  0.3598  0.9685
  190SLPC  H15R21984   1.048   0.057  54.657 -0.2846  0.6991  1.8779
  190SLPC  H15S21985   1.017  -0.090  54.561 -1.3885 -3.4064  2.4912
  190SLPC  C21621986   1.002  -0.131  54.762  0.3984 -0.5262  0.4810
  190SLPC  H16R21987   1.086  -0.202  54.742  1.6263  0.4863  1.8970
  190SLPC  H16S21988   0.916  -0.201  54.769 -0.5427  0.6420  0.8449
  190SLPC  C21721989   1.033  -0.083  54.907  1.0499 -0.0121  0.1550
  190SLPC  H17R21990   0.963   0.001  54.928  2.3921  2.6584 -4.5420
  190SLPC  H17S21991   1.135  -0.040  54.900  0.5055  1.1720 -0.9491
  190SLPC  C21821992   1.026  -0.186  55.007  0.1106  0.2607 -1.0735
  190SLPC  H18R21993   0.930  -0.241  54.998 -0.4864  0.9784  0.4701
  190SLPC  H18S21994   1.034  -0.145  55.110  0.0202  2.2075 -1.7908
  190SLPC  H18T21995   1.092  -0.275  55.013 -1.5719 -0.9117  1.6342
  190SLPC   C3321996   1.306   0.084  53.613 -1.0756 -0.4783 -0.2288
  190SLPC   H3X21997   1.204   0.092  53.570 -1.5164  3.8595  1.2076
  190SLPC   H3Y21998   1.329   0.188  53.644 -2.8169  0.2007 -1.0791
  190SLPC   C3421999   1.303  -0.009  53.738  0.4576 -0.5368 -0.2297
  190SLPC   H4X22000   1.268   0.058  53.820 -0.3732 -0.7367 -0.4153
  190SLPC   H4Y22001   1.401  -0.055  53.763  1.2145 -0.5024 -2.8686
  190SLPC   C3522002   1.184  -0.113  53.740 -0.1714 -0.2966 -0.6110
  190SLPC   H5X22003   1.202  -0.165  53.643 -1.7389 -0.7164 -0.7040
  190SLPC   H5Y22004   1.084  -0.066  53.726  0.2970  1.9013  2.4993
  190SLPC   C3622005   1.186  -0.203  53.861 -0.5042 -0.1179 -0.2487
  190SLPC   H6X22006   1.187  -0.152  53.960  0.6837 -0.4645 -0.0613
  190SLPC   H6Y22007   1.284  -0.256  53.868 -1.7480 -2.7542 -1.3579
  190SLPC   C3722008   1.079  -0.307  53.865  0.8148 -0.6057 -0.1751
  190SLPC   H7X22009   1.067  -0.356  53.766  2.1003 -2.5470  0.5685
  190SLPC   H7Y22010   0.980  -0.266  53.895 -0.1383 -2.3265 -0.8489
  190SLPC   C3822011   1.106  -0.434  53.951  0.4182 -0.3539 -0.7306
  190SLPC   H8X22012   1.187  -0.491  53.901  0.2726 -0.6268 -0.6518
  190SLPC   H8Y22013   1.010  -0.487  53.962 -2.3439  4.0125 -1.1561
  190SLPC   C3922014   1.140  -0.412  54.099 -0.0400 -0.7514 -0.1221
  190SLPC   H9X22015   1.240  -0.369  54.120  0.9328 -3.2990  0.9512
  190SLPC   H9Y22016   1.146  -0.510  54.151 -0.9232 -0.1159  1.2243
  190SLPC  C31022017   1.034  -0.316  54.162  0.4514  0.5714  0.5167
  190SLPC  H10X22018   0.932  -0.323  54.119  0.5249  2.0320  0.0488
  190SLPC  H10Y22019   1.058  -0.208  54.163  1.8406  0.2811  0.7544
  190SLPC  C31122020   1.010  -0.347  54.307 -0.1760  0.0495  0.2426
  190SLPC  H11X22021   0.960  -0.444  54.328  0.7103 -0.0233  2.2862
  190SLPC  H11Y22022   0.956  -0.261  54.352  0.7827  1.6467 -1.5232
  190SLPC  C31222023   1.146  -0.348  54.388  0.4357  0.4102  0.1238
  190SLPC  H12X22024   1.210  -0.432  54.351  0.2965 -0.3609  1.5337
  190SLPC  H12Y22025   1.113  -0.373  54.491 -4.5763  0.3858 -1.2259
  190SLPC  C31322026   1.232  -0.225  54.388 -0.4371 -1.2332  0.6691
  190SLPC  H13X22027   1.165  -0.138  54.406  2.1056  0.9158  0.3999
  190SLPC  H13Y22028   1.281  -0.220  54.288  1.9131 -0.6893  1.7890
  190SLPC  C31422029   1.340  -0.234  54.499 -0.6239 -0.1511  0.0031
  190SLPC  H14X22030   1.406  -0.320  54.473  1.5375  1.8605 -1.5997
  190SLPC  H14Y22031   1.288  -0.260  54.594 -1.6999 -2.3758 -1.1130
  190SLPC  C31522032   1.422  -0.095  54.500  0.1545  0.2063  0.1761
  190SLPC  H15X22033   1.358  -0.024  54.556  0.4068  0.1105  0.5951
  190SLPC  H15Y22034   1.437  -0.073  54.392  2.1128 -0.7576  0.1997
  190SLPC  C31622035   1.552  -0.099  54.578 -0.0306 -0.4117 -0.0805
  190SLPC  H16X22036   1.544  -0.152  54.675  0.9866 -1.8170 -0.7219
  190SLPC  H16Y22037   1.591   0.003  54.597 -1.3402 -0.3232  2.6576
  190SLPC  C31722038   1.665  -0.175  54.508 -1.1426  0.7406  0.2335
  190SLPC  H17X22039   1.708  -0.116  54.425 -0.7128  1.8149  1.2050
  190SLPC  H17Y22040   1.613  -0.267  54.473  1.0355 -1.7346  2.9475
  190SLPC  C31822041   1.783  -0.203  54.603  0.2208  0.5343  0.6968
  190SLPC  H18X22042   1.769  -0.287  54.675  2.3899  0.6752  1.3650
  190SLPC  H18Y22043   1.799  -0.108  54.659  1.0475  1.8622 -1.6829
  190SLPC  H18Z22044   1.878  -0.228  54.552 -0.9564 -3.3989  0.0630
  191SLPC     N22045   0.972   0.313  42.065 -0.2429  0.0200 -0.0491
  191SLPC   C1322046   1.104   0.375  42.068 -0.1979  0.5722 -0.0122
  191SLPC  H13A22047   1.175   0.309  42.116 -1.1924  0.1234  0.8674
  191SLPC  H13B22048   1.129   0.402  41.966 -2.2669  1.6576 -0.2708
  191SLPC  H13C22049   1.104   0.458  42.137 -0.0406  0.1086  0.5473
  191SLPC   C1422050   0.870   0.410  42.027  0.5370 -0.1129  0.3206
  191SLPC  H14A22051   0.863   0.480  42.109  1.9831  0.6884 -0.2053
  191SLPC  H14B22052   0.895   0.454  41.932  1.0993 -1.2219 -0.0646
  191SLPC  H14C22053   0.778   0.357  42.009  1.1409 -0.4973 -1.9436
  191SLPC   C1522054   0.950   0.265  42.208 -0.0660  0.4210 -0.3220
  191SLPC  H15A22055   0.872   0.192  42.220  2.2005 -2.2456 -0.9118
  191SLPC  H15B22056   1.037   0.218  42.250 -0.8920  0.3794  1.4408
  191SLPC  H15C22057   0.936   0.346  42.279 -3.7736 -0.4313  0.1187
  191SLPC   C1222058   0.968   0.180  41.988 -0.6821 -0.6256 -0.2685
  191SLPC  H12A22059   0.885   0.120  42.023  1.5352 -1.3945  4.4882
  191SLPC  H12B22060   1.054   0.126  42.026  1.2778 -0.9290 -4.4597
  191SLPC   C1122061   0.980   0.183  41.834  0.3631 -0.5875  0.1441
  191SLPC  H11A22062   1.006   0.082  41.795  0.1855 -0.0498 -1.4597
  191SLPC  H11B22063   1.062   0.253  41.806  0.1972 -0.5081 -0.1541
  191SLPC     P22064   0.725   0.173  41.783  0.1258 -0.4488 -0.0232
  191SLPC   O1322065   0.668   0.167  41.918  0.0784 -0.4971  0.5634
  191SLPC   O1422066   0.637   0.232  41.677  0.5016  0.4338 -0.2037
  191SLPC   O1222067   0.861   0.236  41.778  0.1048  0.2497  0.4346
  191SLPC   O1122068   0.759   0.027  41.735  0.3112 -0.5329 -0.3098
  191SLPC    C122069   0.692  -0.037  41.622  0.7669 -0.3299 -0.7572
  191SLPC    HA22070   0.671  -0.143  41.648  0.5783 -0.0599  0.2705
  191SLPC    HB22071   0.585  -0.008  41.612 -0.1194 -2.7197  0.9603
  191SLPC    C222072   0.764  -0.029  41.480  0.6295  0.2101 -0.2706
  191SLPC    HS22073   0.694  -0.071  41.405  1.6881 -1.4219 -0.3974
  191SLPC   O2122074   0.887  -0.112  41.485  0.6217  0.0201 -0.1463
  191SLPC   C2122075   0.871  -0.236  41.458 -0.6650 -0.1838  0.4142
  191SLPC   O2222076   0.770  -0.293  41.413 -0.3627 -0.0541 -0.1551
  191SLPC   C2222077   1.004  -0.310  41.473 -0.3283  0.4801 -0.3290
  191SLPC   H2R22078   1.085  -0.243  41.437  0.2592 -1.9375 -4.0753
  191SLPC   H2S22079   1.015  -0.324  41.583 -0.7504  2.6619  0.0447
  191SLPC    C322080   0.802   0.109  41.446 -0.7799  0.0412 -0.1459
  191SLPC    HX22081   0.855   0.184  41.508  1.3324  0.2831 -2.1171
  191SLPC    HY22082   0.702   0.157  41.439 -0.3468  0.8673 -0.8500
  191SLPC   O3122083   0.851   0.119  41.314 -0.0948  0.0601 -0.3597
  191SLPC   C3122084   0.976   0.091  41.301  0.0554  0.2595  0.6419
  191SLPC   O3222085   1.063   0.095  41.385  0.0524  0.0046 -0.6608
  191SLPC   C3222086   1.009   0.073  41.149  0.5665  0.4378 -0.6999
  191SLPC   H2X22087   1.083   0.154  41.134  2.3036 -0.6520  1.4389
  191SLPC   H2Y22088   0.925   0.091  41.078  0.2176 -0.1609 -0.4395
  191SLPC   C2322089   1.009  -0.444  41.408 -0.0239  1.2175 -0.4377
  191SLPC   H3R22090   0.918  -0.506  41.422  1.7776 -1.3696  0.5851
  191SLPC   H3S22091   1.088  -0.508  41.453 -1.0571  0.3662  0.2019
  191SLPC   C2422092   1.024  -0.437  41.257  0.2848 -0.5572 -0.3153
  191SLPC   H4R22093   1.101  -0.363  41.227  1.3765 -1.0932  1.0714
  191SLPC   H4S22094   0.922  -0.409  41.223  0.4720 -0.5316 -0.8653
  191SLPC   C2522095   1.062  -0.564  41.190  0.5557  0.4495 -0.0365
  191SLPC   H5R22096   1.014  -0.562  41.090  2.1569 -0.6362 -0.8662
  191SLPC   H5S22097   1.028  -0.652  41.247  1.8400  0.5216  0.8863
  191SLPC   C2622098   1.208  -0.582  41.173  0.4746 -0.2916 -0.5367
  191SLPC   H6R22099   1.262  -0.582  41.270  1.7652  0.4250 -1.2325
  191SLPC   H6S22100   1.254  -0.500  41.115  0.9328 -0.2098 -0.0655
  191SLPC   C2722101   1.248  -0.714  41.101 -0.0536  0.6591  0.2187
  191SLPC   H7R22102   1.217  -0.706  40.995 -0.1522 -0.8229  0.1084
  191SLPC   H7S22103   1.190  -0.797  41.147 -0.2920 -0.3703 -1.8543
  191SLPC   C2822104   1.398  -0.743  41.114  0.0470  0.0245 -0.5403
  191SLPC   H8R22105   1.435  -0.759  41.217  0.0335 -1.8475 -0.7915
  191SLPC   H8S22106   1.456  -0.651  41.091 -1.6153  1.8826  2.0797
  191SLPC   C2922107   1.443  -0.873  41.047  0.3644 -0.0783  0.3044
  191SLPC   H9R22108   1.414  -0.967  41.095 -0.0246 -0.7787 -1.2268
  191SLPC  C21022109   1.505  -0.884  40.928 -0.9780  0.5000  0.0394
  191SLPC  H10R22110   1.517  -0.986  40.886 -0.7616  0.6074 -0.1621
  191SLPC  C21122111   1.553  -0.778  40.831 -0.2667 -0.0342 -0.1735
  191SLPC  H11R22112   1.656  -0.757  40.866 -0.4722  2.0113 -0.6859
  191SLPC  H11S22113   1.492  -0.687  40.847 -0.6008 -0.6018  2.1494
  191SLPC  C21222114   1.545  -0.807  40.686  0.0762 -0.3219  0.7280
  191SLPC  H12R22115   1.454  -0.765  40.639  1.2412 -0.3737 -1.7091
  191SLPC  C21322116   1.644  -0.852  40.613 -0.3689  0.6114  0.6596
  191SLPC  H13R22117   1.628  -0.871  40.505  1.2407  2.6213  0.0010
  191SLPC  C21422118   1.774  -0.898  40.671  0.0837 -0.1174  0.0881
  191SLPC  H14R22119   1.783  -1.006  40.646 -2.0431 -0.4355  0.5163
  191SLPC  H14S22120   1.781  -0.906  40.781  0.4555  1.3170  0.1969
  191SLPC  C21522121   1.901  -0.822  40.632  0.6694  0.3626  0.1525
  191SLPC  H15R22122   1.970  -0.859  40.711  0.0459 -0.1566  0.4573
  191SLPC  H15S22123   1.881  -0.713  40.637  0.6490  0.4955 -1.8418
  191SLPC  C21622124   1.954  -0.838  40.487  0.2835  1.0246 -0.0318
  191SLPC  H16R22125   1.876  -0.819  40.410  1.5579 -0.0801 -1.6752
  191SLPC  H16S22126   1.994  -0.942  40.483  2.1136  1.7114 -0.7834
  191SLPC  C21722127   2.070  -0.750  40.447 -0.1124  0.1291  0.2005
  191SLPC  H17R22128   2.123  -0.722  40.541 -1.8887 -0.5443  1.4582
  191SLPC  H17S22129   2.023  -0.656  40.412  1.4043  1.0844  0.6150
  191SLPC  C21822130   2.168  -0.811  40.345 -0.1232 -0.3381 -0.5314
  191SLPC  H18R22131   2.127  -0.812  40.241 -0.5980  2.7370 -0.4877
  191SLPC  H18S22132   2.191  -0.916  40.373  0.9718  0.1602  0.4841
  191SLPC  H18T22133   2.271  -0.769  40.343  0.2565 -1.2122  0.2439
  191SLPC   C3322134   1.057  -0.069  41.130  0.1253 -0.4277  0.7729
  191SLPC   H3X22135   0.977  -0.141  41.159 -0.7053 -1.0845 -2.6286
  191SLPC   H3Y22136   1.141  -0.081  41.200  2.2234  3.1225 -0.8503
  191SLPC   C3422137   1.103  -0.096  40.981 -0.2465  0.7866  0.0260
  191SLPC   H4X22138   1.174  -0.017  40.948  0.1227  0.2814 -0.3899
  191SLPC   H4Y22139   1.018  -0.093  40.911 -0.1007 -2.0376 -0.3984
  191SLPC   C3522140   1.164  -0.239  40.973  0.3176  0.2522  0.1932
  191SLPC   H5X22141   1.084  -0.307  41.009  0.3082  0.9726  1.5944
  191SLPC   H5Y22142   1.256  -0.256  41.033 -0.4381 -2.1944  0.7682
  191SLPC   C3622143   1.196  -0.284  40.830  0.2585  0.0322  0.3387
  191SLPC   H6X22144   1.256  -0.208  40.776 -2.0060  1.5794 -0.1699
  191SLPC   H6Y22145   1.101  -0.281  40.773  0.0159 -1.0500  0.6675
  191SLPC   C3722146   1.262  -0.416  40.826 -0.9464 -0.4412 -0.2897
  191SLPC   H7X22147   1.204  -0.487  40.889 -0.4302 -2.7443 -2.2753
  191SLPC   H7Y22148   1.366  -0.408  40.862 -0.8041  0.2375 -0.8274
  191SLPC   C3822149   1.272  -0.484  40.692  0.1493 -0.2050 -0.0022
  191SLPC   H8X22150   1.298  -0.590  40.713  1.2351  0.0272 -0.1390
  191SLPC   H8Y22151   1.343  -0.428  40.628 -0.6698  1.6610  0.6703
  191SLPC   C3922152   1.135  -0.498  40.629  0.3912 -0.0166  0.0375
  191SLPC   H9X22153   1.121  -0.403  40.573  1.5698  1.2783  1.7859
  191SLPC   H9Y22154   1.052  -0.521  40.699  0.9669  0.4312  0.8912
  191SLPC  C31022155   1.132  -0.611  40.528  0.0400  0.5940  0.1386
  191SLPC  H10X22156   1.039  -0.605  40.468  0.0210  1.8236  0.2720
  191SLPC  H10Y22157   1.138  -0.708  40.582  3.3378  1.1119  0.9136
  191SLPC  C31122158   1.242  -0.589  40.425  0.6239  0.0972  0.1769
  191SLPC  H11X22159   1.337  -0.594  40.482  0.6295 -2.2614  0.0490
  191SLPC  H11Y22160   1.229  -0.486  40.384  0.2730 -0.3584 -0.8957
  191SLPC  C31222161   1.247  -0.678  40.306  0.2403 -0.1687  0.5483
  191SLPC  H12X22162   1.320  -0.632  40.237  0.1728  0.0284  0.6114
  191SLPC  H12Y22163   1.150  -0.667  40.254 -0.2995  1.8540  1.8790
  191SLPC  C31322164   1.272  -0.828  40.332 -0.4926 -0.2281 -0.1724
  191SLPC  H13X22165   1.193  -0.886  40.386  0.1624 -2.7287 -1.7187
  191SLPC  H13Y22166   1.367  -0.834  40.388 -0.0130 -0.2281 -0.9786
  191SLPC  C31422167   1.290  -0.899  40.196  0.5774 -0.3932 -0.5369
  191SLPC  H14X22168   1.380  -0.868  40.139 -0.5360  0.2648 -2.0250
  191SLPC  H14Y22169   1.209  -0.873  40.124  0.0493  3.7972  1.2524
  191SLPC  C31522170   1.307  -1.054  40.217 -0.0496  0.3708 -0.1997
  191SLPC  H15X22171   1.208  -1.099  40.241  1.6980 -3.2687  0.9423
  191SLPC  H15Y22172   1.363  -1.067  40.312 -2.0725  2.6543  1.4230
  191SLPC  C31622173   1.382  -1.130  40.110  0.0434 -0.1530  0.2829
  191SLPC  H16X22174   1.474  -1.072  40.087  0.1120 -0.3040  0.1786
  191SLPC  H16Y22175   1.316  -1.135  40.021  0.4157  1.9792 -0.1738
  191SLPC  C31722176   1.413  -1.277  40.144 -0.4102  0.4183 -0.4222
  191SLPC  H17X22177   1.316  -1.329  40.162 -0.7572  1.8021  2.4364
  191SLPC  H17Y22178   1.487  -1.284  40.226  0.7104 -1.3420 -1.5309
  191SLPC  C31822179   1.486  -1.335  40.023  0.2905 -0.1811  0.5742
  191SLPC  H18X22180   1.510  -1.443  40.036  0.2343 -0.2412  0.1881
  191SLPC  H18Y22181   1.578  -1.275  40.010 -1.3502  3.3817  3.5530
  191SLPC  H18Z22182   1.420  -1.325  39.935 -0.3229 -0.3857  1.0035
  192SLPC     N22183   1.813   2.008  45.796 -0.8568  0.3181  0.5966
  192SLPC   C1322184   1.691   1.926  45.849 -0.1084 -0.3874  1.0720
  192SLPC  H13A22185   1.609   1.933  45.779  0.7375  2.0853  0.2225
  192SLPC  H13B22186   1.739   1.830  45.856 -1.6298 -1.1806  1.0558
  192SLPC  H13C22187   1.656   1.954  45.947 -2.0789  2.3036 -0.2638
  192SLPC   C1422188   1.854   1.942  45.660  0.0772  0.3272  0.0442
  192SLPC  H14A22189   1.766   1.960  45.601 -0.5725  1.6197  1.3324
  192SLPC  H14B22190   1.933   1.993  45.608 -0.1835 -0.3160 -1.0219
  192SLPC  H14C22191   1.855   1.834  45.672  1.1071  0.3474  0.2605
  192SLPC   C1522192   1.922   1.988  45.889  0.7974  0.3140 -0.2651
  192SLPC  H15A22193   1.910   2.029  45.988  0.3817  0.3878 -0.3462
  192SLPC  H15B22194   1.959   1.890  45.915  0.5686  0.2921 -0.0177
  192SLPC  H15C22195   2.012   2.028  45.845  1.9472 -2.1667 -0.3603
  192SLPC   C1222196   1.770   2.155  45.782  0.1332  1.0854 -0.5936
  192SLPC  H12A22197   1.841   2.221  45.735  0.1757 -0.0407 -2.2078
  192SLPC  H12B22198   1.761   2.191  45.883 -0.4046  1.8492 -0.8987
  192SLPC   C1122199   1.640   2.181  45.698  0.1535  0.3193 -0.4568
  192SLPC  H11A22200   1.605   2.286  45.706  0.8031  0.4504  0.9362
  192SLPC  H11B22201   1.554   2.131  45.749 -0.2289  0.4091 -1.0025
  192SLPC     P22202   1.709   2.219  45.457 -0.1613  0.3042 -0.2977
  192SLPC   O1322203   1.840   2.273  45.508  0.0924  0.0489  0.2772
  192SLPC   O1422204   1.714   2.133  45.335 -0.5287 -0.6663 -0.4537
  192SLPC   O1222205   1.647   2.122  45.568  0.4611 -0.5274  0.6539
  192SLPC   O1122206   1.608   2.341  45.441  0.5041  0.2112  0.4051
  192SLPC    C122207   1.469   2.343  45.476 -0.0059 -0.2490  0.2850
  192SLPC    HA22208   1.433   2.277  45.558 -1.1510 -1.0262 -0.8138
  192SLPC    HB22209   1.438   2.444  45.509  0.5802  0.0682 -0.1212
  192SLPC    C222210   1.372   2.312  45.347  0.4349 -0.3201 -0.3389
  192SLPC    HS22211   1.357   2.203  45.333 -2.4582  0.2814 -3.0579
  192SLPC   O2122212   1.426   2.367  45.230  0.1428  0.5642 -0.7227
  192SLPC   C2122213   1.375   2.319  45.116 -0.6507 -0.4482  0.1471
  192SLPC   O2222214   1.285   2.242  45.109 -0.5537  0.5352 -0.3092
  192SLPC   C2222215   1.449   2.385  44.999 -0.9232 -0.2881  0.1261
  192SLPC   H2R22216   1.558   2.380  45.017 -1.0672 -0.0218  1.1116
  192SLPC   H2S22217   1.428   2.330  44.905 -1.4371  2.0117 -1.1793
  192SLPC    C322218   1.229   2.366  45.391 -0.1012  0.3530  0.0078
  192SLPC    HX22219   1.173   2.358  45.296 -0.6276 -0.1894  0.3550
  192SLPC    HY22220   1.231   2.475  45.413 -1.4113  0.2356  0.8036
  192SLPC   O3122221   1.158   2.286  45.490 -0.3812 -0.2741  0.0475
  192SLPC   C3122222   1.037   2.238  45.459 -0.0530 -0.8508 -0.2067
  192SLPC   O3222223   0.982   2.250  45.355  0.5569 -0.2670  0.3268
  192SLPC   C3222224   0.978   2.145  45.575 -1.0271  0.3522  0.7333
  192SLPC   H2X22225   0.938   2.212  45.654 -0.5715 -0.2206  1.4624
  192SLPC   H2Y22226   1.060   2.086  45.619 -1.2299 -0.0030  0.6366
  192SLPC   C2322227   1.396   2.528  44.975  0.7110 -1.0328 -0.0338
  192SLPC   H3R22228   1.425   2.587  45.065  1.2946  1.5699 -1.8047
  192SLPC   H3S22229   1.288   2.547  44.959  1.0294  0.3899 -0.5948
  192SLPC   C2422230   1.449   2.596  44.842  0.0766 -0.1128  1.0758
  192SLPC   H4R22231   1.560   2.596  44.847  0.2273 -0.3101 -1.1665
  192SLPC   H4S22232   1.412   2.701  44.836 -0.4726 -0.3633 -0.2975
  192SLPC   C2522233   1.388   2.517  44.717 -0.1475 -0.0556 -0.1121
  192SLPC   H5R22234   1.367   2.599  44.645  1.3791 -1.6079 -2.4607
  192SLPC   H5S22235   1.292   2.462  44.732 -0.7938  1.7973  3.7933
  192SLPC   C2622236   1.492   2.423  44.641 -0.5912  0.2130 -0.8137
  192SLPC   H6R22237   1.522   2.342  44.710  0.2038  0.2102 -1.1565
  192SLPC   H6S22238   1.582   2.483  44.616 -1.0641  0.2862 -2.4200
  192SLPC   C2722239   1.448   2.358  44.512 -0.2293 -0.4682 -0.8061
  192SLPC   H7R22240   1.393   2.422  44.439 -3.6767 -2.0790  0.1914
  192SLPC   H7S22241   1.375   2.278  44.534 -1.2586  1.5111  4.4264
  192SLPC   C2822242   1.568   2.288  44.453  0.1940  0.6581 -0.0788
  192SLPC   H8R22243   1.601   2.208  44.523  1.7255 -0.4083 -1.8997
  192SLPC   H8S22244   1.655   2.352  44.427  1.2034 -0.1412  1.1786
  192SLPC   C2922245   1.518   2.215  44.333  0.1483 -0.0068  0.2732
  192SLPC   H9R22246   1.504   2.109  44.361 -1.2103  0.1933  0.4416
  192SLPC  C21022247   1.518   2.266  44.208 -0.3448  0.2547 -0.4204
  192SLPC  H10R22248   1.474   2.208  44.125 -0.4137  2.0115 -1.6427
  192SLPC  C21122249   1.559   2.402  44.160 -0.6434  1.0161 -0.0244
  192SLPC  H11R22250   1.567   2.474  44.244  3.9083  1.2738 -0.4518
  192SLPC  H11S22251   1.493   2.424  44.073 -1.4560  0.6410  0.4875
  192SLPC  C21222252   1.698   2.413  44.099  0.7748 -0.0868  0.5555
  192SLPC  H12R22253   1.777   2.350  44.142  1.1078 -0.2966 -0.3283
  192SLPC  C21322254   1.727   2.509  44.012  0.5697 -0.8248 -0.5015
  192SLPC  H13R22255   1.821   2.516  43.956 -0.5980  1.0810 -2.3516
  192SLPC  C21422256   1.641   2.615  43.956 -0.2019 -0.2365  0.7082
  192SLPC  H14R22257   1.538   2.621  43.998 -0.1770  2.5968  0.5707
  192SLPC  H14S22258   1.619   2.593  43.849  0.6837 -0.9246  0.6539
  192SLPC  C21522259   1.706   2.757  43.976  0.2806 -0.3008 -0.8376
  192SLPC  H15R22260   1.811   2.772  43.945  0.2624 -0.8079 -1.1571
  192SLPC  H15S22261   1.728   2.765  44.084  0.7975 -1.2744 -0.8577
  192SLPC  C21622262   1.625   2.871  43.936  0.5480  0.4095  0.3257
  192SLPC  H16R22263   1.661   2.968  43.977 -0.2812  0.9905 -0.2839
  192SLPC  H16S22264   1.523   2.859  43.978  0.3908  2.2100  0.5307
  192SLPC  C21722265   1.607   2.879  43.780 -0.8510  0.3441 -1.2257
  192SLPC  H17R22266   1.702   2.848  43.730 -0.9813 -0.6021 -0.9072
  192SLPC  H17S22267   1.537   2.796  43.757  0.6373 -0.3011 -3.9605
  192SLPC  C21822268   1.554   3.012  43.730  0.6816  1.0718  0.3836
  192SLPC  H18R22269   1.500   2.991  43.636  0.3218 -1.0333  1.0056
  192SLPC  H18S22270   1.628   3.093  43.712 -0.9865  2.4416 -0.6989
  192SLPC  H18T22271   1.490   3.043  43.815  0.6335  1.9885  0.0241
  192SLPC   C3322272   0.855   2.056  45.527 -0.4999  0.0344  0.7151
  192SLPC   H3X22273   0.846   1.980  45.608 -0.1976  1.3512  2.0313
  192SLPC   H3Y22274   0.879   2.006  45.431 -0.6169  3.1261 -1.0585
  192SLPC   C3422275   0.720   2.127  45.508  0.0514  0.6725 -0.4756
  192SLPC   H4X22276   0.736   2.181  45.412 -2.0950  0.8213 -0.8014
  192SLPC   H4Y22277   0.712   2.208  45.584  2.9473  1.0034 -0.4233
  192SLPC   C3522278   0.611   2.025  45.501 -0.0285  0.9435  0.1317
  192SLPC   H5X22279   0.518   2.082  45.481  0.4944  1.4245 -0.9949
  192SLPC   H5Y22280   0.594   1.975  45.599 -1.9673  2.4702  0.6489
  192SLPC   C3622281   0.621   1.933  45.385  0.2231  0.9859  0.4354
  192SLPC   H6X22282   0.701   1.857  45.385 -1.9837 -1.5914 -2.3070
  192SLPC   H6Y22283   0.657   1.996  45.300 -1.5200  3.4594  1.4011
  192SLPC   C3722284   0.486   1.872  45.345  0.0894  0.1734  0.2688
  192SLPC   H7X22285   0.509   1.819  45.251  1.8900 -1.5780  1.6039
  192SLPC   H7Y22286   0.411   1.951  45.325 -1.7416 -1.3485  0.8876
  192SLPC   C3822287   0.426   1.763  45.443 -0.2431  0.1625  0.1730
  192SLPC   H8X22288   0.323   1.754  45.404  0.3798 -0.4211 -1.4230
  192SLPC   H8Y22289   0.432   1.795  45.549 -3.4142  0.4738  0.3365
  192SLPC   C3922290   0.499   1.627  45.417  0.0896  0.3412 -0.2704
  192SLPC   H9X22291   0.610   1.624  45.422  0.0472 -0.8097  0.4914
  192SLPC   H9Y22292   0.464   1.584  45.320 -2.0415 -1.8579  1.3427
  192SLPC  C31022293   0.443   1.520  45.518 -1.3746 -0.9138  0.7483
  192SLPC  H10X22294   0.432   1.563  45.620  0.7354  1.1321  0.1896
  192SLPC  H10Y22295   0.523   1.444  45.520  2.5982  2.6712 -2.4472
  192SLPC  C31122296   0.309   1.452  45.483 -0.6413  0.6832 -0.7991
  192SLPC  H11X22297   0.221   1.518  45.499 -0.8969 -0.2178  2.1337
  192SLPC  H11Y22298   0.296   1.374  45.561 -1.3378  1.5236 -0.0608
  192SLPC  C31222299   0.310   1.381  45.342 -0.2202 -1.6119 -0.1785
  192SLPC  H12X22300   0.408   1.328  45.342  0.4750 -0.3604  0.3377
  192SLPC  H12Y22301   0.295   1.463  45.269 -3.6248 -0.2181  1.8368
  192SLPC  C31322302   0.202   1.274  45.331  0.6473 -0.7964  0.2906
  192SLPC  H13X22303   0.198   1.218  45.426 -0.5045 -1.4507 -0.1360
  192SLPC  H13Y22304   0.227   1.206  45.246  0.5708 -1.4311  0.7729
  192SLPC  C31422305   0.060   1.335  45.309 -0.5060  0.1042 -0.7899
  192SLPC  H14X22306   0.025   1.400  45.392 -0.9586  1.1471 -1.7778
  192SLPC  H14Y22307  -0.011   1.250  45.303  1.9328 -2.0713 -0.4190
  192SLPC  C31522308   0.047   1.412  45.182 -0.1987  0.5040  0.5072
  192SLPC  H15X22309   0.062   1.340  45.099  0.9590  2.5366 -1.1688
  192SLPC  H15Y22310   0.112   1.502  45.179  1.0799 -0.3422  1.7354
  192SLPC  C31622311  -0.102   1.448  45.153  0.3150  0.3362  0.1030
  192SLPC  H16X22312  -0.167   1.366  45.191  0.7073  0.9491  2.2251
  192SLPC  H16Y22313  -0.128   1.480  45.050 -2.9821  1.1055  1.0333
  192SLPC  C31722314  -0.149   1.560  45.245  0.3372 -0.6854  0.5243
  192SLPC  H17X22315  -0.118   1.542  45.350 -0.1801  1.5894  1.1415
  192SLPC  H17Y22316  -0.260   1.564  45.236  0.3072  4.2673  0.1236
  192SLPC  C31822317  -0.136   1.701  45.200 -0.2516 -0.7888  0.5548
  192SLPC  H18X22318  -0.028   1.726  45.191 -0.1969 -0.9815  0.6542
  192SLPC  H18Y22319  -0.180   1.778  45.265  3.3308  1.4209  0.6262
  192SLPC  H18Z22320  -0.198   1.714  45.109  0.4805  3.5195  0.4591
  193SOD    SOD22321   0.759   0.796  35.519 -0.0897 -0.1899 -0.3168
  194SOD    SOD22322   0.463   2.634  19.734 -0.0301  0.2610 -0.1486
  195SOD    SOD22323   0.782   0.138  37.397  0.1128  0.0678  0.0171
  196SOD    SOD22324   0.557   0.301  90.040  0.2952  0.1801 -0.4735
  197SOD    SOD22325   0.934   0.537  91.887  0.3314  0.3063 -0.5299
  198SOD    SOD22326   2.229   2.636 102.282 -0.0647 -0.3899 -0.3659
  199SOD    SOD22327   0.000   2.605  33.416  0.4438  0.3822  0.0716
  200SOD    SOD22328   0.904   0.400  80.701 -0.4173  0.5132  0.1363
  201SOD    SOD22329   0.337   2.534  51.770  0.2710  0.2908  0.0271
  202SOD    SOD22330   0.502   0.473  25.840  0.5207  0.1880  0.5134
  203SOD    SOD22331   1.358   1.499   2.854  0.0225  0.0002 -0.2734
  204SOD    SOD22332   0.662   1.497  63.384  1.0240  0.1176 -0.6611
  205SOD    SOD22333   0.729   1.093  73.705 -0.1074 -0.3098  0.3191
  206SOD    SOD22334   0.828   1.540  28.561  0.3050  0.3374 -0.6814
  207SOD    SOD22335   1.936   1.539  33.694  0.1037 -0.2933  0.1893
  208SOD    SOD22336   1.470   1.713   2.247 -0.0032  0.1058  0.0133
  209SOD    SOD22337   1.797   0.515  42.138  0.3222  0.0928 -0.1335
  210SOD    SOD22338   2.110   0.024  16.182 -0.4578 -0.1064 -0.1393
  211SOD    SOD22339   2.109   0.613  92.106  0.4410 -0.1521  0.3784
  212SOD    SOD22340   1.829   2.153  83.046 -0.2362  0.3888  0.1889
  213SOD    SOD22341   1.445   0.362  90.122  0.4239  0.0886 -0.2516
  214SOD    SOD22342   1.424   0.256  22.675  0.4771 -0.0831  0.2436
  215SOD    SOD22343   0.447   0.806  97.858  0.2009  0.0828  0.2094
  216SOD    SOD22344   0.438   1.101  27.698 -0.5134 -0.2906 -0.4257
  217SOD    SOD22345   0.554   2.437   4.719  0.0409  0.1215 -0.2653
  218SOD    SOD22346   1.875   0.599   6.611 -0.0201  0.2974 -0.5057
  219SOD    SOD22347   0.381   2.386  43.085 -0.0914 -0.1261 -0.6296
  220SOD    SOD22348   0.771   2.239 104.728  0.0251  0.3443 -0.3221
  221SOD    SOD22349   2.679   1.644 104.190  0.0413  0.0921  0.2954
  222SOD    SOD22350   0.609   0.581  57.973 -0.3744 -0.3735 -0.0368
  223SOD    SOD22351   2.131   2.386  11.423 -0.0382 -0.1915  0.1561
  224SOD    SOD22352   2.183   1.352   6.233 -0.4064 -0.2655 -0.0770
  225SOD    SOD22353   0.112   1.065   7.844 -0.2518 -0.2121 -0.5068
  226SOD    SOD22354   0.190   2.591 101.646  0.2776  0.1747 -0.0254
  227SOD    SOD22355   2.272   2.030 112.193  0.0179 -0.1182  0.0622
  228SOD    SOD22356   1.698   0.896  47.578  0.0736  0.2512  0.2536
  229SOD    SOD22357   1.760   0.487  82.490  0.5891  0.4059 -0.2269
  230SOD    SOD22358   2.685   1.163 105.525 -0.6542  0.1768 -0.4322
  231SOD    SOD22359   1.369   2.364  96.258  0.3016  0.0290 -0.2968
  232SOD    SOD22360   0.082   1.775  14.738 -0.2653  0.3391  0.2486
  233SOD    SOD22361   0.304   0.692  59.521  0.0675 -0.6983  0.2964
  234SOD    SOD22362   0.877   2.577  20.732 -0.0286  0.1514  0.3466
  235SOD    SOD22363   2.479   0.895  48.476  0.0031  0.5204  0.3295
  236SOD    SOD22364   1.814   0.566 107.745 -0.5052  0.3941  0.0321
  237SOD    SOD22365   1.207   1.705  82.841  0.0456  0.2137 -0.1800
  238SOD    SOD22366   0.506   2.632  70.062 -0.4001  0.1689  0.2047
  239SOD    SOD22367   1.246   0.773  51.106 -0.5127  0.0513  0.1159
  240SOD    SOD22368   0.568   2.030  31.085 -0.1292  0.2967  0.2936
  241SOD    SOD22369   0.506   0.636  57.054  0.1801  0.1771  0.2479
  242SOD    SOD22370   0.730   1.219  85.562 -0.0239  0.1738 -0.3378
  243SOD    SOD22371   0.686   0.860 111.367 -0.2020  0.0721 -0.0896
  244SOD    SOD22372   0.814   0.295  57.297  0.6950 -0.0289 -0.3360
  245SOD    SOD22373   1.038   1.760  10.287  0.1750  0.4380 -0.0025
  246SOD    SOD22374   2.154   0.160  29.618  0.3131 -0.0161 -0.6565
  247SOD    SOD22375   2.521   0.744  38.438  0.5265  0.0553  0.2045
  248SOD    SOD22376   0.298   0.717  58.508  0.3387 -0.0632  0.0569
  249SOD    SOD22377   2.679   0.524   7.042 -0.0072  0.4095  0.0442
  250SOD    SOD22378   0.233   0.079  41.645  0.0107  0.0128 -0.1363
  251SOD    SOD22379   1.670   0.532  75.735  0.4964  0.5840 -0.0636
  252SOD    SOD22380   1.899   1.975  18.217  0.1497  0.0803  0.0775
  253SOD    SOD22381   1.489   0.782  26.562 -0.4041  0.2575  0.0876
  254SOD    SOD22382   0.434   0.557  24.832 -0.0509  0.2742  0.0923
  255SOD    SOD22383   1.093   1.201  30.732 -0.3242  0.0457 -0.1587
  256SOD    SOD22384   2.492   2.541  27.566 -0.0056  0.5574  0.6834
  257SOD    SOD22385   1.091   2.105  81.714 -0.4009  0.0692 -0.1210
  258SOD    SOD22386   2.221   0.082  41.540 -0.0855 -0.1369 -0.5134
  259SOD    SOD22387   0.195   1.594  63.169 -0.5182 -0.0523 -0.0414
  260SOD    SOD22388   0.487   2.316  66.306 -0.0089  0.0646  0.5504
  261SOD    SOD22389   1.396   1.985   1.442  0.0711 -0.0213 -0.0698
  262SOD    SOD22390   0.310   0.423  74.723 -0.2599  0.4925 -0.1117
  263SOD    SOD22391   1.355   0.083 108.142  0.3698  0.0551  0.3607
  264SOD    SOD22392   0.688   1.939  13.863 -0.1214  0.3110  0.3096
  265SOD    SOD22393   1.365   0.757  29.172  0.1649  0.2338 -0.3073
  266CLA    CLA22394   2.320   2.298 106.213  0.2223  0.0870  0.0052
  267CLA    CLA22395   0.779   1.142  27.943 -0.0169 -0.5354 -0.0965
  268CLA    CLA22396   2.642   1.895  88.958 -0.4798  0.1102  0.5243
  269CLA    CLA22397   0.572   2.403  22.264 -0.3018 -0.6705 -0.0119
  270CLA    CLA22398   1.515   0.935  97.527  0.1016 -0.2043  0.2449
  271CLA    CLA22399   0.752   1.092  20.774  0.3259 -0.0115 -0.2691
  272CLA    CLA22400   0.005   1.320  34.231 -0.2046 -0.0740  0.2919
  273CLA    CLA22401   2.174   1.435  25.042 -0.0503  0.0436  0.0541
  274CLA    CLA22402   0.053   2.229   6.592 -0.1291  0.1844 -0.1034
  275CLA    CLA22403   2.459   2.168 103.754  0.0500 -0.2666 -0.0775
  276CLA    CLA22404   1.558   2.149 108.874  0.1811 -0.5869 -0.3538
  277CLA    CLA22405   0.345   2.661  29.551 -0.0878 -0.2704  0.1352
  278CLA    CLA22406   1.979   1.919  27.561  0.1607  0.2174  0.0777
  279CLA    CLA22407   1.832   1.463  91.575 -0.2423  0.2928 -0.1779
  280CLA    CLA22408   1.894   2.447  89.736  0.0963  0.5374 -0.1498
  281CLA    CLA22409   2.408   0.575  77.604  0.4545  0.0101 -0.1474
  282CLA    CLA22410   1.898   2.574 111.966 -0.4833  0.1182  0.0802
  283CLA    CLA22411   1.281   2.175 110.895 -0.1056 -0.2643 -0.0315
  284CLA    CLA22412   0.337   2.447 102.880 -0.3297 -0.0465  0.2754
  285CLA    CLA22413   2.675   2.347  11.834 -0.1047  0.1253  0.1893
  286CLA    CLA22414   0.093   1.045  91.671  0.1809  0.2103  0.0570
  287CLA    CLA22415   0.500   2.535  81.631  0.1192  0.0607 -0.4040
  288CLA    CLA22416   0.735   0.703  86.212 -0.1357 -0.1105  0.2321
  289CLA    CLA22417   0.463   0.140   4.356 -0.0668 -0.4163  0.0895
  290CLA    CLA22418   1.978   2.679  34.848  0.1908  0.1329 -0.2873
  291CLA    CLA22419   1.217   1.541 102.230 -0.0889  0.2298 -0.3821
  292CLA    CLA22420   2.128   0.893  16.906 -0.1687 -0.3948 -0.2279
  293CLA    CLA22421   1.445   1.816  18.590  0.3264 -0.0259 -0.1478
  294CLA    CLA22422   1.898   1.402   4.261 -0.1773 -0.1378  0.3640
  295CLA    CLA22423   0.900   0.722 105.190 -0.0275 -0.1517 -0.2140
  296CLA    CLA22424   0.228   1.773  18.363 -0.4877  0.8575  0.2825
  297CLA    CLA22425   0.467   0.439  79.072  0.4867  0.4873 -0.0907
  298CLA    CLA22426   0.792   2.593   1.839 -0.0649  0.2984  0.1019
  299CLA    CLA22427   1.204   1.724  36.523 -0.0086 -0.1408 -0.0439
  300CLA    CLA22428   2.242   2.393   5.730 -0.3188  0.0968 -0.0553
  301CLA    CLA22429   2.008   0.794  15.567  0.0466 -0.2477  0.3893
  302CLA    CLA22430   0.890   1.074  28.686  0.0032  0.1673 -0.3672
  303CLA    CLA22431   2.627   0.295   2.663 -0.1323 -0.0576 -0.2972
  304CLA    CLA22432   1.151   1.713   9.115  0.1443  0.1139 -0.5105
  305CLA    CLA22433   0.053   1.477  83.417  0.0296 -0.4088 -0.0287
  306CLA    CLA22434   0.744   0.364   8.821 -0.1077 -0.1524 -0.0229
  307CLA    CLA22435   1.178   1.884  83.227  0.0416 -0.6380  0.1280
  308CLA    CLA22436   0.472   2.340  31.502  0.1364  0.2083 -0.2501
  309CLA    CLA22437   1.289   0.906  12.273  0.1865  0.0761  0.4432
  310CLA    CLA22438   2.383   0.689  93.882 -0.1721  0.1242  0.0842
  311CLA    CLA22439   0.009   0.514  74.428 -0.7927 -0.1091  0.1486
  312CLA    CLA22440   2.398   0.269   8.064  0.1256  0.3921 -0.1128
  313CLA    CLA22441   2.414   1.235  83.122 -0.3076 -0.5204  0.5114
  314CLA    CLA22442   0.240   2.034 111.899 -0.0011 -0.0805  0.0492
  315CLA    CLA22443   0.968   2.226  28.302 -0.0433  0.1241  0.0987
  316CLA    CLA22444   2.325   0.479  21.148  0.2624  0.1572  0.0230
  317CLA    CLA22445   1.273   1.866  29.762  0.3278 -0.1611 -0.3768
  318CLA    CLA22446   1.611   1.045  30.763 -0.2229 -0.3527 -0.1020
  319TIP3   OH222447   0.206   2.319  24.096  0.2581 -0.0513 -0.0687
  319TIP3    H122448   0.188   2.399  24.145 -0.6153  0.1576 -0.7223
  319TIP3    H222449   0.229   2.255  24.163 -1.5553  0.0437  0.7004
  320TIP3   OH222450   2.321   1.603  20.880 -0.0134  0.5057 -0.2892
  320TIP3    H122451   2.260   1.601  20.806 -0.2297 -1.9691 -0.1320
  320TIP3    H222452   2.392   1.544  20.853  1.4187  1.9020  0.2908
  321TIP3   OH222453   1.289   0.453   2.088 -0.1170  0.0579  0.3247
  321TIP3    H122454   1.312   0.531   2.037 -0.4038  0.0654  0.2045
  321TIP3    H222455   1.218   0.412   2.039 -0.9704  0.5201  1.1373
  322TIP3   OH222456   0.364   0.420  80.485  0.4160  0.0546  0.9591
  322TIP3    H122457   0.417   0.452  80.412  0.8008  0.4015  1.3891
  322TIP3    H222458   0.286   0.476  80.484  0.2913 -0.1184  0.6499
  323TIP3   OH222459   0.572   1.048  30.867  0.2265  0.3355 -0.6835
  323TIP3    H122460   0.482   1.024  30.843  0.8919 -2.3458 -0.8754
  323TIP3    H222461   0.625   1.020  30.793  1.2558  2.0253 -0.6423
  324TIP3   OH222462   0.218   1.288  24.473  0.4618 -0.3409  0.2605
  324TIP3    H122463   0.241   1.240  24.393 -1.1076 -4.0669  1.7922
  324TIP3    H222464   0.285   1.263  24.536 -0.9447 -1.4501  1.3836
  325TIP3   OH222465   0.505   1.393  80.385  0.1468  0.1316 -0.0488
  325TIP3    H122466   0.474   1.357  80.303  1.4066 -0.2958 -0.3621
  325TIP3    H222467   0.600   1.389  80.379  0.2739  0.7019  1.1585
  326TIP3   OH222468   1.841   1.229  25.597  0.0713 -0.1781 -0.0008
  326TIP3    H122469   1.806   1.242  25.509 -2.8851  0.5953  1.1788
  326TIP3    H222470   1.886   1.311  25.618  0.3105 -0.1629 -0.5501
  327TIP3   OH222471   0.764   1.216  92.055 -0.5784 -0.0216  0.0694
  327TIP3    H122472   0.757   1.293  92.112  1.6408  0.2368  0.0699
  327TIP3    H222473   0.675   1.204  92.021 -1.0154  2.5264  0.0727
  328TIP3   OH222474   0.258   2.194 111.457  0.3364 -0.1892 -0.1161
  328TIP3    H122475   0.326   2.175 111.521 -0.2855 -0.2010  0.5418
  328TIP3    H222476   0.243   2.111 111.412  0.7550 -0.1837 -0.2801
  329TIP3   OH222477   0.725   2.316  19.535 -0.0421  0.0977 -0.0023
  329TIP3    H122478   0.816   2.291  19.551 -0.1993 -0.9608 -0.6759
  329TIP3    H222479   0.730   2.404  19.499  0.7813 -0.2916 -0.8695
  330TIP3   OH222480   2.290   1.887 100.553  0.1175  0.2670 -0.0754
  330TIP3    H122481   2.266   1.826 100.484 -0.7516 -0.9511  1.2301
  330TIP3    H222482   2.229   1.961 100.542 -0.8909 -0.5021  0.1358
  331TIP3   OH222483   0.494   1.218  36.182  0.0058 -0.0070  0.3730
  331TIP3    H122484   0.486   1.280  36.109 -1.6626  0.0231  0.5435
  331TIP3    H222485   0.478   1.271  36.260 -0.4992 -0.4506  0.5835
  332TIP3   OH222486   1.204   2.583 110.236 -0.0621  0.4124  0.3167
  332TIP3    H122487   1.250   2.547 110.312  0.7245  0.1888 -0.2511
  332TIP3    H222488   1.272   2.594 110.169 -0.6763  0.9376 -0.2410
  333TIP3   OH222489   0.081   0.083  48.160  0.2912 -0.1066  0.0169
  333TIP3    H122490   0.019   0.055  48.093 -0.8759 -3.4847  2.2481
  333TIP3    H222491   0.119   0.001  48.193  3.4920  1.6175  1.0910
  334TIP3   OH222492   0.725   0.429 101.422  0.2827 -0.5208  0.8135
  334TIP3    H122493   0.781   0.506 101.436 -1.2761  1.2508 -1.8184
  334TIP3    H222494   0.693   0.407 101.510  3.7439 -0.6787  2.1986
  335TIP3   OH222495   1.797   0.155  97.427 -0.2790 -0.1291  0.2050
  335TIP3    H122496   1.830   0.120  97.509  1.3682  1.1434  0.1293
  335TIP3    H222497   1.743   0.230  97.453 -0.4635 -0.2489  0.1675
  336TIP3   OH222498   1.027   0.556  18.417 -0.2545  0.7343  0.5165
  336TIP3    H122499   0.971   0.566  18.495  1.2241  0.6062  1.6332
  336TIP3    H222500   1.075   0.475  18.432  0.5136  1.0388 -0.2470
  337TIP3   OH222501   2.353   0.207  95.726 -0.3145  0.2066  0.3055
  337TIP3    H122502   2.350   0.233  95.819  0.5018  1.0448  0.1034
  337TIP3    H222503   2.313   0.121  95.725  0.3282 -0.1378  1.5639
  338TIP3   OH222504   0.914   0.462  19.630 -0.2683  0.1071  0.2537
  338TIP3    H122505   0.837   0.461  19.573 -0.7549  0.4949  0.8927
  338TIP3    H222506   0.956   0.377  19.615  0.5031  0.7971 -1.8499
  339TIP3   OH222507   1.901   1.112 101.573  0.1928  0.6272 -0.3612
  339TIP3    H122508   1.841   1.052 101.618 -1.2068  2.8387  0.9340
  339TIP3    H222509   1.988   1.077 101.591 -0.5637 -1.3844 -0.2983
  340TIP3   OH222510   2.554   2.079  98.364 -0.2257 -0.4607  0.2572
  340TIP3    H122511   2.462   2.082  98.390  0.0604 -0.5732  1.3604
  340TIP3    H222512   2.599   2.044  98.441  1.0408  1.7651  0.6223
  341TIP3   OH222513   1.536   2.120  36.696  0.1482 -0.1721  0.7756
  341TIP3    H122514   1.619   2.073  36.686  0.5412  0.4115  1.1961
  341TIP3    H222515   1.538   2.152  36.786 -1.5253 -1.9867  1.5176
  342TIP3   OH222516   1.935   2.467  78.527 -0.2425 -0.1096  0.0975
  342TIP3    H122517   1.938   2.517  78.608  0.4795 -1.9800  1.2783
  342TIP3    H222518   2.027   2.452  78.505 -0.4248  0.4854 -1.1693
  343TIP3   OH222519   0.968   2.320   0.535 -0.1430  0.5153 -0.0650
  343TIP3    H122520   0.978   2.298   0.627 -0.6850  0.2865 -0.0517
  343TIP3    H222521   0.926   2.406   0.535 -0.3114  0.4342 -0.0931
  344TIP3   OH222522   0.815   1.252  16.092 -0.0220  0.4885 -0.4296
  344TIP3    H122523   0.723   1.253  16.067 -0.2216  0.5436  0.2881
  344TIP3    H222524   0.863   1.257  16.009 -0.6274 -1.3829 -0.9365
  345TIP3   OH222525   0.754   0.481  21.439  0.1441  0.3162  0.0224
  345TIP3    H122526   0.848   0.472  21.454  0.1055  2.5585  2.3838
  345TIP3    H222527   0.732   0.411  21.378  3.3249 -0.2726 -0.6128
  346TIP3   OH222528   0.761   1.201  81.745  0.0677  0.7433  0.1255
  346TIP3    H122529   0.790   1.157  81.825  0.2064  1.2695  0.3695
  346TIP3    H222530   0.838   1.202  81.689 -0.0230  0.3956 -0.0095
  347TIP3   OH222531   1.212   2.170   0.766 -0.0944 -0.0205  0.0082
  347TIP3    H122532   1.124   2.152   0.732 -0.2224  0.3040  0.1620
  347TIP3    H222533   1.264   2.188   0.689 -0.3688  0.6509 -0.0245
  348TIP3   OH222534   0.222   1.157  88.086 -0.7812  0.3156  0.0448
  348TIP3    H122535   0.207   1.251  88.086  1.1456  0.6755 -0.6402
  348TIP3    H222536   0.309   1.147  88.124 -0.8528 -1.1666 -0.1252
  349TIP3   OH222537   2.257   0.653   7.174 -0.1973  0.1568  0.1409
  349TIP3    H122538   2.208   0.735   7.169 -1.0739 -0.4030 -1.8699
  349TIP3    H222539   2.191   0.585   7.157  1.0425 -0.7030 -1.5594
  350TIP3   OH222540   1.819   1.217 106.900  0.2482  0.0549  0.4589
  350TIP3    H122541   1.896   1.262 106.864  1.5274 -1.4127  1.2426
  350TIP3    H222542   1.803   1.262 106.983  0.0731  0.5606  0.1516
  351TIP3   OH222543   2.094   0.882  92.087  0.0620  0.4714 -0.0892
  351TIP3    H122544   2.118   0.912  92.000  0.2646 -0.7219 -0.4728
  351TIP3    H222545   2.163   0.916  92.144  0.0598  1.0530 -0.4381
  352TIP3   OH222546   0.510   1.873 100.786 -0.1659  0.3434 -0.0724
  352TIP3    H122547   0.510   1.847 100.878 -0.7013  0.0496 -0.1499
  352TIP3    H222548   0.595   1.845 100.753  0.1153  0.6490  0.3854
  353TIP3   OH222549   0.196   0.934  25.768 -0.1416 -0.0301  0.5823
  353TIP3    H122550   0.166   0.891  25.688  1.8339 -0.1772 -0.1290
  353TIP3    H222551   0.150   1.018  25.768  0.2328  0.2079 -1.0108
  354TIP3   OH222552   1.817   2.207  87.588  0.4849  0.2441 -0.3245
  354TIP3    H122553   1.844   2.268  87.656  3.3769 -1.3849  0.1165
  354TIP3    H222554   1.865   2.235  87.510 -1.3259  0.9233 -1.2558
  355TIP3   OH222555   1.803   2.647  87.700  0.7445  0.3961  0.1012
  355TIP3    H122556   1.854   2.692  87.633  1.5354  1.0637  1.1138
  355TIP3    H222557   1.724   2.701  87.710 -0.3858 -0.8250 -1.7090
  356TIP3   OH222558   0.450   2.048  23.804  0.1983  0.2567 -0.2427
  356TIP3    H122559   0.516   2.043  23.735 -0.2471  1.2617 -0.7754
  356TIP3    H222560   0.479   2.119  23.861  0.8018 -0.8699  0.8936
  357TIP3   OH222561   0.750   1.278  90.931  0.2382 -0.3057  0.2242
  357TIP3    H122562   0.758   1.361  90.979 -0.4122 -0.8854  1.3869
  357TIP3    H222563   0.789   1.296  90.846 -1.4494  1.7119 -0.2124
  358TIP3   OH222564   1.977   0.297  86.532  0.5157  0.6156 -0.1666
  358TIP3    H122565   2.001   0.233  86.465 -0.7744 -0.7358  0.5894
  358TIP3    H222566   1.928   0.246  86.597 -0.9224  2.4431  0.2807
  359TIP3   OH222567   2.075   2.383  29.935 -0.0141 -0.4268  0.1724
  359TIP3    H122568   2.108   2.470  29.955 -0.5311 -0.0514 -0.5430
  359TIP3    H222569   1.985   2.383  29.970  0.1820 -0.8855  0.6974
  360TIP3   OH222570   0.006   2.067 105.403  0.1385 -0.4401  0.2693
  360TIP3    H122571   0.058   2.093 105.479  1.8643 -0.4382 -0.8593
  360TIP3    H222572   0.039   2.121 105.332 -0.6030 -1.2848 -0.7486
  361TIP3   OH222573   2.383   0.685  99.393  0.2303  0.2280  0.2907
  361TIP3    H122574   2.457   0.726  99.437  1.2694 -0.3991 -0.8317
  361TIP3    H222575   2.413   0.596  99.373 -2.1089 -1.4094  3.1069
  362TIP3   OH222576   2.553   1.111  67.263 -0.2000 -0.2168  0.6590
  362TIP3    H122577   2.504   1.055  67.203  1.6719  0.5310 -1.7281
  362TIP3    H222578   2.486   1.152  67.318 -2.1430 -0.3349 -1.4571
  363TIP3   OH222579   0.043   2.401  28.547 -0.5176 -0.2140 -0.3850
  363TIP3    H122580   0.106   2.383  28.477 -1.5291 -1.0039 -1.1148
  363TIP3    H222581   0.091   2.380  28.627  0.1779 -0.7346 -0.9146
  364TIP3   OH222582   0.810   1.988 105.493 -0.0034  0.4718  0.5491
  364TIP3    H122583   0.836   1.939 105.571 -1.1081 -0.0371  0.6140
  364TIP3    H222584   0.774   1.922 105.434 -0.9370  1.1168  0.3804
  365TIP3   OH222585   0.066   0.117  14.130 -0.1250 -0.2786 -0.5908
  365TIP3    H122586   0.127   0.188  14.146 -0.8205  0.0072  0.9790
  365TIP3    H222587   0.083   0.054  14.201 -0.6586 -0.8789 -0.9787
  366TIP3   OH222588   2.085   0.911  87.027  0.1205  0.5745 -0.0746
  366TIP3    H122589   2.121   0.989  87.069 -2.8154  1.9359  0.1435
  366TIP3    H222590   1.990   0.919  87.038 -0.3503 -2.6003 -0.8471
  367TIP3   OH222591   1.587   1.951  82.680  0.3202  0.5158  0.5202
  367TIP3    H122592   1.680   1.947  82.703  0.7128  0.1052 -1.0302
  367TIP3    H222593   1.585   1.999  82.597 -0.5658 -1.5989 -0.7658
  368TIP3   OH222594   1.916   2.138  33.442  0.0061 -0.1824  0.1879
  368TIP3    H122595   1.833   2.146  33.489 -1.6728  0.6039 -2.6529
  368TIP3    H222596   1.952   2.227  33.442  0.6402 -0.4189  0.9465
  369TIP3   OH222597   0.187   2.068  94.555 -0.1413  0.1090 -0.5899
  369TIP3    H122598   0.130   2.073  94.631  0.1364 -2.2083 -0.1443
  369TIP3    H222599   0.218   2.158  94.542  0.1670  0.5209  2.3257
  370TIP3   OH222600   0.914   1.236 105.215 -0.4400 -0.2133 -0.3690
  370TIP3    H122601   0.961   1.155 105.235  0.2059  0.0422 -0.8115
  370TIP3    H222602   0.982   1.296 105.185 -1.0166  0.2531 -0.7592
  371TIP3   OH222603   0.734   1.342  77.937 -0.4143  0.7782  0.3937
  371TIP3    H122604   0.657   1.354  77.883 -0.5618  0.1622  0.4616
  371TIP3    H222605   0.764   1.431  77.957  1.2517  1.1443 -2.9436
  372TIP3   OH222606   0.515   0.384  19.925  0.1835 -0.0815 -0.0560
  372TIP3    H122607   0.498   0.291  19.941 -1.5849  0.3278  0.7068
  372TIP3    H222608   0.610   0.390  19.919  0.3851 -1.8017  0.7624
  373TIP3   OH222609   0.125   0.194  26.895  0.6399  0.0613  0.1428
  373TIP3    H122610   0.065   0.134  26.851 -0.4226 -0.2471  1.9291
  373TIP3    H222611   0.146   0.150  26.978  0.9824  1.5005  0.8486
  374TIP3   OH222612   2.314   2.266  93.460 -0.1688 -0.3765  0.0551
  374TIP3    H122613   2.249   2.331  93.434 -0.1874 -0.5108 -0.2361
  374TIP3    H222614   2.284   2.235  93.546 -0.5254 -0.4831 -0.1024
  375TIP3   OH222615   1.789   1.180  78.461 -0.1876  0.0138 -0.0288
  375TIP3    H122616   1.853   1.108  78.460  0.3015  0.2276  3.3491
  375TIP3    H222617   1.719   1.148  78.519 -1.8790  0.8511 -1.5116
  376TIP3   OH222618   2.256   2.476 105.351  0.5385 -0.4875  0.7581
  376TIP3    H122619   2.308   2.540 105.400  1.2844 -0.0436 -0.5599
  376TIP3    H222620   2.321   2.412 105.320 -0.0107 -1.1212  0.8926
  377TIP3   OH222621   1.230   2.098 100.890  0.3579 -0.1698 -0.6627
  377TIP3    H122622   1.256   2.030 100.953  0.7342  0.0053 -0.6237
  377TIP3    H222623   1.190   2.050 100.818  1.2404 -0.5009 -0.9453
  378TIP3   OH222624   2.508   1.695  23.782 -0.1878  0.2382 -0.3899
  378TIP3    H122625   2.574   1.729  23.842 -0.1687 -0.7742  0.1945
  378TIP3    H222626   2.558   1.639  23.722 -0.5635 -1.1157  0.5017
  379TIP3   OH222627   0.203   2.129  98.078 -0.1877  0.2173 -0.1243
  379TIP3    H122628   0.139   2.201  98.083 -1.1246 -0.5715 -0.4248
  379TIP3    H222629   0.236   2.121  98.168  0.7516  1.7234 -0.2994
  380TIP3   OH222630   0.418   1.524  27.779  0.5034 -0.8306 -0.4119
  380TIP3    H122631   0.452   1.440  27.809 -0.7934 -1.2858 -0.1631
  380TIP3    H222632   0.495   1.581  27.776  1.4649 -2.0960 -0.8864
  381TIP3   OH222633   2.638   1.046  25.236  0.3897 -0.2244 -0.2406
  381TIP3    H122634   2.684   1.070  25.316  0.4203 -1.3269  0.0863
  381TIP3    H222635   2.546   1.060  25.256  0.2995 -1.5254  0.3904
  382TIP3   OH222636   1.083   0.907  80.543 -0.6511 -0.1102 -0.1723
  382TIP3    H122637   1.154   0.968  80.565 -0.6541 -0.5986  1.3371
  382TIP3    H222638   1.127   0.824  80.526 -0.8154 -0.3651  0.5787
  383TIP3   OH222639   0.767   2.485   1.542 -1.1100 -0.2076  0.0280
  383TIP3    H122640   0.689   2.530   1.509 -1.3734  0.4328  1.4480
  383TIP3    H222641   0.761   2.492   1.637  1.0703  0.5409  0.1745
  384TIP3   OH222642   1.565   1.603  74.273  0.0297 -0.1285  0.1354
  384TIP3    H122643   1.625   1.668  74.309 -0.7274 -1.1487  3.6053
  384TIP3    H222644   1.580   1.525  74.327 -2.6246 -1.1963 -0.5341
  385TIP3   OH222645   1.896   1.607  79.571 -0.0214 -0.7231  0.0502
  385TIP3    H122646   1.916   1.700  79.584  2.2195 -0.9463 -1.2169
  385TIP3    H222647   1.801   1.602  79.568 -0.2622  2.1943 -3.9104
  386TIP3   OH222648   1.463   0.931  15.876  0.0041 -0.3384  0.4247
  386TIP3    H122649   1.466   0.887  15.961  0.5371 -0.2046  0.4817
  386TIP3    H222650   1.373   0.921  15.847 -0.2901 -0.0258  1.2014
  387TIP3   OH222651   1.652   2.375 105.958  0.1706  0.0993 -0.2307
  387TIP3    H122652   1.567   2.367 106.001  0.4872  0.1448  0.3989
  387TIP3    H222653   1.634   2.429 105.880 -0.3124  0.3987  0.0827
  388TIP3   OH222654   2.284   1.483 109.875 -0.5344  0.1986  0.0715
  388TIP3    H122655   2.206   1.450 109.831 -1.3294 -1.0238  2.2920
  388TIP3    H222656   2.252   1.523 109.956  1.1318 -0.7411  1.2792
  389TIP3   OH222657   0.505   0.043  88.096 -0.3146 -0.1245  0.1023
  389TIP3    H122658   0.552  -0.010  88.031 -0.4408  1.8763 -1.7013
  389TIP3    H222659   0.463   0.112  88.046 -2.2854  0.2393  2.0903
  390TIP3   OH222660   0.006   2.533   5.851  0.6172 -0.3351 -1.2114
  390TIP3    H122661  -0.011   2.446   5.887 -1.1372  0.9947  1.4701
  390TIP3    H222662  -0.054   2.540   5.776 -1.5740 -0.3674  0.4543
  391TIP3   OH222663   1.693   1.707  99.334  0.2217 -0.1518  0.4406
  391TIP3    H122664   1.773   1.657  99.318  1.0066  0.4383  2.2343
  391TIP3    H222665   1.626   1.663  99.283  1.2179 -2.0868  0.7247
  392TIP3   OH222666   1.512   0.088   9.433  0.2915  0.0548 -0.0852
  392TIP3    H122667   1.485   0.107   9.343 -1.9976  1.0170  0.7352
  392TIP3    H222668   1.433   0.055   9.475  1.1414  0.2674  1.7581
  393TIP3   OH222669   2.398   0.319   6.629  0.2208  0.0509 -0.2171
  393TIP3    H122670   2.448   0.381   6.576 -0.4048  0.4279 -0.3715
  393TIP3    H222671   2.465   0.269   6.676  0.7478  0.4432 -0.5353
  394TIP3   OH222672   1.073   0.676  86.679 -0.4615 -0.1916 -0.0231
  394TIP3    H122673   1.166   0.683  86.701 -0.5007 -0.5359  0.2599
  394TIP3    H222674   1.055   0.754  86.627 -0.3698  0.7003  1.2266
  395TIP3   OH222675   0.025   1.805  28.717 -0.1743 -0.3460  0.0646
  395TIP3    H122676   0.096   1.865  28.695  0.0530  0.4213  2.5506
  395TIP3    H222677   0.063   1.718  28.705  1.7102  0.0172  2.4405
  396TIP3   OH222678   1.890   0.724  18.059 -0.6239  0.0608 -0.1157
  396TIP3    H122679   1.868   0.631  18.049 -0.7265 -0.0161  0.7766
  396TIP3    H222680   1.887   0.759  17.970 -0.8864 -0.7233 -0.4213
  397TIP3   OH222681   1.826   1.805  63.503 -0.7791 -0.4075  0.3491
  397TIP3    H122682   1.895   1.785  63.439 -0.0548  0.5193  0.8196
  397TIP3    H222683   1.774   1.725  63.508  1.6135 -2.0152  1.6827
  398TIP3   OH222684   1.938   2.128  35.244  0.3551 -0.6936  0.3831
  398TIP3    H122685   1.947   2.117  35.338  1.7616 -0.2189  0.3319
  398TIP3    H222686   2.026   2.110  35.209  0.4534  1.3324 -0.5970
  399TIP3   OH222687   1.612   0.820  75.447  0.7299  0.1563  0.1472
  399TIP3    H122688   1.579   0.881  75.381  1.6895  2.9526  2.1033
  399TIP3    H222689   1.539   0.809  75.508 -0.0862 -2.2715 -1.1142
  400TIP3   OH222690   0.876   2.133  91.273  0.6920 -0.1381 -0.0633
  400TIP3    H122691   0.807   2.066  91.279 -0.2720  0.6839 -1.4817
  400TIP3    H222692   0.945   2.101  91.331 -0.4699 -1.4856  0.6355
  401TIP3   OH222693   2.409   0.026  84.436  0.5022  0.1673  0.0055
  401TIP3    H122694   2.425  -0.062  84.468 -1.0354  0.1074  0.6734
  401TIP3    H222695   2.417   0.082  84.514  0.0211  0.4346 -0.1332
  402TIP3   OH222696   2.682   2.478  20.024  0.2979  0.3009  0.1023
  402TIP3    H122697   2.661   2.478  20.118 -1.0831 -0.8828 -0.1685
  402TIP3    H222698   2.604   2.516  19.983  0.1015 -0.9197 -0.6872
  403TIP3   OH222699   1.939   2.329 100.055 -0.0918 -0.0201  0.6057
  403TIP3    H122700   1.913   2.371 100.136 -0.5649 -0.9283  0.9390
  403TIP3    H222701   1.858   2.296 100.018  0.2614 -0.5984  0.3339
  404TIP3   OH222702   2.456   2.219  98.708 -0.1706  0.5902 -0.1210
  404TIP3    H122703   2.426   2.187  98.793 -0.5663  1.1752 -0.0301
  404TIP3    H222704   2.465   2.140  98.655  1.8225  0.0043  0.9823
  405TIP3   OH222705   1.137   2.194  84.778 -0.4290  0.9873  0.5813
  405TIP3    H122706   1.067   2.228  84.833 -0.2336  0.9036  0.8853
  405TIP3    H222707   1.101   2.196  84.689 -0.5792  1.5485  0.6520
  406TIP3   OH222708   2.378   2.604   3.013 -0.4523  0.4021  0.3395
  406TIP3    H122709   2.373   2.650   3.097  1.8630  0.9616  0.2478
  406TIP3    H222710   2.426   2.664   2.956 -0.4035 -0.7091 -0.8319
  407TIP3   OH222711   1.186   1.200 101.435  0.0316  0.3702  0.0854
  407TIP3    H122712   1.201   1.228 101.525  0.4687  1.8344 -0.4148
  407TIP3    H222713   1.272   1.173 101.404  0.3098  1.8493 -0.5144
  408TIP3   OH222714   2.278   2.553  26.662 -0.0585 -0.2822  0.4419
  408TIP3    H122715   2.341   2.585  26.727  1.3753 -2.7211  0.3715
  408TIP3    H222716   2.303   2.597  26.581  0.4613  0.0873  0.7930
  409TIP3   OH222717   2.392   0.625  74.931  0.4581 -0.2949  0.2126
  409TIP3    H122718   2.349   0.658  74.852 -0.2218  1.1912  1.1524
  409TIP3    H222719   2.345   0.544  74.952  2.0472 -1.9255 -2.0464
  410TIP3   OH222720   1.761   0.130  14.136 -0.4059  0.3361 -0.0144
  410TIP3    H122721   1.783   0.168  14.051  1.1954  0.2231  0.3220
  410TIP3    H222722   1.827   0.164  14.196 -0.8918 -0.3981  0.9732
  411TIP3   OH222723   0.551   2.578  98.359 -0.3679 -0.7698 -0.1077
  411TIP3    H122724   0.540   2.593  98.453  0.9411 -0.3656  0.0039
  411TIP3    H222725   0.617   2.641  98.332  0.1928 -1.7265 -1.0434
  412TIP3   OH222726   2.258   2.497  18.801  0.4589  0.0369 -0.6374
  412TIP3    H122727   2.266   2.499  18.896 -0.4012 -0.4882 -0.5444
  412TIP3    H222728   2.168   2.525  18.783  0.0759 -1.4504 -1.1941
  413TIP3   OH222729   1.680   0.998   1.663  0.0873 -0.5897  0.0815
  413TIP3    H122730   1.674   0.978   1.757 -1.3797  1.6205  0.5425
  413TIP3    H222731   1.634   0.926   1.621 -0.5461 -0.8645  1.1917
  414TIP3   OH222732   2.619   1.647  83.634  0.6846 -0.2182 -0.2762
  414TIP3    H122733   2.582   1.726  83.594 -1.5455 -0.4132  1.2279
  414TIP3    H222734   2.668   1.605  83.563 -1.9725  0.0976 -2.4886
  415TIP3   OH222735   2.074   2.601  22.378 -0.1234  0.0891  0.0462
  415TIP3    H122736   2.066   2.513  22.342 -1.2225  0.3352 -0.3605
  415TIP3    H222737   2.155   2.635  22.340 -0.2675 -0.3533 -0.6709
  416TIP3   OH222738   2.663   1.986 106.169 -0.1468  0.8793  0.2804
  416TIP3    H122739   2.596   1.931 106.210 -0.2188  0.4203 -0.4490
  416TIP3    H222740   2.733   1.991 106.234 -0.2164  0.0708  0.4207
  417TIP3   OH222741   2.264   0.098  30.478  0.2134 -0.0221 -0.0706
  417TIP3    H122742   2.237   0.011  30.449 -0.8403  0.5994 -1.0437
  417TIP3    H222743   2.209   0.117  30.553  0.2998 -0.1065  0.0143
  418TIP3   OH222744   0.068   1.509  84.699 -0.3342 -0.3678 -0.4595
  418TIP3    H122745   0.123   1.432  84.682 -0.1134 -0.0991 -1.0102
  418TIP3    H222746   0.083   1.565  84.623 -1.3295 -0.2603 -0.5851
  419TIP3   OH222747   1.638   2.064 104.388  0.3640  0.6106  0.1848
  419TIP3    H122748   1.715   2.028 104.433  1.5842  1.8239 -0.8686
  419TIP3    H222749   1.632   2.154 104.419  0.6862  1.1904 -1.3540
  420TIP3   OH222750   0.149   2.485  67.900  0.2549  0.3248 -0.1436
  420TIP3    H122751   0.244   2.498  67.889  0.9664 -3.2667  0.4488
  420TIP3    H222752   0.118   2.465  67.812  0.5335 -0.7760 -0.0074
  421TIP3   OH222753   0.289   0.797  12.730 -0.3063  0.4344 -0.0253
  421TIP3    H122754   0.295   0.776  12.823  0.0117  2.3527  0.4166
  421TIP3    H222755   0.196   0.799  12.711 -0.4278  1.4375  0.6150
  422TIP3   OH222756   2.579   0.495  10.057  0.5076  0.2884  0.1171
  422TIP3    H122757   2.569   0.585  10.028 -0.8912  0.9386  2.4343
  422TIP3    H222758   2.669   0.489  10.088  0.5084  0.9709  0.2489
  423TIP3   OH222759   1.716   1.032  74.399 -0.3182 -0.1860 -0.1995
  423TIP3    H122760   1.737   0.958  74.456 -1.0215  0.3164  0.7450
  423TIP3    H222761   1.629   1.012  74.364  0.2968 -0.7123 -1.5058
  424TIP3   OH222762   2.640   2.523  29.640  0.5051  0.7552 -0.6163
  424TIP3    H122763   2.623   2.520  29.546  0.0034 -2.9252 -0.5572
  424TIP3    H222764   2.716   2.467  29.653  0.3215  0.8670  1.1939
  425TIP3   OH222765   0.530   2.005   6.161  0.2690  0.1046  0.0959
  425TIP3    H122766   0.518   1.956   6.243 -2.1127  0.7247  0.1884
  425TIP3    H222767   0.552   2.094   6.189 -0.3750  0.2750  0.0751
  426TIP3   OH222768   2.233   0.205 109.643 -0.1063 -0.6681  0.0519
  426TIP3    H122769   2.141   0.203 109.616  0.0272 -1.5738 -0.3815
  426TIP3    H222770   2.251   0.116 109.672  0.4080 -0.2835  0.9452
  427TIP3   OH222771   1.442   2.248  74.468 -0.6268 -0.3762 -0.1758
  427TIP3    H122772   1.427   2.279  74.378 -0.5136 -0.1010 -0.1083
  427TIP3    H222773   1.474   2.159  74.458  0.9504  0.1847 -0.5095
  428TIP3   OH222774   1.294   1.231 111.802  0.1638 -0.1274  0.5742
  428TIP3    H122775   1.368   1.276 111.763 -1.5342  1.0157 -1.5686
  428TIP3    H222776   1.296   1.143 111.764  0.9961 -0.4490  1.3435
  429TIP3   OH222777   1.623   0.454  37.144  0.0756  0.4074  0.7733
  429TIP3    H122778   1.697   0.470  37.202  0.2303  2.3697  0.1289
  429TIP3    H222779   1.659   0.463  37.056 -0.6164 -0.1934  0.4193
  430TIP3   OH222780   0.666   1.512  32.364 -0.4276  0.1760  0.4896
  430TIP3    H122781   0.691   1.530  32.455 -0.8356  2.0005  0.2729
  430TIP3    H222782   0.610   1.585  32.339  0.3083  0.1327 -1.4815
  431TIP3   OH222783   0.323   2.660  34.529  0.0285  0.2088  0.2257
  431TIP3    H122784   0.412   2.649  34.561 -0.5020  0.9003  2.0443
  431TIP3    H222785   0.273   2.589  34.569 -0.3249  0.0246 -0.5124
  432TIP3   OH222786   2.095   2.441  34.131  0.8977 -0.4038 -1.0269
  432TIP3    H122787   2.004   2.457  34.154  0.7444 -3.1299  0.7243
  432TIP3    H222788   2.125   2.524  34.094 -1.5156  1.4523  0.7813
  433TIP3   OH222789   0.889   0.976  30.460  0.0053 -0.0094 -0.3625
  433TIP3    H122790   0.919   0.887  30.477  0.1443  0.2246  0.7149
  433TIP3    H222791   0.966   1.030  30.476  0.2906  0.2233 -2.2864
  434TIP3   OH222792   0.367   1.260  37.074  0.5517 -0.1960  0.3449
  434TIP3    H122793   0.294   1.320  37.088  2.5471  2.1063  1.8094
  434TIP3    H222794   0.413   1.296  36.998  0.5412 -1.2238 -0.1549
  435TIP3   OH222795   1.715   2.279  28.199  0.8960 -0.1079 -0.0085
  435TIP3    H122796   1.736   2.236  28.282  0.5126 -0.4471 -0.0864
  435TIP3    H222797   1.658   2.352  28.224  1.1457  0.0630  0.0702
  436TIP3   OH222798   2.277   1.928   9.095  0.4407 -0.0188 -0.0788
  436TIP3    H122799   2.301   1.850   9.045 -1.1267 -0.8707  0.4598
  436TIP3    H222800   2.242   1.895   9.177  0.4940  1.2892  0.4974
  437TIP3   OH222801   0.626   1.138  83.576  0.2597 -0.1509 -0.0017
  437TIP3    H122802   0.652   1.109  83.664  1.6039  1.3828  0.1485
  437TIP3    H222803   0.594   1.227  83.588 -3.0139 -1.1250 -0.5735
  438TIP3   OH222804   0.186   2.352  26.582  0.5016 -0.3328 -0.1919
  438TIP3    H122805   0.117   2.285  26.583  1.8250 -1.7347  0.0554
  438TIP3    H222806   0.218   2.352  26.492 -1.1105  1.7538 -0.8415
  439TIP3   OH222807   0.352   0.431  82.457  0.1165  0.6792  0.3084
  439TIP3    H122808   0.276   0.411  82.401  0.7512  1.4678 -0.8974
  439TIP3    H222809   0.315   0.447  82.543 -1.2750  2.2752 -0.5222
  440TIP3   OH222810   0.829   1.752   0.852 -0.4218  0.2685 -0.0596
  440TIP3    H122811   0.753   1.771   0.906 -0.3976  0.5890 -0.1364
  440TIP3    H222812   0.898   1.732   0.915  0.3313  3.1751  0.2028
  441TIP3   OH222813   2.531   0.540  21.584 -0.4598 -0.0755  0.0407
  441TIP3    H122814   2.480   0.484  21.525 -1.2279 -0.5927  1.1650
  441TIP3    H222815   2.622   0.519  21.562 -0.7274 -0.5759 -0.6598
  442TIP3   OH222816   2.018   2.147  24.579  0.5343  0.8156  0.1601
  442TIP3    H122817   1.949   2.084  24.599  1.8007  0.0894  2.6365
  442TIP3    H222818   2.040   2.130  24.487  0.0028 -1.5405  0.4074
  443TIP3   OH222819   2.005   1.134  88.805 -0.3442  0.2685  0.4461
  443TIP3    H122820   2.028   1.132  88.898  0.4512 -1.7411  0.2667
  443TIP3    H222821   1.937   1.067  88.796 -1.3180  1.3083 -0.2444
  444TIP3   OH222822   2.239   2.450  11.216 -0.4439 -0.3181 -0.1824
  444TIP3    H122823   2.194   2.487  11.140  0.7464  0.6421 -0.4548
  444TIP3    H222824   2.314   2.507  11.229  0.3979 -1.5540  0.5873
  445TIP3   OH222825   1.032   0.666  33.038  0.0208 -0.3508  0.3588
  445TIP3    H122826   1.100   0.694  33.099  1.0612 -0.3842 -0.7376
  445TIP3    H222827   1.016   0.575  33.059  0.3592 -0.3542  0.6073
  446TIP3   OH222828   1.171   0.432  11.030  0.6091  0.0481 -0.3602
  446TIP3    H122829   1.112   0.485  11.082  0.2642 -0.6263 -0.0615
  446TIP3    H222830   1.236   0.399  11.092  1.2098  0.6498 -0.6560
  447TIP3   OH222831   1.681   0.749  63.445  0.8373  0.1961 -0.8781
  447TIP3    H122832   1.603   0.694  63.440 -0.1609  1.2847  1.4674
  447TIP3    H222833   1.699   0.758  63.538  1.3217  3.3180 -1.1560
  448TIP3   OH222834   0.533   1.577  25.269  0.5462 -0.3081  0.2059
  448TIP3    H122835   0.564   1.505  25.215  0.7777  1.0332 -1.5361
  448TIP3    H222836   0.455   1.609  25.224  0.2787  0.3507  1.1010
  449TIP3   OH222837   2.638   0.858  24.028 -0.4990 -0.3525  0.8818
  449TIP3    H122838   2.547   0.844  24.054 -0.2075 -3.0294  0.7549
  449TIP3    H222839   2.683   0.878  24.110 -1.2038  1.2578  0.9067
  450TIP3   OH222840   1.876   1.511   5.014  0.3873 -0.1305 -0.0678
  450TIP3    H122841   1.868   1.601   4.983  0.5085  0.4842  1.5740
  450TIP3    H222842   1.800   1.499   5.071  1.1285 -0.5728  0.8544
  451TIP3   OH222843   2.024   1.002   0.225 -0.1026 -0.1780 -0.1732
  451TIP3    H122844   2.005   0.966   0.138 -0.4393 -1.4669  0.4023
  451TIP3    H222845   1.957   1.069   0.239 -0.0625  0.0149 -0.8957
  452TIP3   OH222846   1.216   2.340  92.883  0.2311 -0.0850 -0.3199
  452TIP3    H122847   1.292   2.390  92.853 -0.1539 -0.2175 -1.5735
  452TIP3    H222848   1.251   2.281  92.949  0.9230  0.9795  0.2971
  453TIP3   OH222849   2.299   1.998   3.386 -0.0788  0.4508  0.0305
  453TIP3    H122850   2.237   2.054   3.340 -1.1388 -0.4725  0.3021
  453TIP3    H222851   2.309   1.921   3.330  0.1044  0.1858  0.4186
  454TIP3   OH222852   2.409   2.623 100.923 -0.4330  0.0029 -0.4269
  454TIP3    H122853   2.320   2.595 100.940 -0.8272  0.5365 -1.5409
  454TIP3    H222854   2.430   2.586 100.837  1.2234 -1.9690  0.7240
  455TIP3   OH222855   2.636   1.442  74.672  0.1006 -0.1715  0.0078
  455TIP3    H122856   2.652   1.536  74.665 -0.0746 -0.1524 -0.1515
  455TIP3    H222857   2.593   1.419  74.590  1.7174 -0.7174 -0.7363
  456TIP3   OH222858   0.362   0.850   6.509  0.1247 -0.0138  0.2642
  456TIP3    H122859   0.296   0.788   6.542 -0.0721 -0.0973 -0.2739
  456TIP3    H222860   0.361   0.837   6.414  0.9502 -0.0452  0.2544
  457TIP3   OH222861   0.940   0.306  69.416 -1.0198 -0.1749 -0.3365
  457TIP3    H122862   0.864   0.315  69.359 -0.6644  2.5545 -0.4807
  457TIP3    H222863   0.962   0.395  69.442  1.4438 -0.9809  0.6479
  458TIP3   OH222864   2.620   0.944  81.825 -0.0019 -0.3545 -0.3933
  458TIP3    H122865   2.624   0.962  81.732 -1.3478  0.8867 -0.2397
  458TIP3    H222866   2.527   0.937  81.845  0.2760 -1.7041  0.6844
  459TIP3   OH222867   0.645   1.166  13.597  0.3561 -0.0958  0.6343
  459TIP3    H122868   0.618   1.239  13.653 -0.4253 -1.1873  1.7363
  459TIP3    H222869   0.671   1.097  13.658  0.4657 -0.9690 -0.3646
  460TIP3   OH222870   1.203   0.713  26.278 -0.1131 -0.4414  0.4187
  460TIP3    H122871   1.170   0.648  26.339 -0.9378 -1.7741 -1.3755
  460TIP3    H222872   1.140   0.713  26.206  1.1527  0.6140 -0.7419
  461TIP3   OH222873   1.890   0.874  94.970 -0.2840  0.0146  0.4632
  461TIP3    H122874   1.862   0.850  94.882  2.6113  0.1642 -0.6103
  461TIP3    H222875   1.826   0.940  94.998  0.1131  1.9640 -2.6518
  462TIP3   OH222876   0.361   2.602  91.009  0.5659  0.4567 -0.0289
  462TIP3    H122877   0.430   2.536  91.005 -0.2068 -0.3915  0.5197
  462TIP3    H222878   0.301   2.579  90.938  0.4641  0.7757 -0.0517
  463TIP3   OH222879   1.115   0.820   6.287 -0.4261  0.2887 -0.4500
  463TIP3    H122880   1.053   0.749   6.270 -0.6270  0.3168  0.1355
  463TIP3    H222881   1.167   0.790   6.361 -0.1441  0.5225 -0.5489
  464TIP3   OH222882   1.241   1.360  73.133  0.0225 -0.0893  0.0586
  464TIP3    H122883   1.153   1.395  73.136 -1.3462 -3.2567  1.7964
  464TIP3    H222884   1.295   1.426  73.175 -2.2148  0.4066  2.3821
  465TIP3   OH222885   1.661   0.612 105.908 -0.0422 -0.0727 -0.5644
  465TIP3    H122886   1.731   0.676 105.922  0.2332 -0.1904 -1.3354
  465TIP3    H222887   1.652   0.606 105.812 -0.0129 -1.2367 -0.5164
  466TIP3   OH222888   1.015   0.940  93.737  0.0448 -0.1203  0.4478
  466TIP3    H122889   0.920   0.929  93.739 -0.2281  1.7125 -0.4778
  466TIP3    H222890   1.039   0.929  93.645  0.7781 -0.8159  0.7081
  467TIP3   OH222891   0.295   2.296  34.136 -0.1795  0.2080  0.0460
  467TIP3    H122892   0.305   2.312  34.042 -2.1724  2.0112  0.0578
  467TIP3    H222893   0.364   2.348  34.176 -0.3632  0.7953 -0.3797
  468TIP3   OH222894   1.660   1.323  34.770  0.1881  0.4163  0.4421
  468TIP3    H122895   1.747   1.319  34.812  0.3710 -0.1599  0.0205
  468TIP3    H222896   1.610   1.254  34.814 -0.4697  1.5855  1.5782
  469TIP3   OH222897   0.154   1.555  81.846  0.0319 -0.1712 -0.0247
  469TIP3    H122898   0.205   1.474  81.846 -0.3263 -0.4048 -0.2344
  469TIP3    H222899   0.063   1.525  81.845 -0.1169  0.2059 -1.8401
  470TIP3   OH222900   0.064   1.196 104.892  0.2877 -0.0119 -0.3476
  470TIP3    H122901   0.032   1.118 104.847 -1.9574  1.5114 -1.5510
  470TIP3    H222902   0.088   1.257 104.822 -1.6873  1.7776  0.4198
  471TIP3   OH222903   0.105   0.693  60.027  0.0715  0.1323 -0.2200
  471TIP3    H122904   0.163   0.668  60.098  0.7402  3.1062  0.3924
  471TIP3    H222905   0.122   0.629  59.958 -0.0975 -2.4195  1.9517
  472TIP3   OH222906   2.294   2.632  22.232  0.4724  0.1573  0.0730
  472TIP3    H122907   2.367   2.675  22.187  1.0161 -1.1698 -0.3610
  472TIP3    H222908   2.332   2.551  22.266 -0.3495  0.3324  1.4825
  473TIP3   OH222909   2.492   2.144  33.354  0.0217 -0.2923 -0.3996
  473TIP3    H122910   2.516   2.135  33.262  0.2129  0.1724 -0.3932
  473TIP3    H222911   2.437   2.067  33.372 -0.5471 -0.0498 -1.0680
  474TIP3   OH222912   0.223   2.515   1.911  0.4147  0.1490  0.3174
  474TIP3    H122913   0.217   2.570   1.833  1.0379  0.6600  0.6235
  474TIP3    H222914   0.221   2.426   1.877  0.2477  0.3623 -0.2511
  475TIP3   OH222915   2.056   2.394  95.297  0.0530 -0.0639  0.1861
  475TIP3    H122916   2.136   2.438  95.268  0.7282  0.4596  2.5901
  475TIP3    H222917   2.085   2.305  95.319  0.2609  0.4087  2.0027
  476TIP3   OH222918   1.941   2.596  30.354  0.2423  0.9241  0.3108
  476TIP3    H122919   1.924   2.539  30.279 -0.8046 -0.0891  1.2798
  476TIP3    H222920   1.967   2.537  30.424 -0.7255  1.6177  1.3059
  477TIP3   OH222921   2.512   2.685  11.660  0.2719  0.2634 -0.1660
  477TIP3    H122922   2.546   2.717  11.744  1.1978 -0.6990 -0.1475
  477TIP3    H222923   2.510   2.590  11.670 -0.1399  0.1708 -1.0451
  478TIP3   OH222924   1.252   1.322  26.541 -0.7840 -0.3066 -0.3174
  478TIP3    H122925   1.307   1.267  26.598 -0.2716 -0.5191 -1.0134
  478TIP3    H222926   1.300   1.404  26.533 -0.6976 -0.3974 -0.7149
  479TIP3   OH222927   1.378   1.870  26.694  0.0677 -0.2492  0.2321
  479TIP3    H122928   1.307   1.931  26.713 -0.4580 -1.3439  2.0381
  479TIP3    H222929   1.453   1.905  26.743  0.1107 -0.3812  0.2606
  480TIP3   OH222930   1.163   2.378   4.440  0.2752  0.0646  0.1243
  480TIP3    H122931   1.136   2.445   4.377  0.2124 -0.7072 -0.6985
  480TIP3    H222932   1.182   2.426   4.520  0.6924  1.1167 -0.5912
  481TIP3   OH222933   2.600   2.655 110.699  0.3833 -0.2339  0.2481
  481TIP3    H122934   2.657   2.731 110.685  1.8977 -1.4742 -0.5595
  481TIP3    H222935   2.595   2.613 110.613 -2.4792  0.2675  0.0597
  482TIP3   OH222936   2.644   0.938  28.240 -0.3595 -0.5612 -0.0657
  482TIP3    H122937   2.723   0.981  28.207 -1.8979  0.5742 -2.5655
  482TIP3    H222938   2.671   0.847  28.254  1.1375 -0.4770 -1.9430
  483TIP3   OH222939   1.236   0.874 110.660  0.3298 -0.1323 -0.0102
  483TIP3    H122940   1.298   0.946 110.648  1.2444 -0.9592 -0.4026
  483TIP3    H222941   1.291   0.796 110.665 -0.6938 -0.9182 -0.5639
  484TIP3   OH222942   2.374   2.360  20.469 -0.1230  0.3877  0.6637
  484TIP3    H122943   2.375   2.283  20.527 -0.0642  1.3100  1.9162
  484TIP3    H222944   2.288   2.355  20.425 -0.1284 -0.3764  0.7378
  485TIP3   OH222945   1.106   0.307  14.241 -0.0860 -0.2091 -0.5710
  485TIP3    H122946   1.030   0.324  14.184  0.3777  0.2423 -1.0665
  485TIP3    H222947   1.149   0.231  14.202 -1.4311 -1.8052  0.9075
  486TIP3   OH222948   0.243   2.684  15.520  0.3403 -0.2660  0.1512
  486TIP3    H122949   0.163   2.677  15.468  0.2788  0.0405  0.2006
  486TIP3    H222950   0.313   2.693  15.455  0.3593 -0.7343  0.1026
  487TIP3   OH222951   1.844   1.279  93.483  0.2361 -0.2665 -0.3269
  487TIP3    H122952   1.798   1.240  93.557 -0.4223  0.3231 -0.4116
  487TIP3    H222953   1.819   1.372  93.486  1.0053 -0.0400 -0.6893
  488TIP3   OH222954   1.502   0.799   1.113  0.1971 -0.2632 -0.7398
  488TIP3    H122955   1.484   0.887   1.079 -1.2840 -0.2850 -0.0647
  488TIP3    H222956   1.593   0.782   1.087  0.1674  1.0309 -1.8008
  489TIP3   OH222957   0.861   0.089  83.115  0.0253 -0.0373 -0.1298
  489TIP3    H122958   0.769   0.085  83.142 -0.1664  0.0228 -0.7749
  489TIP3    H222959   0.872   0.177  83.079  0.1728 -0.2640 -0.6379
  490TIP3   OH222960   1.212   2.517  85.230  0.2075  0.2190 -0.0863
  490TIP3    H122961   1.267   2.539  85.305  0.6343 -0.1082 -0.2987
  490TIP3    H222962   1.256   2.558  85.155 -1.1472  2.0292  0.0546
  491TIP3   OH222963   0.581   0.454   0.516 -0.4794 -0.2887 -0.1996
  491TIP3    H122964   0.617   0.377   0.471  0.1312  0.0236 -0.2638
  491TIP3    H222965   0.647   0.476   0.581 -0.1683  0.7696 -0.8499
  492TIP3   OH222966   0.716   1.017  12.751  0.5037 -0.3442  0.0365
  492TIP3    H122967   0.800   1.010  12.797 -0.1589 -0.4993  1.2707
  492TIP3    H222968   0.737   1.063  12.670  1.7953 -0.4568  0.2848
  493TIP3   OH222969   0.027   0.426  86.421  0.4018 -0.5248  0.4839
  493TIP3    H122970   0.048   0.474  86.502  1.1814 -0.3596  0.1899
  493TIP3    H222971  -0.027   0.487  86.370 -0.1345 -0.6476  0.8976
  494TIP3   OH222972   0.075   1.992  78.921 -0.3465  0.3838 -1.0937
  494TIP3    H122973   0.060   2.064  78.859  2.4938  1.4421 -0.6991
  494TIP3    H222974   0.132   1.932  78.873 -0.2576 -0.0903 -0.3930
  495TIP3   OH222975   1.257   1.898  90.293  0.2266 -0.1696  0.2448
  495TIP3    H122976   1.222   1.905  90.204  1.8178  0.1244 -0.3878
  495TIP3    H222977   1.325   1.966  90.297  1.4521 -1.3898  1.0372
  496TIP3   OH222978   0.277   2.058  18.218  0.9780  0.0329 -0.0071
  496TIP3    H122979   0.274   1.971  18.258 -0.4287 -0.1940 -0.5483
  496TIP3    H222980   0.361   2.061  18.173  1.5531 -0.6001  0.9888
  497TIP3   OH222981   1.467   0.469  79.717  1.3716  0.4802  0.0079
  497TIP3    H122982   1.426   0.510  79.640  1.7366 -0.2365 -0.5791
  497TIP3    H222983   1.504   0.388  79.684  0.4345 -0.4815  1.2097
  498TIP3   OH222984   0.920   2.639  85.831 -0.2281  0.6121 -0.4829
  498TIP3    H122985   0.875   2.620  85.914 -0.7264  2.2852 -0.3404
  498TIP3    H222986   1.013   2.626  85.851 -0.2208  2.2259  0.7505
  499TIP3   OH222987   2.488   1.856  30.697  0.5559 -0.4668  0.2428
  499TIP3    H122988   2.559   1.796  30.721  0.1693 -1.0341  0.0052
  499TIP3    H222989   2.410   1.815  30.734  0.2397 -0.2831 -0.2187
  500TIP3   OH222990   0.304   1.645 109.469  0.3388  0.0851  0.1742
  500TIP3    H122991   0.226   1.606 109.430 -0.7241  0.9578  1.3724
  500TIP3    H222992   0.307   1.610 109.558  1.1929  0.2436  0.2201
  501TIP3   OH222993   1.223   0.877  95.455  0.0514  0.1873 -0.3944
  501TIP3    H122994   1.284   0.806  95.433  0.7456 -0.1591  2.2574
  501TIP3    H222995   1.280   0.952  95.476 -0.4141  0.1514  1.1493
  502TIP3   OH222996   0.081   2.320   1.268 -0.2092  0.5484  0.2281
  502TIP3    H122997   0.081   2.414   1.247 -0.3340  0.6385  0.6303
  502TIP3    H222998   0.147   2.310   1.336  0.3493  0.2174 -0.3490
  503TIP3   OH222999   1.727   2.563  79.064  0.7473  0.4879  0.1402
  503TIP3    H123000   1.705   2.508  79.139 -0.0671 -2.5096 -2.1119
  503TIP3    H223001   1.803   2.613  79.094  1.1935 -1.4186  2.6049
  504TIP3   OH223002   1.756   1.255  36.769 -0.0870 -0.2120  0.2159
  504TIP3    H123003   1.848   1.237  36.788  0.3325  1.4028 -0.1382
  504TIP3    H223004   1.709   1.180  36.806  1.4760 -1.9226 -1.0584
  505TIP3   OH223005   1.972   2.184  77.146 -0.1082  0.2054 -0.7526
  505TIP3    H123006   1.882   2.216  77.133 -0.1848  0.1983 -0.2425
  505TIP3    H223007   1.979   2.109  77.087 -0.4864  0.1078 -0.6752
  506TIP3   OH223008   1.574   2.484  90.040 -0.3198  0.4776  0.4429
  506TIP3    H123009   1.491   2.440  90.059 -0.2506 -0.4899 -1.2116
  506TIP3    H223010   1.639   2.436  90.091 -0.1882 -1.7483 -1.5928
  507TIP3   OH223011   0.155   0.219  28.135  0.2983  0.1295 -0.7489
  507TIP3    H123012   0.204   0.294  28.169 -0.4251  0.2134  0.1336
  507TIP3    H223013   0.222   0.152  28.122  0.6080  0.0464  1.0156
  508TIP3   OH223014   1.905   1.284  78.713 -0.1170  0.7045 -0.0760
  508TIP3    H123015   1.897   1.194  78.681 -0.6866  0.5143  0.5538
  508TIP3    H223016   1.966   1.326  78.654 -1.0318  0.3366 -1.3188
  509TIP3   OH223017   2.633   0.544  32.884 -0.2053 -0.5947  0.6078
  509TIP3    H123018   2.583   0.478  32.931 -0.3326 -0.4673  0.6558
  509TIP3    H223019   2.719   0.505  32.871  0.1311 -0.2707  1.7593
  510TIP3   OH223020   0.284   0.502  77.683  0.2809 -0.0779  0.2019
  510TIP3    H123021   0.273   0.509  77.778  1.2504  4.4974  0.2452
  510TIP3    H223022   0.197   0.522  77.648  0.2534 -0.3222  0.1282
  511TIP3   OH223023   0.578   1.892  22.094 -0.1459  0.2348  0.3159
  511TIP3    H123024   0.584   1.808  22.139 -1.9366  0.4268  0.9858
  511TIP3    H223025   0.574   1.957  22.164 -0.8877  0.7046 -0.1535
  512TIP3   OH223026   1.758   1.473  33.197  0.2852  0.5402  0.5292
  512TIP3    H123027   1.820   1.424  33.143  0.2484 -1.0212  1.8421
  512TIP3    H223028   1.673   1.457  33.156  0.2095 -0.9354  1.1965
  513TIP3   OH223029   2.388   1.371 104.434 -0.5216 -0.4408  0.5048
  513TIP3    H123030   2.317   1.312 104.407 -0.5342 -0.9219  1.5334
  513TIP3    H223031   2.454   1.313 104.472  0.5383 -0.0195 -0.6211
  514TIP3   OH223032   0.570   1.584  23.059  0.2665 -0.2799  0.3850
  514TIP3    H123033   0.477   1.600  23.075  0.3782  0.1427  0.6042
  514TIP3    H223034   0.577   1.488  23.057 -0.1881 -0.3150  0.2631
  515TIP3   OH223035   1.988   1.616  36.881 -0.3047  0.2361 -0.1496
  515TIP3    H123036   1.963   1.547  36.942  0.3998 -1.4400 -1.6643
  515TIP3    H223037   2.082   1.601  36.865 -0.0729  1.7142 -0.3110
  516TIP3   OH223038   1.224   1.285  97.257  0.1098  0.0862  0.0629
  516TIP3    H123039   1.149   1.230  97.276  0.2444 -0.1077  0.0351
  516TIP3    H223040   1.252   1.260  97.170  0.9749 -0.7324  0.5554
  517TIP3   OH223041   0.813   0.764  87.089 -0.1297  0.2376  0.1193
  517TIP3    H123042   0.798   0.734  87.179  0.1616 -2.4225 -0.6368
  517TIP3    H223043   0.805   0.685  87.036  1.2493  1.4489 -2.0269
  518TIP3   OH223044   1.021   0.081  25.546  0.3309 -0.4404  0.3983
  518TIP3    H123045   1.025  -0.013  25.563 -0.0769 -0.9084 -1.7739
  518TIP3    H223046   1.032   0.089  25.451 -3.1628  1.3857 -0.0309
  519TIP3   OH223047   0.738   1.957  33.738 -0.4094  0.2160 -0.4412
  519TIP3    H123048   0.798   1.883  33.737  0.3135  0.7868 -0.3897
  519TIP3    H223049   0.730   1.983  33.647 -0.5904  0.1385 -0.4465
  520TIP3   OH223050   1.789   1.938  37.209 -0.1987  0.1705  0.1649
  520TIP3    H123051   1.857   1.884  37.170 -0.8712  0.4240 -1.4773
  520TIP3    H223052   1.727   1.954  37.137 -1.4902  0.7383  1.3425
  521TIP3   OH223053   1.758   2.047   3.525 -0.3597 -0.0136 -0.1357
  521TIP3    H123054   1.714   2.131   3.513 -0.9125  0.0979  2.1910
  521TIP3    H223055   1.687   1.984   3.538  0.0045  0.0513  2.9780
  522TIP3   OH223056   0.760   1.843  75.951  0.8202 -0.0146 -0.0089
  522TIP3    H123057   0.685   1.903  75.954  1.3737  0.6585  1.1464
  522TIP3    H223058   0.832   1.894  75.988  1.1354 -1.6412  1.8099
  523TIP3   OH223059   2.199   1.964  47.484  0.1383  0.3171  0.1943
  523TIP3    H123060   2.197   1.939  47.392  3.0536  0.3597  0.0567
  523TIP3    H223061   2.132   2.033  47.490 -0.6806 -0.2300 -1.6635
  524TIP3   OH223062   1.861   2.101  36.454 -0.4828  0.6300  0.1500
  524TIP3    H123063   1.782   2.089  36.507 -0.0505 -0.0218  0.6677
  524TIP3    H223064   1.911   2.021  36.468 -1.1380 -0.3727 -2.6313
  525TIP3   OH223065   1.420   0.974  15.102  0.3923  0.2076 -0.9522
  525TIP3    H123066   1.416   1.013  15.015  0.1114 -0.7066 -1.3617
  525TIP3    H223067   1.372   0.892  15.093  0.5836 -0.0139  0.0042
  526TIP3   OH223068   2.478   0.047  74.957 -0.2197 -0.3903 -0.2574
  526TIP3    H123069   2.524   0.129  74.939  3.3427 -1.9614  0.8084
  526TIP3    H223070   2.469   0.005  74.872 -1.0819  0.5901 -0.6657
  527TIP3   OH223071   1.906   2.159  91.045  0.0680 -0.1015  0.6985
  527TIP3    H123072   1.945   2.102  91.112  0.1735 -0.9854 -0.1005
  527TIP3    H223073   1.825   2.191  91.085  0.5605  0.0740  1.5768
  528TIP3   OH223074   2.632   0.435  32.534 -0.1670 -0.2286 -0.3884
  528TIP3    H123075   2.726   0.416  32.534  0.0224  0.6636 -0.7161
  528TIP3    H223076   2.590   0.349  32.538  0.6591 -0.6474 -0.5193
  529TIP3   OH223077   1.221   1.332 109.706  0.2191 -0.5742  0.0597
  529TIP3    H123078   1.178   1.375 109.780 -0.6740  0.1292 -0.8236
  529TIP3    H223079   1.166   1.355 109.630  2.3946  0.7704 -1.2262
  530TIP3   OH223080   1.591   2.340  34.411  0.2982 -0.1944  0.5367
  530TIP3    H123081   1.582   2.405  34.481 -1.1886 -1.6566  1.7658
  530TIP3    H223082   1.536   2.374  34.340  1.6004  1.1519  0.0957
  531TIP3   OH223083   1.596   1.534   1.606 -0.0018 -0.5480 -0.3942
  531TIP3    H123084   1.691   1.545   1.613 -0.2420  1.3286  0.3675
  531TIP3    H223085   1.584   1.440   1.595  1.8513 -1.0317  1.1883
  532TIP3   OH223086   2.348   0.337  93.818  0.2226  0.4969 -0.2139
  532TIP3    H123087   2.428   0.292  93.790  1.1608  0.7749  1.8231
  532TIP3    H223088   2.358   0.348  93.913 -1.2352  2.5132 -0.2123
  533TIP3   OH223089   0.536   0.510  10.521 -0.1899 -0.3078 -0.0800
  533TIP3    H123090   0.466   0.448  10.503 -1.7362  1.1161  0.8063
  533TIP3    H223091   0.569   0.484  10.607  0.1178 -0.7093 -0.3102
  534TIP3   OH223092   0.433   1.471  28.731 -0.4895  0.1577 -0.0102
  534TIP3    H123093   0.506   1.494  28.672 -0.4571 -0.9497 -0.4150
  534TIP3    H223094   0.471   1.410  28.794 -0.8663  0.2555  0.3167
  535TIP3   OH223095   1.156   1.808  51.952 -0.2965  0.0343 -0.3151
  535TIP3    H123096   1.113   1.794  52.037 -1.0047 -0.6212 -0.7692
  535TIP3    H223097   1.141   1.900  51.932 -1.4694 -0.1677 -0.4415
  536TIP3   OH223098   1.851   2.028  75.849  0.0462 -0.0431 -0.6477
  536TIP3    H123099   1.930   1.974  75.857 -0.9520 -1.5717 -0.5775
  536TIP3    H223100   1.830   2.052  75.939 -0.1641 -0.5683 -0.5506
  537TIP3   OH223101   0.580   1.007  14.319 -0.2542  0.0217  0.2667
  537TIP3    H123102   0.673   1.028  14.310 -0.1624 -0.6762 -0.5814
  537TIP3    H223103   0.575   0.958  14.401  0.1000  0.1905  0.3917
  538TIP3   OH223104   2.533   0.785   7.677  0.0484 -0.0195  0.0150
  538TIP3    H123105   2.573   0.860   7.720 -0.5973  0.4614 -0.1972
  538TIP3    H223106   2.597   0.715   7.686  0.9130  0.7104 -0.2811
  539TIP3   OH223107   2.489   1.048  30.931 -0.2649 -0.3670  0.6352
  539TIP3    H123108   2.521   1.099  30.856  1.2165 -0.1751  1.3589
  539TIP3    H223109   2.425   0.988  30.893 -0.5669  0.6655 -0.5611
  540TIP3   OH223110   0.656   1.984  27.652 -0.7566 -0.1449 -0.0451
  540TIP3    H123111   0.740   2.025  27.671 -0.6115 -0.1459 -0.6773
  540TIP3    H223112   0.592   2.041  27.695 -0.5612  0.7878 -0.9626
  541TIP3   OH223113   2.006   0.853  37.029 -0.1283  0.1310  0.4806
  541TIP3    H123114   1.933   0.905  36.996 -0.6726 -0.2275  1.0786
  541TIP3    H223115   2.076   0.916  37.043  0.1669  0.2667 -1.4422
  542TIP3   OH223116   1.405   1.428  36.807 -0.0383  0.2145 -0.1821
  542TIP3    H123117   1.449   1.512  36.812  0.6341 -0.1811  0.7775
  542TIP3    H223118   1.330   1.437  36.866  0.7603 -0.2683  0.9367
  543TIP3   OH223119   0.886   2.270 111.537 -0.3384 -0.4172  0.2777
  543TIP3    H123120   0.797   2.304 111.527 -0.7783 -1.5862  0.0331
  543TIP3    H223121   0.934   2.307 111.463 -0.3225  1.1017  1.0338
  544TIP3   OH223122   1.129   2.260 100.203  0.4300 -0.3190  0.3582
  544TIP3    H123123   1.168   2.344 100.179  2.6207 -0.8718  1.6993
  544TIP3    H223124   1.191   2.195 100.170  0.3045 -1.2666  1.9020
  545TIP3   OH223125   1.591   1.709  92.005  0.4681 -0.9870  0.4746
  545TIP3    H123126   1.646   1.745  91.935 -1.2518 -1.8391 -1.4080
  545TIP3    H223127   1.652   1.692  92.077  2.4610 -0.8756 -1.1031
  546TIP3   OH223128   0.786   0.799  79.738 -0.3425  0.0620 -0.0148
  546TIP3    H123129   0.768   0.705  79.727 -2.0107  0.4188 -0.7434
  546TIP3    H223130   0.803   0.831  79.649 -2.5507  0.9004 -0.2204
  547TIP3   OH223131   2.603   2.136 110.392 -0.5279  0.4100  0.2670
  547TIP3    H123132   2.675   2.134 110.455 -0.7176  0.0913  0.4811
  547TIP3    H223133   2.535   2.082 110.432 -0.4738 -0.1732 -0.4135
  548TIP3   OH223134   0.401   2.418  10.832  0.2798 -0.1180  0.4986
  548TIP3    H123135   0.466   2.349  10.815  0.3178 -0.4008  1.6711
  548TIP3    H223136   0.316   2.374  10.821  0.2151  0.4116 -1.6901
  549TIP3   OH223137   0.369   0.730 102.010 -0.3691  0.3111  0.3526
  549TIP3    H123138   0.287   0.701 101.969 -0.5225  0.6241  0.4280
  549TIP3    H223139   0.345   0.745 102.102 -0.1336  0.0399  0.4558
  550TIP3   OH223140   1.538   0.402  13.119 -0.4607  0.4907  0.1571
  550TIP3    H123141   1.473   0.333  13.132  0.4235 -0.2136  0.8869
  550TIP3    H223142   1.494   0.482  13.149 -0.9447  0.0057  0.7690
  551TIP3   OH223143   2.641   0.568  93.729 -0.0894 -0.2572  0.2849
  551TIP3    H123144   2.649   0.474  93.745 -0.3946 -0.1817  0.8632
  551TIP3    H223145   2.555   0.591  93.762 -0.0514  0.2158  0.0542
  552TIP3   OH223146   2.127   0.359  88.611  0.4902  0.2586  0.1747
  552TIP3    H123147   2.142   0.371  88.705 -0.8366  1.9382  0.2331
  552TIP3    H223148   2.204   0.313  88.580  1.5485  0.7922  1.8691
  553TIP3   OH223149   1.145   2.240  96.984  0.1951  0.1953 -0.8221
  553TIP3    H123150   1.059   2.273  96.956 -0.2636 -0.1743  0.1121
  553TIP3    H223151   1.201   2.317  96.983 -0.8707  1.0946  1.3877
  554TIP3   OH223152   1.121   0.370   4.569  0.1536  0.2438  0.5317
  554TIP3    H123153   1.067   0.423   4.510 -0.4327  0.2591  1.0596
  554TIP3    H223154   1.162   0.305   4.513  0.3186  0.8121 -0.0232
  555TIP3   OH223155   2.006   0.154  18.726 -0.3836  0.3751 -0.1050
  555TIP3    H123156   2.089   0.183  18.686  0.1850 -0.3210  0.5313
  555TIP3    H223157   1.986   0.221  18.791 -0.7447  0.9505 -0.7899
  556TIP3   OH223158   0.943   0.403   0.074  0.0888 -0.2995 -0.5892
  556TIP3    H123159   0.956   0.497   0.062  1.1591 -0.4105 -0.4200
  556TIP3    H223160   0.967   0.387   0.166  1.2070 -0.9238 -0.9660
  557TIP3   OH223161   2.416   1.442  83.359 -0.4982 -0.6423  0.2101
  557TIP3    H123162   2.409   1.372  83.295 -0.9909 -0.6497  0.2740
  557TIP3    H223163   2.510   1.448  83.377 -0.1909  0.2665 -1.5116
  558TIP3   OH223164   0.303   0.831  87.656  0.3215 -0.0565  0.0789
  558TIP3    H123165   0.259   0.746  87.650 -2.1231  1.1751 -0.9828
  558TIP3    H223166   0.296   0.868  87.568  1.9126  0.9854  0.3578
  559TIP3   OH223167   1.777   0.272  57.162  0.0288 -0.6147 -0.2772
  559TIP3    H123168   1.836   0.332  57.117  1.4980 -1.3577  0.5918
  559TIP3    H223169   1.741   0.216  57.093 -0.1310  0.2321 -0.8856
  560TIP3   OH223170   2.110   0.542  86.620 -0.0659 -0.1557 -0.5992
  560TIP3    H123171   2.051   0.573  86.688  0.1301 -0.1676 -0.4200
  560TIP3    H223172   2.061   0.471  86.577 -0.6854  0.6686 -1.2867
  561TIP3   OH223173   2.047   1.581  11.554 -0.0073 -0.2790 -0.0720
  561TIP3    H123174   2.120   1.624  11.598 -0.0833  1.1722 -1.2686
  561TIP3    H223175   1.969   1.614  11.599 -0.0374  0.4295 -0.6226
  562TIP3   OH223176   2.395   2.282  97.502 -0.1526 -0.2750 -0.2332
  562TIP3    H123177   2.402   2.187  97.497  0.2657 -0.2541 -0.1083
  562TIP3    H223178   2.477   2.310  97.543 -0.5994  0.0786  0.4401
  563TIP3   OH223179   0.169   1.988  10.923 -0.4724  0.0417  0.2685
  563TIP3    H123180   0.125   1.975  10.839  0.0204  2.2581 -0.3881
  563TIP3    H223181   0.098   2.000  10.985 -0.8256  0.2820 -0.1763
  564TIP3   OH223182   2.305   0.735  59.473 -0.0684  0.5625 -0.5772
  564TIP3    H123183   2.271   0.646  59.467 -1.3131  0.9509  0.4268
  564TIP3    H223184   2.231   0.792  59.453 -0.9612  1.5085  4.1439
  565TIP3   OH223185   1.401   1.577  51.958 -0.1525  0.0389 -0.1770
  565TIP3    H123186   1.343   1.653  51.970 -0.8388 -0.4319 -0.4396
  565TIP3    H223187   1.472   1.609  51.902 -0.1086  0.6491  0.2213
  566TIP3   OH223188   0.674   1.835  96.093 -0.4216  0.2659 -0.1630
  566TIP3    H123189   0.693   1.765  96.030 -1.1150 -0.1870  0.1242
  566TIP3    H223190   0.682   1.915  96.043  0.6385  0.0024 -0.4327
  567TIP3   OH223191   1.882   2.465  84.402 -0.3195 -0.0174 -0.2823
  567TIP3    H123192   1.811   2.400  84.406 -1.1947  0.9451  0.9322
  567TIP3    H223193   1.840   2.547  84.428  0.7661  1.0514 -1.7305
  568TIP3   OH223194   1.853   2.669  89.125 -0.6209 -0.3969  0.6855
  568TIP3    H123195   1.764   2.658  89.160 -0.3681  0.1178  1.5032
  568TIP3    H223196   1.843   2.655  89.031 -1.8576  1.1604  0.5527
  569TIP3   OH223197   1.432   1.702  12.241  0.3984 -0.5119  0.0887
  569TIP3    H123198   1.436   1.632  12.176 -0.8123  0.1017 -0.6888
  569TIP3    H223199   1.389   1.662  12.316 -0.4035 -0.6050 -0.3997
  570TIP3   OH223200   2.134   2.495  10.941 -0.0308 -0.3932  0.3139
  570TIP3    H123201   2.148   2.512  10.848 -1.6966  0.4612  0.1755
  570TIP3    H223202   2.068   2.425  10.942 -1.8151  1.2050  0.7682
  571TIP3   OH223203   0.348   1.841  21.909 -0.1067 -0.2534 -0.4669
  571TIP3    H123204   0.423   1.841  21.970  0.3380 -0.9042 -0.9964
  571TIP3    H223205   0.366   1.914  21.850 -0.5536  0.3993  0.1849
  572TIP3   OH223206   1.805   0.037  92.548  0.1297  0.8308  0.2148
  572TIP3    H123207   1.764  -0.028  92.492 -1.6698  1.5189  0.6448
  572TIP3    H223208   1.872   0.078  92.494  0.9144 -0.9656 -0.2291
  573TIP3   OH223209   0.457   2.112  62.917 -0.0773 -0.0084 -0.3955
  573TIP3    H123210   0.402   2.034  62.923  0.9390 -0.7121  0.0273
  573TIP3    H223211   0.403   2.182  62.952 -1.6553 -0.1449 -2.3517
  574TIP3   OH223212   1.390   1.290 104.870 -0.1967  0.1101 -0.2901
  574TIP3    H123213   1.323   1.224 104.887  0.8286 -0.7338  0.6851
  574TIP3    H223214   1.459   1.271 104.934 -0.3946  2.9048  0.8848
  575TIP3   OH223215   2.060   2.675   2.128  0.2283 -0.4290  0.3206
  575TIP3    H123216   2.061   2.735   2.054  0.5421  1.0345  1.4716
  575TIP3    H223217   2.140   2.695   2.177 -0.3854 -0.7778  1.5107
  576TIP3   OH223218   1.132   0.262  24.053 -0.0584  0.6183 -0.1433
  576TIP3    H123219   1.227   0.250  24.053 -0.2171 -0.8515 -1.1250
  576TIP3    H223220   1.109   0.270  23.960 -0.8013  1.9473  0.1306
  577TIP3   OH223221   0.336   0.069  88.326  0.0253 -0.1209  0.7474
  577TIP3    H123222   0.390   0.072  88.247  0.6980  0.0705  1.2098
  577TIP3    H223223   0.310   0.159  88.341 -1.6089 -0.3746 -0.2519
  578TIP3   OH223224   1.001   0.664  75.146 -0.6161  0.0483  0.2265
  578TIP3    H123225   1.010   0.583  75.195  0.5116 -0.5866 -0.9630
  578TIP3    H223226   1.046   0.647  75.063 -0.5836  1.8035 -0.1539
  579TIP3   OH223227   0.703   0.252  74.366  0.6564 -0.2861 -0.0015
  579TIP3    H123228   0.774   0.223  74.422  0.7717  0.6538  0.3547
  579TIP3    H223229   0.695   0.183  74.299  2.9258  0.3239 -0.9746
  580TIP3   OH223230   1.973   1.572  19.314  0.5140  0.0161 -0.2147
  580TIP3    H123231   2.042   1.506  19.321 -0.1752 -0.8442 -1.2221
  580TIP3    H223232   1.938   1.560  19.226 -0.3415  1.0291 -0.0276
  581TIP3   OH223233   2.467   2.363  18.943  0.3020 -0.5798 -0.1779
  581TIP3    H123234   2.541   2.304  18.925  1.3828  0.9240 -0.9228
  581TIP3    H223235   2.429   2.380  18.857 -0.2269 -0.4862  0.0756
  582TIP3   OH223236   1.050   1.700  97.286 -0.7112  0.6408  0.5371
  582TIP3    H123237   1.014   1.716  97.199 -1.0839  0.5136  0.6719
  582TIP3    H223238   0.976   1.671  97.338  0.1830 -3.4478 -0.1372
  583TIP3   OH223239   1.592   0.396 106.081 -0.5528 -0.3700 -0.6874
  583TIP3    H123240   1.600   0.474 106.026  0.7131 -0.5792 -0.8212
  583TIP3    H223241   1.499   0.391 106.101 -0.5802  1.6138 -0.0569
  584TIP3   OH223242   2.665   1.507  75.800  0.3348  0.9014  0.3493
  584TIP3    H123243   2.654   1.427  75.749  0.7084  2.2028 -1.9140
  584TIP3    H223244   2.719   1.480  75.875 -1.3977 -1.3725  0.8989
  585TIP3   OH223245   2.592   1.650  37.018 -0.6036  0.2346 -0.4719
  585TIP3    H123246   2.556   1.605  37.094  0.4919  0.0465 -0.0398
  585TIP3    H223247   2.633   1.730  37.054 -0.0463  0.1250 -0.8436
  586TIP3   OH223248   1.315   2.014  36.451  0.0706  0.4351 -0.7113
  586TIP3    H123249   1.306   1.927  36.491 -2.0522  0.8863 -0.1206
  586TIP3    H223250   1.345   1.996  36.362  0.9524 -0.7995 -0.2060
  587TIP3   OH223251   0.153   2.256  82.317 -0.1022 -0.2275  0.3210
  587TIP3    H123252   0.154   2.217  82.405  0.7845  1.8410  1.2838
  587TIP3    H223253   0.170   2.349  82.332 -1.1629  0.3926 -1.9628
  588TIP3   OH223254   1.506   0.067   6.598  0.3436 -0.2745  0.0218
  588TIP3    H123255   1.453   0.103   6.527  0.8280  0.7283  0.1448
  588TIP3    H223256   1.477  -0.024   6.607  0.1837 -0.3676 -1.3501
  589TIP3   OH223257   2.509   0.272  23.954 -0.2210 -0.0109 -0.3686
  589TIP3    H123258   2.503   0.177  23.942 -0.9412 -0.1444  0.8348
  589TIP3    H223259   2.506   0.308  23.865 -0.7448 -1.0819 -0.8044
  590TIP3   OH223260   0.551   2.435 101.749  0.2067  0.0264 -0.5093
  590TIP3    H123261   0.551   2.382 101.669 -0.6103 -0.1078 -0.4298
  590TIP3    H223262   0.570   2.524 101.719  0.6128 -0.1424 -0.7571
  591TIP3   OH223263   1.546   1.258  23.910  0.0078 -0.1344 -0.1233
  591TIP3    H123264   1.570   1.222  23.825 -0.0152  0.4538 -0.3845
  591TIP3    H223265   1.529   1.351  23.893  2.9169  0.7178  1.0431
  592TIP3   OH223266   0.944   1.983  92.428 -0.7525 -0.2375 -0.0359
  592TIP3    H123267   0.937   1.899  92.473 -2.2117  0.2340  0.7052
  592TIP3    H223268   1.023   2.023  92.464 -1.4279 -0.2424  1.5267
  593TIP3   OH223269   0.663   0.233  82.593  0.3902 -0.2955  0.1559
  593TIP3    H123270   0.749   0.268  82.571  1.3266 -1.9988  0.9264
  593TIP3    H223271   0.628   0.202  82.509  0.0516  1.3167 -0.3323
  594TIP3   OH223272   1.610   2.678  18.887 -0.2345 -0.0030 -0.0590
  594TIP3    H123273   1.553   2.739  18.839 -2.8528 -0.5236  2.1230
  594TIP3    H223274   1.559   2.597  18.892  1.0434 -0.7621  1.3216
  595TIP3   OH223275   2.253   2.474   6.480 -0.2861 -0.2825 -0.5958
  595TIP3    H123276   2.282   2.427   6.559  0.1305 -0.8648 -1.0867
  595TIP3    H223277   2.332   2.519   6.449 -0.5435  0.2596 -0.4619
  596TIP3   OH223278   1.685   2.356 100.791 -0.0312  0.2435  0.1110
  596TIP3    H123279   1.629   2.278 100.787 -0.1553  0.3355  0.0315
  596TIP3    H223280   1.774   2.321 100.795 -0.0327  0.0984 -0.8076
  597TIP3   OH223281   2.563   1.114  18.704 -0.3638 -0.2605  0.6263
  597TIP3    H123282   2.645   1.102  18.751 -0.0264  0.3407  0.1972
  597TIP3    H223283   2.541   1.206  18.716 -0.9420 -0.3984  0.6776
  598TIP3   OH223284   2.511   1.803 104.087  0.0650 -0.1256  0.5080
  598TIP3    H123285   2.472   1.811 104.000  1.9108 -0.9717 -0.4418
  598TIP3    H223286   2.544   1.890 104.107 -1.2564  0.3241  0.8407
  599TIP3   OH223287   2.077   1.184  90.682  0.5069 -0.0443  0.1992
  599TIP3    H123288   2.127   1.184  90.601 -0.1900 -0.0475 -0.2397
  599TIP3    H223289   2.097   1.100  90.723  0.6587 -0.1511 -0.0947
  600TIP3   OH223290   0.192   1.050 110.134 -0.3682 -0.2061 -0.4250
  600TIP3    H123291   0.171   1.057 110.041 -2.6803 -1.3814 -0.0501
  600TIP3    H223292   0.139   1.118 110.176  2.2011  1.7292 -0.0854
  601TIP3   OH223293   2.302   0.349  82.227  0.1438 -0.3814 -0.0100
  601TIP3    H123294   2.304   0.350  82.132 -0.5475  0.9964 -0.0323
  601TIP3    H223295   2.384   0.306  82.253 -0.6741 -2.8289 -1.2172
  602TIP3   OH223296   2.192   1.878 101.047  0.2908  0.0731 -0.0988
  602TIP3    H123297   2.235   1.843 100.969  1.5513  0.7796  0.2554
  602TIP3    H223298   2.128   1.811 101.071  1.2588 -1.0724 -0.5882
  603TIP3   OH223299   1.477   1.361  92.169  0.1092 -0.1246  0.1096
  603TIP3    H123300   1.562   1.394  92.141 -0.6342  1.0247 -0.8912
  603TIP3    H223301   1.462   1.283  92.115 -0.4842  1.0161 -1.4540
  604TIP3   OH223302   0.204   1.461  29.953 -0.1325  0.2633  0.7522
  604TIP3    H123303   0.178   1.369  29.959 -4.6407  1.3075  0.6391
  604TIP3    H223304   0.258   1.465  29.874 -2.2039 -1.9665 -0.9486
  605TIP3   OH223305   1.241   1.741  95.845 -0.0052  0.6548  0.3162
  605TIP3    H123306   1.319   1.786  95.814 -1.2668  2.5425 -0.2701
  605TIP3    H223307   1.248   1.653  95.807  1.5988  0.9219 -0.0780
  606TIP3   OH223308   0.972   2.354  36.958  0.6539  0.4063 -0.4097
  606TIP3    H123309   0.993   2.263  36.938  1.3694  0.8692 -1.8857
  606TIP3    H223310   0.882   2.352  36.989  0.8927 -0.8819  0.2613
  607TIP3   OH223311   1.910   2.668  19.319 -0.3310 -0.3602  0.3668
  607TIP3    H123312   1.870   2.665  19.232 -0.3181  0.3464  0.3337
  607TIP3    H223313   1.906   2.577  19.350  1.4564 -1.0422 -1.1766
  608TIP3   OH223314   0.366   1.034  36.508 -0.0754  0.2099  0.6278
  608TIP3    H123315   0.454   1.072  36.505 -0.1066  0.2334 -1.9438
  608TIP3    H223316   0.308   1.106  36.483 -0.3412 -0.8336 -2.0945
  609TIP3   OH223317   1.151   2.340  77.090 -0.5650  0.5076 -0.5646
  609TIP3    H123318   1.096   2.409  77.054 -0.3389  0.6179 -0.6942
  609TIP3    H223319   1.173   2.370  77.178 -0.7479  0.4453 -0.4980
  610TIP3   OH223320   1.202   1.290 103.540 -0.4912 -0.3426 -0.4967
  610TIP3    H123321   1.213   1.197 103.519  1.5772  0.0107 -1.2309
  610TIP3    H223322   1.123   1.316 103.493 -0.5692 -1.5089 -1.0604
  611TIP3   OH223323   1.771   1.681 109.720 -1.0908  0.1019 -0.4050
  611TIP3    H123324   1.846   1.717 109.768 -0.4472 -2.0989  0.3686
  611TIP3    H223325   1.790   1.702 109.628  1.5036 -1.9384 -0.4710
  612TIP3   OH223326   2.154   0.088  32.273  0.0090 -0.0372 -0.2202
  612TIP3    H123327   2.192   0.149  32.209  0.6491  0.9300  1.0395
  612TIP3    H223328   2.060   0.089  32.254 -0.0826  1.7973  0.1201
  613TIP3   OH223329   0.261   1.431  91.848  0.5378  0.4812  0.3672
  613TIP3    H123330   0.226   1.346  91.873  1.4419 -0.3403 -1.0045
  613TIP3    H223331   0.193   1.493  91.873 -0.2861 -0.6703  1.1023
  614TIP3   OH223332   0.882   0.176   8.250  0.0306 -0.5699  0.0270
  614TIP3    H123333   0.952   0.157   8.313 -0.3795 -0.0819  0.6356
  614TIP3    H223334   0.924   0.232   8.184  0.0646  0.2893  0.7523
  615TIP3   OH223335   1.143   2.206  36.346 -0.3714  0.6151 -0.0332
  615TIP3    H123336   1.049   2.224  36.353  0.0498  2.5647  1.5830
  615TIP3    H223337   1.158   2.131  36.404 -0.7194  1.3183  0.9938
  616TIP3   OH223338   2.231   2.185  89.757 -0.6133 -0.3241  0.0586
  616TIP3    H123339   2.223   2.190  89.852 -0.6009 -1.9560  0.1771
  616TIP3    H223340   2.318   2.219  89.738 -0.3488 -0.6163  0.6999
  617TIP3   OH223341   0.799   0.790   2.350  0.3466  0.1345  0.4337
  617TIP3    H123342   0.742   0.780   2.426 -1.6488 -1.1436 -1.1160
  617TIP3    H223343   0.859   0.716   2.355  1.1191  0.7966  1.4187
  618TIP3   OH223344   0.265   1.954  27.099  0.1237  0.1560 -0.7299
  618TIP3    H123345   0.225   2.003  27.026  0.1113  0.9057 -0.2261
  618TIP3    H223346   0.353   1.934  27.069 -0.0214  0.0785 -1.1208
  619TIP3   OH223347   2.539   1.462  79.237  0.2640 -0.0969  0.0240
  619TIP3    H123348   2.455   1.437  79.276  0.1445  0.0172 -0.1630
  619TIP3    H223349   2.603   1.405  79.280  0.1323  0.0224  0.3809
  620TIP3   OH223350   0.126   0.905  20.552  0.2204  0.1362  0.0182
  620TIP3    H123351   0.062   0.923  20.621 -0.0473 -0.9324  0.0718
  620TIP3    H223352   0.083   0.936  20.472 -0.7620 -1.3106 -0.0670
  621TIP3   OH223353   1.268   0.204  19.975 -0.1043 -0.5285  0.1217
  621TIP3    H123354   1.317   0.243  19.902 -2.0185  0.8554 -0.5189
  621TIP3    H223355   1.328   0.208  20.049  0.9992  0.4499 -0.7766
  622TIP3   OH223356   1.476   1.834  15.574 -0.0151  0.3206 -0.0629
  622TIP3    H123357   1.383   1.827  15.595 -0.2884 -0.4346 -1.3864
  622TIP3    H223358   1.482   1.812  15.481  1.2218  2.5372 -0.5857
  623TIP3   OH223359   1.677   0.679  86.712  0.2058 -0.0719  0.2179
  623TIP3    H123360   1.589   0.669  86.677  0.6507  0.0767 -0.9782
  623TIP3    H223361   1.708   0.762  86.676  0.0419  1.0189  2.4142
  624TIP3   OH223362   0.220   2.351  75.706 -0.6368  0.1971 -0.2783
  624TIP3    H123363   0.200   2.414  75.636 -1.1746  0.2868 -0.0495
  624TIP3    H223364   0.294   2.390  75.753  1.3663 -0.9971 -2.2314
  625TIP3   OH223365   2.180   0.402   6.855  0.1243 -0.2241  0.6117
  625TIP3    H123366   2.214   0.352   6.781 -1.1007 -1.2733  0.7222
  625TIP3    H223367   2.119   0.342   6.898 -0.6948  1.0570  1.2917
  626TIP3   OH223368   1.405   1.287  48.365 -0.2372 -0.2877  0.2614
  626TIP3    H123369   1.340   1.247  48.307 -1.4374  0.7960  0.8222
  626TIP3    H223370   1.422   1.373  48.327  1.8412 -1.0082 -0.5697
  627TIP3   OH223371   1.245   1.808  30.737  0.6386  0.3581  0.2462
  627TIP3    H123372   1.192   1.785  30.813 -0.0253  0.0921 -0.2864
  627TIP3    H223373   1.196   1.774  30.662  2.0297 -0.7743 -0.2110
  628TIP3   OH223374   0.995   0.501  33.483 -0.3401 -0.0463 -0.1900
  628TIP3    H123375   1.090   0.497  33.486 -0.1613  2.1030 -1.3649
  628TIP3    H223376   0.974   0.503  33.390 -1.5609 -0.5895  0.0550
  629TIP3   OH223377   1.106   2.087   6.049 -0.2420 -0.5866  0.1448
  629TIP3    H123378   1.091   2.044   5.964  0.4268 -2.0909  0.7522
  629TIP3    H223379   1.180   2.040   6.087  0.9620  1.5560  0.5988
  630TIP3   OH223380   1.606   1.329   0.442 -0.2768 -0.0314 -0.2950
  630TIP3    H123381   1.580   1.409   0.488  0.1216  0.6010 -1.1452
  630TIP3    H223382   1.533   1.311   0.382  0.0391  0.2199 -0.7597
  631TIP3   OH223383   0.803   1.267  82.555  0.1172 -0.2634 -0.0589
  631TIP3    H123384   0.785   1.331  82.486  1.1077 -1.3931 -1.4182
  631TIP3    H223385   0.718   1.253  82.597 -0.3736  0.9478 -0.6066
  632TIP3   OH223386   0.698   2.142  99.219 -0.1788  0.1115 -0.7203
  632TIP3    H123387   0.753   2.178  99.150  0.2904 -0.1995 -0.5141
  632TIP3    H223388   0.620   2.198  99.219 -0.0783  0.2593 -1.3334
  633TIP3   OH223389   1.991   0.836 102.999  0.2802 -0.0675  0.2166
  633TIP3    H123390   1.899   0.855 102.978 -0.0253  1.0504  2.2699
  633TIP3    H223391   1.987   0.797 103.087  1.7343 -0.5866  0.0725
  634TIP3   OH223392   1.281   1.354   8.257 -0.2482 -0.3560 -0.2196
  634TIP3    H123393   1.341   1.428   8.247 -1.0157  0.4900  1.2210
  634TIP3    H223394   1.195   1.393   8.266 -0.9350 -1.5230 -1.2206
  635TIP3   OH223395   2.644   2.332 106.350 -0.0744  0.1148 -0.1227
  635TIP3    H123396   2.557   2.308 106.319  0.1673 -0.1459 -0.6033
  635TIP3    H223397   2.700   2.325 106.273  0.3818  0.2459  0.1915
  636TIP3   OH223398   0.505   2.587   7.627  0.3325 -0.3532 -0.1720
  636TIP3    H123399   0.553   2.521   7.576 -0.7296 -1.2849  0.0048
  636TIP3    H223400   0.524   2.565   7.718  0.6604  0.1227 -0.1200
  637TIP3   OH223401   0.672   1.460  88.366 -0.1011  0.1177  0.4851
  637TIP3    H123402   0.594   1.463  88.311 -1.0825 -1.4979  1.6923
  637TIP3    H223403   0.743   1.490  88.309 -1.3189  0.0008 -1.1653
  638TIP3   OH223404   1.630   0.247  88.210  0.6075 -0.4584  0.2647
  638TIP3    H123405   1.621   0.152  88.218  0.1485 -0.5766 -1.3432
  638TIP3    H223406   1.540   0.280  88.216  0.4354 -0.3974 -1.9109
  639TIP3   OH223407   0.999   0.475  36.599  0.4637  0.0276 -0.2760
  639TIP3    H123408   0.959   0.432  36.523  1.0844  0.0922 -0.6540
  639TIP3    H223409   1.031   0.403  36.653  0.0377 -0.0190 -0.0871
  640TIP3   OH223410   1.657   1.059  85.317 -0.1139 -0.2523  0.0007
  640TIP3    H123411   1.714   1.007  85.260  1.6404  0.9415  0.5676
  640TIP3    H223412   1.690   1.043  85.405 -1.6641 -0.6869  0.5278
  641TIP3   OH223413   1.609   0.307   7.351  0.1783 -0.2799 -0.1324
  641TIP3    H123414   1.641   0.219   7.330  0.2100  0.1004 -1.8887
  641TIP3    H223415   1.676   0.344   7.408  0.2226 -1.3524  0.5268
  642TIP3   OH223416   0.535   0.340   6.378  0.2773 -0.2789  0.2416
  642TIP3    H123417   0.552   0.256   6.335 -0.1839 -0.5574  0.5983
  642TIP3    H223418   0.579   0.334   6.462  1.1169  0.2410 -0.1436
  643TIP3   OH223419   2.105   1.278  25.379  0.2381 -0.3157  0.3793
  643TIP3    H123420   2.186   1.230  25.363 -0.6589 -0.8991 -3.4956
  643TIP3    H223421   2.038   1.229  25.330 -1.6001  2.4367 -0.0983
  644TIP3   OH223422   0.333   1.491   3.677  0.4609  0.1555  0.1597
  644TIP3    H123423   0.389   1.420   3.707 -0.6927 -0.5519  0.7187
  644TIP3    H223424   0.272   1.450   3.616  0.0837  0.7504  0.1277
  645TIP3   OH223425   1.973   0.444   7.750  0.1581 -0.0225 -0.1571
  645TIP3    H123426   1.958   0.455   7.844 -0.8206  2.2064 -0.4974
  645TIP3    H223427   2.068   0.435   7.743  0.2218 -0.5893  1.0628
  646TIP3   OH223428   1.677   2.436  36.787  0.6627  0.5785  0.0419
  646TIP3    H123429   1.719   2.426  36.702  0.8760  0.3343  0.1751
  646TIP3    H223430   1.591   2.473  36.767  1.3578  2.1784 -0.1550
  647TIP3   OH223431   2.368   2.497 103.357  0.1109  0.0258 -0.0487
  647TIP3    H123432   2.330   2.419 103.398  0.0223 -0.2366 -0.6226
  647TIP3    H223433   2.419   2.464 103.283  1.7986  0.3431  0.9184
  648TIP3   OH223434   0.176   1.129   7.219 -0.1240 -0.1218  0.2824
  648TIP3    H123435   0.236   1.146   7.291  0.3059  2.1732 -0.5421
  648TIP3    H223436   0.096   1.098   7.261  0.6732 -0.4901  1.5945
  649TIP3   OH223437   0.835   1.738  98.220  0.0619 -0.4585  0.5671
  649TIP3    H123438   0.908   1.702  98.270  1.8636  1.2982 -0.6732
  649TIP3    H223439   0.820   1.674  98.150  1.8143  0.1004 -0.3672
  650TIP3   OH223440   1.630   0.905  23.672 -0.2860  0.2552  0.7454
  650TIP3    H123441   1.594   0.993  23.656 -0.0089  0.3508  0.6350
  650TIP3    H223442   1.558   0.846  23.654  0.2461  0.2752 -1.9343
  651TIP3   OH223443   0.242   1.896  69.005  0.0105  0.4943 -0.3255
  651TIP3    H123444   0.206   1.871  69.090 -0.6909 -0.2172 -0.8129
  651TIP3    H223445   0.181   1.961  68.972 -1.3384 -1.2619 -1.4952
  652TIP3   OH223446   0.520   1.909  90.793 -0.6004 -0.7080  0.2537
  652TIP3    H123447   0.568   1.865  90.722  0.4353  1.9392 -0.8277
  652TIP3    H223448   0.428   1.892  90.773 -0.2760 -1.1828 -0.9301
  653TIP3   OH223449   2.032   2.155  25.062 -0.1534 -0.7367 -0.0488
  653TIP3    H123450   1.946   2.195  25.073 -0.4342 -1.5869  0.9109
  653TIP3    H223451   2.025   2.105  24.981 -0.1515  0.2057 -0.6516
  654TIP3   OH223452   0.943   0.351   3.050  0.2843 -0.1719 -0.5635
  654TIP3    H123453   1.018   0.407   3.029 -1.0411  1.8753 -0.1408
  654TIP3    H223454   0.933   0.295   2.973  1.5839  0.2517 -1.0795
  655TIP3   OH223455   0.604   2.172   0.875 -0.1715  0.6957  0.1687
  655TIP3    H123456   0.636   2.125   0.798 -0.0250  0.9576  0.0676
  655TIP3    H223457   0.565   2.252   0.839 -1.8561 -0.0732  0.1909
  656TIP3   OH223458   1.645   2.475 107.471 -0.4291  0.1868  0.0687
  656TIP3    H123459   1.684   2.407 107.417  1.8152  1.1477  0.3843
  656TIP3    H223460   1.641   2.437 107.559 -0.3766  0.0228  0.0009
  657TIP3   OH223461   1.702   1.115 100.964  0.0280 -0.2921 -0.3480
  657TIP3    H123462   1.630   1.106 101.027  0.1830  0.6066 -0.0259
  657TIP3    H223463   1.689   1.202 100.926  0.7489 -0.2707 -0.5405
  658TIP3   OH223464   0.206   2.298  36.983  0.5295 -0.4604  0.1271
  658TIP3    H123465   0.259   2.285  36.903  0.8859  2.3342 -0.1674
  658TIP3    H223466   0.155   2.377  36.966 -0.1470 -0.3660  2.3017
  659TIP3   OH223467   1.297   2.506 107.187 -0.0694 -0.3416  0.3231
  659TIP3    H123468   1.373   2.462 107.148 -0.5553 -0.1821 -0.8498
  659TIP3    H223469   1.334   2.578 107.237  0.7001 -1.6458  1.7401
  660TIP3   OH223470   2.301   2.164 101.935 -0.5127  0.1436 -0.1359
  660TIP3    H123471   2.350   2.234 101.891 -0.3244  0.4514  0.5560
  660TIP3    H223472   2.216   2.165 101.892  0.1122 -0.4728 -1.4250
  661TIP3   OH223473   2.309   1.955  80.661 -0.3422  0.1177 -0.4889
  661TIP3    H123474   2.321   1.985  80.751 -1.2660 -1.0158  0.0202
  661TIP3    H223475   2.233   1.898  80.664 -0.5156  0.2194 -2.0375
  662TIP3   OH223476   2.218   1.177  33.545  0.0700 -0.5033 -0.0021
  662TIP3    H123477   2.228   1.132  33.461  0.0825 -0.6682  0.0890
  662TIP3    H223478   2.244   1.112  33.610  2.3043  0.3110  0.0160
  663TIP3   OH223479   1.891   2.421 101.397 -0.2876 -0.1574 -0.2328
  663TIP3    H123480   1.871   2.330 101.419 -0.3141  0.0178  0.5136
  663TIP3    H223481   1.886   2.425 101.302 -0.4821 -0.8929 -0.2589
  664TIP3   OH223482   0.553   1.246   4.150 -0.0027 -0.0519  0.2515
  664TIP3    H123483   0.498   1.324   4.158  0.1464  0.0686  0.0901
  664TIP3    H223484   0.625   1.273   4.093 -0.7952 -0.7661 -1.1353
  665TIP3   OH223485   0.352   0.443   5.314 -0.0657 -0.2501  0.7595
  665TIP3    H123486   0.318   0.439   5.225  0.0710 -1.0720  0.7337
  665TIP3    H223487   0.289   0.497   5.362 -1.1011 -1.2568  0.5723
  666TIP3   OH223488   1.530   1.353  13.248 -0.3767  0.2861  0.2765
  666TIP3    H123489   1.558   1.378  13.160 -0.3410  0.6638  0.3942
  666TIP3    H223490   1.434   1.359  13.246 -0.3995 -0.0999  0.1470
  667TIP3   OH223491   1.436   1.404  99.024  0.1253 -0.6294  0.2445
  667TIP3    H123492   1.498   1.455  98.972  0.9617 -0.5054  1.3407
  667TIP3    H223493   1.450   1.314  98.995  0.8175 -0.6018  0.4727
  668TIP3   OH223494   0.819   1.958  37.866 -0.1216  0.0519 -0.1881
  668TIP3    H123495   0.796   2.006  37.786  0.3340  1.2608  0.3736
  668TIP3    H223496   0.766   1.998  37.934  0.0680 -0.4408  0.2574
  669TIP3   OH223497   0.008   0.931  77.015 -0.1249 -0.4313  0.8672
  669TIP3    H123498  -0.085   0.925  76.995 -0.0160 -0.3507  0.3194
  669TIP3    H223499   0.013   0.990  77.090 -0.5248 -0.5351  0.9732
  670TIP3   OH223500   0.478   0.201   9.202 -0.2410 -0.0487  0.5647
  670TIP3    H123501   0.519   0.181   9.118 -0.1932 -0.0183  0.5804
  670TIP3    H223502   0.460   0.116   9.241 -1.8282 -0.0888 -0.2130
  671TIP3   OH223503   0.701   1.139  29.670 -0.3581 -0.1065 -0.2288
  671TIP3    H123504   0.613   1.116  29.702 -0.3676  1.5612  1.1334
  671TIP3    H223505   0.687   1.219  29.619  0.2985 -0.0940 -0.3944
  672TIP3   OH223506   0.910   2.116  10.577  0.1768  0.2296 -0.3027
  672TIP3    H123507   0.885   2.069  10.656 -0.1837  0.4249 -0.3014
  672TIP3    H223508   1.004   2.099  10.568  0.3869  0.8838  0.6090
  673TIP3   OH223509   0.161   0.574  87.582 -0.0383  0.6192 -0.3402
  673TIP3    H123510   0.197   0.556  87.495  3.1899  2.6361  0.4150
  673TIP3    H223511   0.109   0.653  87.570 -1.6154 -0.4335 -0.7951
  674TIP3   OH223512   0.295   2.596  95.880 -0.5254 -0.3756  0.2144
  674TIP3    H123513   0.388   2.599  95.857 -0.6321 -2.2232 -0.6538
  674TIP3    H223514   0.260   2.679  95.847  0.5821 -0.1850 -0.5501
  675TIP3   OH223515   1.648   2.374  29.101  0.1158 -0.8699  0.0181
  675TIP3    H123516   1.594   2.334  29.168 -1.4006  0.3780 -0.3951
  675TIP3    H223517   1.672   2.302  29.043 -1.0348 -1.4950  0.2861
  676TIP3   OH223518   1.162   0.847  10.746  0.0667  0.0884  0.0706
  676TIP3    H123519   1.201   0.774  10.698 -2.0697 -1.7394  0.9805
  676TIP3    H223520   1.186   0.832  10.837  0.6257  1.2428  0.1318
  677TIP3   OH223521   2.528   1.316   5.143  0.3842  0.2805  0.0884
  677TIP3    H123522   2.525   1.230   5.187  0.8909  0.9582  1.5096
  677TIP3    H223523   2.500   1.297   5.054 -0.2861 -1.2431  0.5659
  678TIP3   OH223524   0.279   2.019  97.390 -0.8491 -0.4220 -0.4840
  678TIP3    H123525   0.305   1.941  97.342 -1.2694 -1.8826  1.5031
  678TIP3    H223526   0.185   2.009  97.403 -0.5816 -0.7337  1.6001
  679TIP3   OH223527   0.920   0.164  85.131  0.4286  0.3221  0.0081
  679TIP3    H123528   0.931   0.147  85.225 -1.9572 -0.3343  0.2295
  679TIP3    H223529   0.957   0.087  85.088  0.3892  0.0468  0.4661
  680TIP3   OH223530   0.983   1.871  31.514  0.0020  0.2021 -0.7402
  680TIP3    H123531   0.922   1.816  31.465 -0.1840 -0.5439  0.3110
  680TIP3    H223532   1.068   1.852  31.475 -0.3203  0.7162 -1.7367
  681TIP3   OH223533   0.426   1.215  94.071  0.1599  0.6934 -0.2556
  681TIP3    H123534   0.426   1.132  94.119  1.6943  0.9746  0.3031
  681TIP3    H223535   0.375   1.274  94.126 -0.4901  0.2801 -0.3931
  682TIP3   OH223536   1.457   2.335  97.838  0.4249 -0.0223 -0.6966
  682TIP3    H123537   1.370   2.358  97.870  0.1150 -0.9454 -0.8683
  682TIP3    H223538   1.446   2.252  97.793  1.4664 -0.3441 -0.4034
  683TIP3   OH223539   0.460   0.729  29.606 -0.0782  0.6439  0.1125
  683TIP3    H123540   0.528   0.765  29.664 -0.3156  0.1566  0.7022
  683TIP3    H223541   0.506   0.713  29.523 -0.2553  3.5540 -0.6562
  684TIP3   OH223542   2.685   2.618 105.286  0.3290  0.4147  0.1211
  684TIP3    H123543   2.779   2.628 105.303  0.0401  1.1894  1.3830
  684TIP3    H223544   2.673   2.653 105.198  1.3517 -0.5409 -0.4384
  685TIP3   OH223545   1.762   0.961  91.192 -0.3315  0.1169 -0.4047
  685TIP3    H123546   1.781   0.872  91.220 -0.2330  0.5670  1.0249
  685TIP3    H223547   1.774   0.959  91.097  2.7857 -0.6415 -0.0998
  686TIP3   OH223548   1.167   1.332  90.128 -0.0487 -0.7428  0.5118
  686TIP3    H123549   1.169   1.426  90.109  0.2765 -0.6936  0.7875
  686TIP3    H223550   1.258   1.309  90.144 -0.3937 -0.5370  3.2384
  687TIP3   OH223551   1.170   1.222  13.999  0.4060  0.5043  0.0238
  687TIP3    H123552   1.205   1.243  14.086  0.1720  1.0990 -0.0210
  687TIP3    H223553   1.087   1.177  14.017  0.8636 -0.3101  0.1205
  688TIP3   OH223554   2.302   1.554  14.693 -0.0519 -0.2400  0.1107
  688TIP3    H123555   2.207   1.561  14.688 -0.0972 -1.2855 -0.8920
  688TIP3    H223556   2.336   1.629  14.645 -0.3923 -0.5482 -0.6220
  689TIP3   OH223557   1.414   0.943  36.346 -0.0739 -0.0299  0.2189
  689TIP3    H123558   1.472   0.971  36.417 -0.0784  0.7796 -0.0865
  689TIP3    H223559   1.473   0.923  36.273  0.0068 -1.7744  0.7152
  690TIP3   OH223560   1.263   0.964  22.304  0.5197  0.5634  0.9340
  690TIP3    H123561   1.191   0.910  22.271  0.5975  0.7527  0.4406
  690TIP3    H223562   1.264   1.040  22.246  2.5401 -0.4720 -0.5178
  691TIP3   OH223563   2.030   0.303 102.388  0.1799  0.2634 -0.4889
  691TIP3    H123564   2.121   0.318 102.411 -0.1234 -0.2433  1.2180
  691TIP3    H223565   1.996   0.250 102.460 -1.3885  0.1811 -1.2481
  692TIP3   OH223566   0.673   0.333   1.770  0.0560 -0.1999  0.3351
  692TIP3    H123567   0.732   0.404   1.796  0.4465 -0.8426  1.2514
  692TIP3    H223568   0.726   0.277   1.714 -1.0061  1.6133 -2.7503
  693TIP3   OH223569   0.495   0.758  10.092 -0.8043  0.4246 -0.7517
  693TIP3    H123570   0.456   0.809  10.021 -0.3931  1.0037 -0.5643
  693TIP3    H223571   0.485   0.813  10.170  0.6789  0.7345 -0.7602
  694TIP3   OH223572   1.496   0.550   9.741  0.1143 -0.3836 -0.3280
  694TIP3    H123573   1.469   0.589   9.658  0.0952  0.4031  0.0282
  694TIP3    H223574   1.465   0.613   9.807  0.3779 -0.8555  0.2508
  695TIP3   OH223575   1.164   0.990  26.354 -0.0602  0.3027  0.4741
  695TIP3    H123576   1.177   0.897  26.336  0.1812  0.2103  1.1191
  695TIP3    H223577   1.239   1.015  26.408 -0.0539  0.9035  0.1993
  696TIP3   OH223578   1.822   0.782  82.059  0.0129  0.2247 -0.1126
  696TIP3    H123579   1.846   0.794  82.151  0.1045  0.4526 -0.1657
  696TIP3    H223580   1.773   0.700  82.058  4.5065 -2.8375 -0.6370
  697TIP3   OH223581   0.875   1.874   3.467 -0.3949  0.1278 -0.0389
  697TIP3    H123582   0.964   1.839   3.477  1.1418  3.1320 -1.5540
  697TIP3    H223583   0.832   1.854   3.550  1.9707 -0.7879  1.0725
  698TIP3   OH223584   0.049   2.405  84.643 -0.0702 -0.0554  0.1547
  698TIP3    H123585   0.100   2.461  84.701  0.0399 -0.9576  0.9570
  698TIP3    H223586   0.111   2.339  84.613 -0.6748 -1.0207  0.9540
  699TIP3   OH223587   0.189   1.528 104.289  0.4503  0.3743  0.3557
  699TIP3    H123588   0.203   1.434 104.297  0.9727  0.4841  0.9121
  699TIP3    H223589   0.187   1.559 104.380  2.1104  1.1238  0.1923
  700TIP3   OH223590   1.205   0.187  62.346 -0.4933 -0.1949  0.1172
  700TIP3    H123591   1.266   0.126  62.305 -0.8828 -0.8621  0.5163
  700TIP3    H223592   1.248   0.272  62.338  0.5263 -0.6616  0.4572
  701TIP3   OH223593   1.853   0.145   0.669  0.6279 -0.0967  0.2236
  701TIP3    H123594   1.770   0.141   0.717 -0.3859 -0.6367 -1.4806
  701TIP3    H223595   1.900   0.218   0.709 -1.6323  1.7349 -0.1877
  702TIP3   OH223596   0.943   0.378  83.461  0.5165  0.0251 -0.0895
  702TIP3    H123597   0.897   0.462  83.469 -0.3736 -0.4645 -0.0563
  702TIP3    H223598   1.010   0.395  83.395  0.3611  0.7696 -0.0713
  703TIP3   OH223599   2.232   1.417  82.923  0.8370 -0.4813  0.3397
  703TIP3    H123600   2.295   1.479  82.886 -0.8019  0.9123 -0.2706
  703TIP3    H223601   2.285   1.344  82.955  2.6550  0.1496 -1.0798
  704TIP3   OH223602   0.414   2.542  76.515  0.1686 -0.1236  0.7766
  704TIP3    H123603   0.479   2.477  76.544  0.1560 -1.4297 -1.8278
  704TIP3    H223604   0.460   2.594  76.449 -0.8992  0.1012  0.1958
  705TIP3   OH223605   2.547   2.679 105.025  0.0005  0.3380  0.1862
  705TIP3    H123606   2.513   2.755 105.072 -0.7637  1.1142 -1.5304
  705TIP3    H223607   2.608   2.716 104.961 -0.1120 -0.5275 -0.4419
  706TIP3   OH223608   0.996   0.832  16.645 -0.0908  0.0918 -0.6434
  706TIP3    H123609   1.001   0.845  16.551  1.2249 -1.2048 -0.7858
  706TIP3    H223610   0.927   0.892  16.674  0.9012  2.0312 -2.1098
  707TIP3   OH223611   1.148   1.003  57.809  0.3353  0.2008  0.3420
  707TIP3    H123612   1.139   1.009  57.714 -1.9603 -1.3421  0.3956
  707TIP3    H223613   1.223   1.060  57.829 -0.2784  2.0944 -2.1571
  708TIP3   OH223614   1.658   2.680 106.136  0.4445  1.0130 -0.0932
  708TIP3    H123615   1.691   2.719 106.217  0.5849 -1.5689  1.1854
  708TIP3    H223616   1.702   2.596 106.130 -2.8251 -0.8345 -0.4754
  709TIP3   OH223617   1.643   1.527 110.374  0.0604  0.1247 -0.0153
  709TIP3    H123618   1.555   1.505 110.403 -0.0275 -1.1573 -1.1666
  709TIP3    H223619   1.646   1.623 110.376 -1.6348  0.2181 -0.7789
  710TIP3   OH223620   1.297   2.510   3.697 -0.2908 -0.5194 -0.0608
  710TIP3    H123621   1.224   2.571   3.708 -0.3746 -0.5727 -0.3110
  710TIP3    H223622   1.306   2.467   3.782 -0.7124 -0.6934 -0.1022
  711TIP3   OH223623   2.309   2.296  36.149  0.2164 -0.2891  0.3992
  711TIP3    H123624   2.266   2.217  36.180 -0.8351  0.0221 -0.2006
  711TIP3    H223625   2.367   2.322  36.220 -0.1893 -1.0250  1.0120
  712TIP3   OH223626   1.739   0.075  35.028 -0.0434 -0.1618 -0.1051
  712TIP3    H123627   1.809   0.050  34.967  0.3189  1.6259 -0.4659
  712TIP3    H223628   1.721  -0.006  35.077  0.7330 -1.2322 -1.5088
  713TIP3   OH223629   1.094   0.574 103.217  0.2563  0.4571  0.1203
  713TIP3    H123630   1.183   0.566 103.252  0.2958  0.1151 -0.0543
  713TIP3    H223631   1.102   0.634 103.143  0.4496 -0.0454 -0.2714
  714TIP3   OH223632   0.800   1.937  11.811  0.4011  0.2216  0.5951
  714TIP3    H123633   0.812   2.032  11.800 -0.4788  0.1793 -1.0925
  714TIP3    H223634   0.867   1.898  11.755 -1.4704 -0.0774 -1.5610
  715TIP3   OH223635   1.403   1.326  76.350 -0.0666 -0.1571  0.1352
  715TIP3    H123636   1.388   1.388  76.279  1.4451 -1.9925 -1.9281
  715TIP3    H223637   1.498   1.317  76.354 -0.0193  0.5966  3.1387
  716TIP3   OH223638   1.114   2.633  94.814 -0.4030 -0.7963 -0.1100
  716TIP3    H123639   1.198   2.623  94.860  0.0629  0.2554 -0.6861
  716TIP3    H223640   1.124   2.584  94.733 -0.3950 -0.7955 -0.1119
  717TIP3   OH223641   1.961   2.086  84.010 -0.0434 -0.3939 -0.2418
  717TIP3    H123642   1.909   2.021  84.057  1.1910 -1.3416 -0.1334
  717TIP3    H223643   1.950   2.167  84.060 -0.1761 -0.9481  0.6361
  718TIP3   OH223644   2.462   2.215 107.891 -0.4479  0.3032  0.0490
  718TIP3    H123645   2.474   2.175 107.977 -2.3004  0.4545  0.4229
  718TIP3    H223646   2.530   2.175 107.836  0.2910 -0.3395  1.3771
  719TIP3   OH223647   1.261   1.603  26.762  0.0182  0.1014 -0.1930
  719TIP3    H123648   1.299   1.691  26.758 -0.4619  0.2913 -0.7944
  719TIP3    H223649   1.223   1.598  26.849  0.1007  0.4670 -0.1313
  720TIP3   OH223650   1.557   0.614  78.210 -0.1874  0.5668 -0.2317
  720TIP3    H123651   1.555   0.708  78.191  3.0703  1.0948  1.2202
  720TIP3    H223652   1.564   0.609  78.306 -2.2785 -1.3295 -0.0915
  721TIP3   OH223653   0.953   1.775  19.442 -0.1166 -1.0133  0.0641
  721TIP3    H123654   0.886   1.708  19.448  1.2569 -2.3453  1.2562
  721TIP3    H223655   1.018   1.751  19.508  1.1243  0.6887 -0.4553
  722TIP3   OH223656   2.655   1.068  99.721  0.3166  0.6088 -0.3047
  722TIP3    H123657   2.607   1.126  99.780  2.0837  2.1044 -0.2757
  722TIP3    H223658   2.702   1.008  99.779 -2.0729 -1.4427 -0.3442
  723TIP3   OH223659   1.185   2.427  75.219 -0.1244 -0.5585  0.1932
  723TIP3    H123660   1.196   2.511  75.263  1.4016 -1.5278  1.7722
  723TIP3    H223661   1.093   2.404  75.233 -0.3467  0.4526  0.4572
  724TIP3   OH223662   0.913   0.972  22.796  0.1224  0.1018  0.0142
  724TIP3    H123663   0.964   0.993  22.718 -0.4316  0.5925 -0.2270
  724TIP3    H223664   0.880   1.057  22.827 -1.5596 -0.3044 -0.5596
  725TIP3   OH223665   1.562   0.463  75.925 -0.3479  0.7624  0.7085
  725TIP3    H123666   1.612   0.438  76.003  0.5643  1.8458  0.4959
  725TIP3    H223667   1.530   0.551  75.945  1.2476  1.7267 -0.7318
  726TIP3   OH223668   2.623   2.478  24.447 -0.0051  0.0798  0.1826
  726TIP3    H123669   2.563   2.507  24.516  1.2096  2.1063  0.4611
  726TIP3    H223670   2.565   2.448  24.376 -1.3063  0.4528  1.0435
  727TIP3   OH223671   0.133   0.918  75.423 -0.0950 -0.0191  0.4040
  727TIP3    H123672   0.070   0.944  75.356  0.1820  0.2126  0.2304
  727TIP3    H223673   0.119   0.824  75.433  0.9596 -0.3778 -1.1483
  728TIP3   OH223674   1.887   1.688  20.650  0.0918  0.4013 -0.1359
  728TIP3    H123675   1.839   1.610  20.679  0.2914  0.1820 -0.3952
  728TIP3    H223676   1.878   1.749  20.723 -2.3614  1.1739 -1.0002
  729TIP3   OH223677   1.200   2.276  28.527 -0.0391 -0.1307 -0.5157
  729TIP3    H123678   1.141   2.258  28.454  1.2967  0.2537 -1.7550
  729TIP3    H223679   1.281   2.306  28.485  0.5229  0.8449  1.1652
  730TIP3   OH223680   1.950   0.415 100.724 -0.2143 -0.1564  0.1263
  730TIP3    H123681   1.895   0.461 100.660  0.0286 -0.2993 -0.1824
  730TIP3    H223682   1.981   0.338 100.679  1.4797  0.6847 -0.2157
  731TIP3   OH223683   1.650   1.457   5.165  0.2207 -0.1060  0.1403
  731TIP3    H123684   1.633   1.551   5.178  2.1674  0.2060  0.8682
  731TIP3    H223685   1.574   1.425   5.117  0.2204  2.1947 -1.5975
  732TIP3   OH223686   0.675   2.684  18.438  0.4999  0.0827  0.3479
  732TIP3    H123687   0.728   2.718  18.366  0.2781  1.1014  0.6534
  732TIP3    H223688   0.584   2.694  18.408  0.4340 -0.4874  0.3398
  733TIP3   OH223689   1.518   2.441  53.198  0.5611 -0.1036 -0.1544
  733TIP3    H123690   1.497   2.413  53.287  0.5550 -0.7639 -0.3579
  733TIP3    H223691   1.468   2.522  53.186  0.6341  0.0369  0.4721
  734TIP3   OH223692   0.238   0.373 109.987  0.0048 -0.4334 -0.0604
  734TIP3    H123693   0.302   0.444 109.993  0.0396 -0.3410 -1.2408
  734TIP3    H223694   0.223   0.346 110.077  0.8147  0.3406  0.3166
  735TIP3   OH223695   0.395   0.607   3.599  0.0751  0.1046  0.0335
  735TIP3    H123696   0.320   0.548   3.586  0.6535 -0.5578 -0.3826
  735TIP3    H223697   0.452   0.588   3.525  0.9517  0.1564  0.6876
  736TIP3   OH223698   1.485   0.066 109.054  0.1432 -0.3870  0.1110
  736TIP3    H123699   1.486   0.146 109.003  1.2145  1.7572  3.1869
  736TIP3    H223700   1.397   0.031 109.042 -0.4029  1.3072 -1.2201
  737TIP3   OH223701   0.900   1.558   2.819  0.2657  0.1476  0.3424
  737TIP3    H123702   0.872   1.634   2.871  1.1472  1.0469 -0.4514
  737TIP3    H223703   0.848   1.486   2.853 -0.0225  0.9409  1.6752
  738TIP3   OH223704   0.879   1.931 103.556 -0.4866 -0.0201  0.4003
  738TIP3    H123705   0.880   1.879 103.475  0.2847  1.1543 -0.3818
  738TIP3    H223706   0.787   1.954 103.569 -0.4598  1.1074 -1.0750
  739TIP3   OH223707   1.835   1.432  29.472  0.4210 -0.2965  0.4379
  739TIP3    H123708   1.798   1.498  29.414 -1.2596 -0.3196  1.4301
  739TIP3    H223709   1.789   1.351  29.450  0.8173 -0.6299  0.8000
  740TIP3   OH223710   0.963   1.972  29.775 -0.2584 -0.6778  0.4495
  740TIP3    H123711   1.053   1.965  29.806 -0.8112 -1.1299  2.0557
  740TIP3    H223712   0.971   1.982  29.680  1.4319 -1.8117  0.4308
  741TIP3   OH223713   1.313   0.969   2.768 -0.4329 -0.0473 -0.0676
  741TIP3    H123714   1.290   0.979   2.861  0.4288  0.4706  0.0954
  741TIP3    H223715   1.319   0.875   2.755 -0.4250 -0.1190  0.4355
  742TIP3   OH223716   1.772   1.154  73.768  0.1929 -0.5666 -0.3711
  742TIP3    H123717   1.702   1.105  73.725 -1.2180 -1.0136  2.2471
  742TIP3    H223718   1.770   1.240  73.725 -2.3970 -0.3629 -0.0559
  743TIP3   OH223719   1.609   1.324  79.908  0.2451  0.0721  0.6584
  743TIP3    H123720   1.560   1.272  79.973  0.7125 -1.4657 -0.1745
  743TIP3    H223721   1.701   1.311  79.931  0.4940 -1.5097 -0.9712
  744TIP3   OH223722   1.142   1.911  90.787 -0.6063 -0.1619  0.1778
  744TIP3    H123723   1.164   1.873  90.872 -2.1170 -1.0064  0.2182
  744TIP3    H223724   1.148   2.005  90.800  0.5329 -0.3009  0.8218
  745TIP3   OH223725   0.101   1.079  16.363 -0.5365 -0.0754 -0.2130
  745TIP3    H123726   0.065   1.023  16.432 -1.9760  0.7508 -0.2670
  745TIP3    H223727   0.030   1.138  16.340  0.8784  1.7161 -0.2420
  746TIP3   OH223728   2.139   0.355 107.293  0.3747  0.1731 -0.3261
  746TIP3    H123729   2.177   0.276 107.255  3.5472  1.4921 -0.2316
  746TIP3    H223730   2.198   0.426 107.266 -2.2471  2.5412 -0.3069
  747TIP3   OH223731   2.198   1.056  30.576 -0.1945  0.4240  0.0205
  747TIP3    H123732   2.214   1.150  30.582 -0.3525  0.4803 -0.4511
  747TIP3    H223733   2.103   1.048  30.567 -0.2488  0.1857  0.6842
  748TIP3   OH223734   0.714   0.876  81.483 -0.2438  0.3587  0.1483
  748TIP3    H123735   0.800   0.918  81.481 -0.7527  1.4837 -2.6167
  748TIP3    H223736   0.657   0.941  81.524  0.3756 -0.9730  3.4063
  749TIP3   OH223737   1.803   2.414 104.670  0.6569 -0.0356  0.4586
  749TIP3    H123738   1.832   2.368 104.749  0.8770  0.0375  0.4220
  749TIP3    H223739   1.850   2.497 104.672 -1.0376  0.9533  1.4266
  750TIP3   OH223740   0.797   1.078  21.085  0.6454  0.3069  0.0118
  750TIP3    H123741   0.787   1.072  20.990  1.2544 -1.0431  0.0003
  750TIP3    H223742   0.889   1.054  21.100  0.4676  0.2012  0.9669
  751TIP3   OH223743   2.112   0.860  25.085  0.6945  0.4360  0.2843
  751TIP3    H123744   2.118   0.765  25.078  2.0799  0.4834  0.4216
  751TIP3    H223745   2.035   0.876  25.139 -0.2582 -0.5540 -0.7564
  752TIP3   OH223746   0.356   0.011  36.423  0.0770 -0.1263 -0.2164
  752TIP3    H123747   0.362   0.022  36.518 -1.8013 -0.6329 -0.0014
  752TIP3    H223748   0.293   0.078  36.395  1.2610  0.6025 -1.2543
  753TIP3   OH223749   0.173   0.426   6.853 -0.3826 -0.3972 -0.3330
  753TIP3    H123750   0.232   0.384   6.916 -0.3066  0.2077  0.0108
  753TIP3    H223751   0.185   0.376   6.773  1.3045  0.2594 -0.5349
  754TIP3   OH223752   2.680   0.708  39.474 -0.2719  0.2945  0.2191
  754TIP3    H123753   2.694   0.781  39.535 -0.3400  0.2791  0.2531
  754TIP3    H223754   2.622   0.649  39.521  0.3490 -0.1252  0.4770
  755TIP3   OH223755   0.086   2.273 111.174  0.1586 -0.5236 -0.6496
  755TIP3    H123756   0.142   2.200 111.148  0.7166 -0.5939  0.6698
  755TIP3    H223757   0.011   2.232 111.216  0.2287 -0.3667 -0.3661
  756TIP3   OH223758   2.317   1.588  90.290  0.0819 -0.1335  0.0985
  756TIP3    H123759   2.330   1.599  90.384  0.1522 -1.0028  0.1900
  756TIP3    H223760   2.229   1.623  90.274 -0.0190 -0.1937  0.5143
  757TIP3   OH223761   1.205   1.435   8.637 -0.0368  0.2751 -0.4565
  757TIP3    H123762   1.282   1.477   8.597  0.2167  1.0591  0.7667
  757TIP3    H223763   1.175   1.499   8.702 -0.9798 -0.5566 -0.0497
  758TIP3   OH223764   2.255   1.665  17.427  0.3038 -0.1319 -0.2902
  758TIP3    H123765   2.209   1.634  17.349 -0.7638 -1.0775  0.6773
  758TIP3    H223766   2.222   1.754  17.440  0.0561 -0.1741 -0.6040
  759TIP3   OH223767   0.483   1.657 104.949  0.1334  0.3972 -0.0839
  759TIP3    H123768   0.505   1.608 105.028  0.1465 -0.3614 -0.5444
  759TIP3    H223769   0.398   1.697 104.970  0.0849  0.1200  0.2778
  760TIP3   OH223770   2.411   1.134  10.629  0.3616  0.1876  0.2161
  760TIP3    H123771   2.421   1.203  10.564  1.5646 -2.0821 -2.2118
  760TIP3    H223772   2.317   1.122  10.637  0.1723  1.0586 -0.5456
  761TIP3   OH223773   1.735   2.669   0.017  0.3460 -0.1548 -0.0368
  761TIP3    H123774   1.762   2.665  -0.075 -0.8506  0.7805 -0.4531
  761TIP3    H223775   1.733   2.762   0.038  0.9351 -0.3803  1.0461
  762TIP3   OH223776   2.153   2.144  10.155 -0.2701 -0.1267  0.3351
  762TIP3    H123777   2.201   2.061  10.160 -0.8466 -0.4316  1.0047
  762TIP3    H223778   2.067   2.124  10.192 -0.9297  0.4104 -0.8649
  763TIP3   OH223779   0.007   1.378 108.681  0.0437  0.3518 -0.0694
  763TIP3    H123780   0.033   1.467 108.707 -1.4755  0.5536  0.9124
  763TIP3    H223781  -0.088   1.382 108.677 -0.2346 -1.8070  2.2998
  764TIP3   OH223782   0.429   2.668  32.843  0.0537  0.1908  0.4607
  764TIP3    H123783   0.495   2.677  32.774 -0.2123  1.6136  0.3632
  764TIP3    H223784   0.464   2.718  32.917 -0.7854  0.7594  0.4932
  765TIP3   OH223785   1.203   1.103  96.290 -0.0209 -0.1928 -0.5026
  765TIP3    H123786   1.120   1.108  96.243  0.7874 -0.5429 -2.0443
  765TIP3    H223787   1.218   1.009  96.302  0.6595 -0.1811 -1.2009
  766TIP3   OH223788   0.947   2.659  66.958 -0.0987  0.5367  0.1778
  766TIP3    H123789   0.924   2.660  66.865 -2.7526  2.7149  0.7095
  766TIP3    H223790   0.972   2.568  66.976 -0.9853 -0.2919 -2.3394
  767TIP3   OH223791   1.792   0.507  77.677  0.4201  0.4803  0.9589
  767TIP3    H123792   1.842   0.579  77.715  1.2275 -1.9175  4.9578
  767TIP3    H223793   1.858   0.447  77.643  0.1718 -0.8977  2.7636
  768TIP3   OH223794   2.014   0.792   8.505 -0.0168 -0.2235  0.8849
  768TIP3    H123795   2.106   0.809   8.483  0.0138 -0.8046  0.5410
  768TIP3    H223796   1.973   0.769   8.421  0.0173 -2.1334  1.3576
  769TIP3   OH223797   0.252   0.657  78.210  0.2094  0.0880  0.1997
  769TIP3    H123798   0.321   0.724  78.218  0.5540 -0.1493 -0.6615
  769TIP3    H223799   0.228   0.638  78.301  2.8433 -1.4156  0.7009
  770TIP3   OH223800   1.020   0.324  93.508 -0.5810 -0.0038  0.5163
  770TIP3    H123801   0.928   0.328  93.482 -0.5209 -1.7816 -0.1381
  770TIP3    H223802   1.026   0.242  93.559  1.2052 -1.6100 -2.0569
  771TIP3   OH223803   1.851   0.875  86.205 -0.4800 -0.2614 -0.1754
  771TIP3    H123804   1.802   0.956  86.212 -1.3358 -0.8704  1.5114
  771TIP3    H223805   1.794   0.809  86.244  1.3740 -1.1079  1.2615
  772TIP3   OH223806   0.692   2.205  21.457  0.4380  0.0585 -0.2340
  772TIP3    H123807   0.662   2.114  21.456  1.4423 -0.2893 -0.4732
  772TIP3    H223808   0.763   2.206  21.521 -0.1377  0.8791  0.4042
  773TIP3   OH223809   1.393   0.189  36.030 -0.0693 -0.2804  0.5857
  773TIP3    H123810   1.421   0.100  36.051 -1.6230 -0.7837  0.6556
  773TIP3    H223811   1.345   0.217  36.108 -0.1004  0.4061  0.3234
  774TIP3   OH223812   1.151   1.240  95.689  0.5283  0.0011  0.4645
  774TIP3    H123813   1.224   1.205  95.638 -0.2275 -2.2927  0.8373
  774TIP3    H223814   1.073   1.201  95.649 -0.5095  2.0999  0.3076
  775TIP3   OH223815   0.066   2.242  91.491  0.0310  0.3054  0.2519
  775TIP3    H123816   0.053   2.329  91.453 -2.1726  0.5908  1.4712
  775TIP3    H223817  -0.016   2.196  91.476  0.8093 -1.2412  0.5097
  776TIP3   OH223818   2.056   0.352 109.982  0.1629  0.0565 -0.2865
  776TIP3    H123819   2.013   0.435 109.999  0.2779 -0.2735  2.0528
  776TIP3    H223820   2.130   0.374 109.925 -1.5943  0.9936 -2.3206
  777TIP3   OH223821   1.532   0.954  94.265  0.1181 -0.6005 -0.1651
  777TIP3    H123822   1.515   1.023  94.200  0.7082 -0.0708  0.2334
  777TIP3    H223823   1.627   0.950  94.270  0.0776 -0.8995  0.3977
  778TIP3   OH223824   0.791   1.371  87.753 -0.0616  0.1347 -0.3213
  778TIP3    H123825   0.744   1.308  87.698 -0.7164  0.6361 -0.3484
  778TIP3    H223826   0.736   1.449  87.751 -0.0398  0.1961  0.9570
  779TIP3   OH223827   1.444   1.469  22.092  0.5329  0.0230 -0.5729
  779TIP3    H123828   1.490   1.545  22.059  1.0818 -0.5205 -1.0827
  779TIP3    H223829   1.472   1.461  22.184 -0.9868  1.5254  0.0675
  780TIP3   OH223830   1.112   2.519  34.033 -0.5128  0.1212  0.0198
  780TIP3    H123831   1.096   2.528  34.127  0.9998  0.4226  0.2796
  780TIP3    H223832   1.103   2.425  34.017 -2.0556  0.2135  0.1844
  781TIP3   OH223833   2.498   0.532  16.604  0.5693 -0.0982  0.8497
  781TIP3    H123834   2.448   0.450  16.595  1.7811 -0.9073  1.1878
  781TIP3    H223835   2.564   0.527  16.536  0.5127  0.7251  0.7314
  782TIP3   OH223836   0.544   1.412 109.706  0.1436 -0.0584 -0.1093
  782TIP3    H123837   0.467   1.357 109.689  1.2138 -1.3870 -0.7974
  782TIP3    H223838   0.507   1.495 109.737 -1.6089 -0.3087 -1.3580
  783TIP3   OH223839   2.402   1.071   9.729 -0.1304  1.0672  0.2439
  783TIP3    H123840   2.495   1.051   9.731 -0.4904 -0.7617  1.2340
  783TIP3    H223841   2.397   1.166   9.730  1.7171  1.1887  0.3567
  784TIP3   OH223842   1.670   2.000  76.917  0.0104 -0.5997 -0.5258
  784TIP3    H123843   1.688   2.079  76.968 -0.5305 -2.2981  2.5261
  784TIP3    H223844   1.650   2.032  76.829  0.2370  2.5928  0.4682
  785TIP3   OH223845   2.267   0.407  28.890 -0.1298  0.4289 -0.3880
  785TIP3    H123846   2.220   0.437  28.813 -0.3280  0.9290 -0.0777
  785TIP3    H223847   2.359   0.409  28.864 -0.1176  1.5207 -0.3144
  786TIP3   OH223848   2.495   2.142  78.333 -0.0964  0.6326 -0.0629
  786TIP3    H123849   2.508   2.081  78.260 -0.6973  0.2889  0.1013
  786TIP3    H223850   2.535   2.223  78.304  2.1820 -0.2823  0.3413
  787TIP3   OH223851   0.930   2.397  88.526 -0.0812 -0.1110  0.0452
  787TIP3    H123852   0.839   2.381  88.500  0.2178  1.0216 -1.8943
  787TIP3    H223853   0.933   2.489  88.549  0.7787  0.1460 -1.0023
  788TIP3   OH223854   0.880   1.263 111.935  0.0386  0.0571  0.0406
  788TIP3    H123855   0.835   1.267 112.019 -0.2644 -0.2294 -0.1089
  788TIP3    H223856   0.933   1.343 111.932  0.2494 -0.0607  0.6198
  789TIP3   OH223857   2.132   0.812  22.612  0.2215  0.4485 -0.3089
  789TIP3    H123858   2.126   0.907  22.607  0.1888  0.4776  0.2072
  789TIP3    H223859   2.153   0.784  22.523  1.2302  1.0180 -0.2699
  790TIP3   OH223860   1.685   1.096   5.128  0.6267 -0.1204  0.3369
  790TIP3    H123861   1.677   1.142   5.212  0.2820  0.1308  0.1676
  790TIP3    H223862   1.725   1.012   5.151 -1.0018 -0.7587  0.9866
  791TIP3   OH223863   0.014   0.633  10.964 -0.2489 -0.0593  0.3230
  791TIP3    H123864  -0.045   0.584  11.021 -0.8394 -0.2792 -0.4621
  791TIP3    H223865   0.054   0.566  10.908  0.8505  0.0724  0.9215
  792TIP3   OH223866   0.071   0.922  86.524  0.2656  0.0992 -0.0328
  792TIP3    H123867   0.135   0.979  86.567  0.0512  1.0427 -0.9327
  792TIP3    H223868  -0.014   0.957  86.550  0.1207 -0.4599  0.2551
  793TIP3   OH223869   0.919   0.788   8.449  0.0294  0.1872  0.2151
  793TIP3    H123870   0.976   0.735   8.505 -1.0666 -0.3563  0.8465
  793TIP3    H223871   0.946   0.878   8.467  0.1777 -0.0182  1.0753
  794TIP3   OH223872   1.983   0.231  31.887 -0.5046  0.8525  0.3496
  794TIP3    H123873   2.028   0.185  31.816 -1.5385  1.3267 -0.6476
  794TIP3    H223874   1.948   0.161  31.942  0.5425  0.4791  0.5657
  795TIP3   OH223875   0.259   1.178   1.570 -0.2241 -0.3605 -0.0464
  795TIP3    H123876   0.285   1.218   1.653  0.1693 -0.4159 -0.1454
  795TIP3    H223877   0.285   1.087   1.577  0.1490 -0.2803 -0.3802
  796TIP3   OH223878   0.236   1.695  32.935 -0.0218  0.5385  0.2546
  796TIP3    H123879   0.307   1.680  32.998 -1.1686 -1.2549  1.1977
  796TIP3    H223880   0.166   1.735  32.987 -1.5000 -2.2098  0.5460
  797TIP3   OH223881   0.982   1.354  28.874  0.4984 -0.5447 -0.0392
  797TIP3    H123882   0.963   1.261  28.863  0.8394 -0.8570  1.7837
  797TIP3    H223883   0.903   1.391  28.913  0.3950 -0.0652 -0.6778
  798TIP3   OH223884   0.142   2.491  67.235  0.2112 -0.0194 -0.6184
  798TIP3    H123885   0.087   2.474  67.312  0.6125 -0.8369 -0.4998
  798TIP3    H223886   0.127   2.583  67.214 -2.3243 -0.5359 -1.4505
  799TIP3   OH223887   2.094   1.019  35.789 -0.4916  0.2686  0.9899
  799TIP3    H123888   2.069   1.034  35.698 -1.1007  2.4965  1.4702
  799TIP3    H223889   2.189   1.019  35.788 -0.4935  0.3760  0.3737
  800TIP3   OH223890   1.776   1.890  96.096  0.1717  0.1281  0.1126
  800TIP3    H123891   1.692   1.870  96.054  1.0310 -0.5135 -1.3575
  800TIP3    H223892   1.777   1.986  96.101 -0.7575  0.1383  0.4097
  801TIP3   OH223893   2.441   1.720  85.108 -0.1055 -0.1158 -0.1861
  801TIP3    H123894   2.375   1.651  85.107  0.2952 -0.5290  0.9760
  801TIP3    H223895   2.471   1.725  85.017 -1.9596  0.3262 -0.8293
  802TIP3   OH223896   0.016   1.925  73.988 -0.0125  0.6161 -0.1562
  802TIP3    H123897  -0.042   1.872  73.933 -0.1155  0.2425  0.3043
  802TIP3    H223898  -0.038   1.950  74.063  1.1075 -2.0985  1.7346
  803TIP3   OH223899   1.022   2.316  18.556 -0.3350 -0.5654 -0.9747
  803TIP3    H123900   0.997   2.226  18.577 -0.0798 -0.4553 -0.1344
  803TIP3    H223901   1.017   2.321  18.461 -0.6311 -1.3844 -1.0125
  804TIP3   OH223902   0.604   0.941  79.932  0.0620  0.4442  0.1502
  804TIP3    H123903   0.600   1.019  79.876  1.6907  1.8980  1.9082
  804TIP3    H223904   0.691   0.905  79.915 -1.5968 -2.7336 -2.6728
  805TIP3   OH223905   1.495   1.767  77.124 -0.4374 -0.6573 -0.1758
  805TIP3    H123906   1.432   1.835  77.100 -0.6999 -0.4519  1.0557
  805TIP3    H223907   1.482   1.753  77.218  1.0235 -0.9615  0.0024
  806TIP3   OH223908   0.310   0.821  21.774 -0.1879  0.0603  0.0635
  806TIP3    H123909   0.392   0.856  21.809 -0.0841  0.4966 -0.6090
  806TIP3    H223910   0.242   0.876  21.812 -0.0839  0.4532 -0.3128
  807TIP3   OH223911   0.679   2.684  16.605 -0.2787  0.1554  0.3326
  807TIP3    H123912   0.751   2.725  16.556 -1.4359 -1.0224 -2.6204
  807TIP3    H223913   0.709   2.595  16.622 -0.6373 -0.0513 -0.0764
  808TIP3   OH223914   1.525   1.206  84.272  0.0871 -0.0854 -0.0415
  808TIP3    H123915   1.457   1.152  84.231  1.3153 -0.8542 -1.1695
  808TIP3    H223916   1.575   1.240  84.198  0.5581  0.9705  0.7470
  809TIP3   OH223917   0.903   1.403  79.218  0.3016  0.4745 -0.0043
  809TIP3    H123918   0.930   1.490  79.247 -0.6449  0.5669  0.6411
  809TIP3    H223919   0.821   1.417  79.171  0.3587 -0.0250 -0.2657
  810TIP3   OH223920   1.527   2.351  80.514 -0.0617 -0.4404 -0.4784
  810TIP3    H123921   1.588   2.413  80.474  0.1512 -1.0634 -1.1492
  810TIP3    H223922   1.538   2.362  80.608 -1.8487  2.3498 -0.5057
  811TIP3   OH223923   1.704   0.890   7.932  0.5411 -0.2915 -0.6922
  811TIP3    H123924   1.798   0.873   7.924  0.5493 -0.3870 -0.4118
  811TIP3    H223925   1.672   0.818   7.986  0.0907 -0.9243 -1.7722
  812TIP3   OH223926   2.551   0.050  22.549 -0.2020 -0.4254 -0.2675
  812TIP3    H123927   2.606   0.004  22.612 -1.0204  0.9449  1.5110
  812TIP3    H223928   2.463   0.018  22.566 -0.4191 -0.1093 -0.7795
  813TIP3   OH223929   1.850   1.323  74.483  0.2766 -0.9356  0.0530
  813TIP3    H123930   1.900   1.292  74.407  0.0537 -1.0492 -0.0437
  813TIP3    H223931   1.759   1.314  74.457  0.2072 -0.3704  0.0897
  814TIP3   OH223932   0.274   2.242  16.895 -0.3513 -0.1019  0.2601
  814TIP3    H123933   0.318   2.296  16.830 -0.5852 -0.0582  0.1344
  814TIP3    H223934   0.252   2.161  16.848 -0.1649 -0.2322  0.3981
  815TIP3   OH223935   0.882   0.222  98.072  0.5422  0.1308  0.3161
  815TIP3    H123936   0.957   0.170  98.043 -0.7177 -1.1618 -0.8026
  815TIP3    H223937   0.909   0.313  98.058  1.4733 -0.3424 -1.1662
  816TIP3   OH223938   0.195   2.515  43.491 -0.0773 -0.1809 -0.1986
  816TIP3    H123939   0.148   2.598  43.496  2.4354  1.5561 -2.4341
  816TIP3    H223940   0.160   2.473  43.413  0.1745 -0.1610 -0.3230
  817TIP3   OH223941   1.868   0.284  97.152 -0.1168  0.3308 -0.2220
  817TIP3    H123942   1.860   0.296  97.247  1.5035 -0.1606  0.0008
  817TIP3    H223943   1.928   0.210  97.142 -0.1777  0.4518 -1.6414
  818TIP3   OH223944   0.176   1.888 105.731 -0.1442 -0.3941 -0.0844
  818TIP3    H123945   0.153   1.896 105.824 -0.4996  0.5819 -0.2442
  818TIP3    H223946   0.186   1.978 105.701  1.9568 -0.7309 -0.5169
  819TIP3   OH223947   2.567   1.679  91.083  0.2117 -0.7921  0.1034
  819TIP3    H123948   2.595   1.769  91.101 -0.0330 -0.5872 -0.5093
  819TIP3    H223949   2.646   1.627  91.095  0.4439 -0.4488  0.0946
  820TIP3   OH223950   2.292   2.239  19.158  0.6072 -0.0859 -0.1008
  820TIP3    H123951   2.299   2.150  19.123 -0.8800  0.7240 -2.7606
  820TIP3    H223952   2.358   2.289  19.111 -1.2198  0.9790 -1.6597
  821TIP3   OH223953   0.395   1.579 111.603 -0.5338 -0.2770 -0.1965
  821TIP3    H123954   0.394   1.509 111.668  0.7267 -0.7460 -0.6525
  821TIP3    H223955   0.349   1.651 111.646 -0.0983 -0.7100  1.0591
  822TIP3   OH223956   1.766   2.653  29.703  0.3339  0.0508  0.5794
  822TIP3    H123957   1.715   2.582  29.664  1.3968 -0.5638  0.2749
  822TIP3    H223958   1.700   2.715  29.735 -0.6324 -1.3421  1.3891
  823TIP3   OH223959   2.507   2.568 105.858 -0.3360  0.4051  0.0960
  823TIP3    H123960   2.434   2.521 105.818  0.8295 -2.5631  1.1398
  823TIP3    H223961   2.555   2.606 105.784 -1.2958 -0.1347 -0.8289
  824TIP3   OH223962   1.413   1.110  90.163  0.0378 -0.3304  0.2896
  824TIP3    H123963   1.380   1.038  90.109  0.0822 -0.6383  0.6657
  824TIP3    H223964   1.354   1.112  90.239 -0.2804  0.3670  0.0331
  825TIP3   OH223965   1.620   0.382  84.071  0.0523  0.1940 -0.5575
  825TIP3    H123966   1.711   0.371  84.043  0.0100  0.9333 -1.0232
  825TIP3    H223967   1.574   0.308  84.032  0.3379  0.1868 -0.8927
  826TIP3   OH223968   0.373   2.445  31.809  0.3547  0.1369 -0.1224
  826TIP3    H123969   0.318   2.406  31.877  2.9705 -2.1782  0.8280
  826TIP3    H223970   0.351   2.395  31.730  0.8103 -0.5319  0.1676
  827TIP3   OH223971   2.324   1.462  20.174  0.2015 -0.2069 -0.3190
  827TIP3    H123972   2.286   1.399  20.235 -0.0201  0.5821  0.3840
  827TIP3    H223973   2.321   1.418  20.089  0.0780 -1.1453  0.1569
  828TIP3   OH223974   0.971   1.155  84.207 -0.1596  0.0711  0.2856
  828TIP3    H123975   0.994   1.246  84.228 -0.9524  0.4451 -0.4115
  828TIP3    H223976   0.881   1.145  84.239  0.0613 -0.5978  0.7167
  829TIP3   OH223977   0.773   0.857  32.665 -0.1921  0.4445 -0.3072
  829TIP3    H123978   0.703   0.885  32.725 -1.3626 -1.9260 -0.4635
  829TIP3    H223979   0.849   0.844  32.721 -0.8123 -0.1372  0.4184
  830TIP3   OH223980   2.460   0.912  34.877  0.2744  0.0303  0.1058
  830TIP3    H123981   2.401   0.841  34.903 -0.1740  0.1308 -0.6237
  830TIP3    H223982   2.417   0.953  34.803 -0.9472  2.9738  2.2703
  831TIP3   OH223983   1.936   1.226  90.225  0.6295 -0.2245 -0.4683
  831TIP3    H123984   1.952   1.275  90.305  0.3585 -1.2199  0.2166
  831TIP3    H223985   1.847   1.191  90.235  0.9539 -1.1730 -0.7413
  832TIP3   OH223986   0.313   0.612  17.911  0.4849  0.1278 -0.4574
  832TIP3    H123987   0.283   0.529  17.948  1.0565  0.0341 -0.1926
  832TIP3    H223988   0.374   0.587  17.842  0.2164  0.3243 -0.7737
  833TIP3   OH223989   1.876   0.630  41.964  0.5401  0.6645  0.0330
  833TIP3    H123990   1.935   0.706  41.962  1.9122 -0.3522 -0.0411
  833TIP3    H223991   1.849   0.619  41.873  0.8164  0.7007 -0.0538
  834TIP3   OH223992   1.669   2.685   8.703 -0.3058  0.1363 -0.3448
  834TIP3    H123993   1.725   2.639   8.767  1.5131  1.0568 -1.1974
  834TIP3    H223994   1.642   2.617   8.642 -0.8996 -0.4953  0.5972
  835TIP3   OH223995   1.920   1.215  20.069  0.3421  0.3958 -0.3075
  835TIP3    H123996   1.827   1.233  20.080  0.7140  1.9757  0.5820
  835TIP3    H223997   1.948   1.274  19.999  0.7618  0.2040 -0.3056
  836TIP3   OH223998   1.953   1.452   7.518  0.0011 -0.7306 -0.1519
  836TIP3    H123999   2.019   1.421   7.580 -0.0210  0.2423  0.3785
  836TIP3    H224000   1.995   1.526   7.474 -0.4560 -0.5866 -0.3552
  837TIP3   OH224001   1.740   2.574   0.876  0.4741 -0.0263  0.6190
  837TIP3    H124002   1.722   2.494   0.827 -0.8578 -0.2748  1.4454
  837TIP3    H224003   1.699   2.643   0.824  2.1748  0.2487 -0.4241
  838TIP3   OH224004   1.787   1.635 108.080  0.3093  0.5073  0.1217
  838TIP3    H124005   1.768   1.575 108.153  0.1946 -1.9443 -1.7979
  838TIP3    H224006   1.700   1.656 108.045  0.4162 -1.8890 -1.8972
  839TIP3   OH224007   0.412   0.004  27.490  0.0789 -0.3825 -0.7101
  839TIP3    H124008   0.362   0.079  27.521 -0.0047 -0.2928 -1.0597
  839TIP3    H224009   0.475  -0.014  27.561 -0.3446 -0.4093 -0.3359
  840TIP3   OH224010   2.664   2.419  27.103  0.3739  0.1537  0.4233
  840TIP3    H124011   2.611   2.352  27.060 -0.2320 -1.0616  2.8386
  840TIP3    H224012   2.731   2.368  27.150  0.5803  1.3230  1.4248
  841TIP3   OH224013   2.164   0.347   2.299 -0.0117  0.2510  0.0079
  841TIP3    H124014   2.213   0.339   2.217 -0.7450  0.1049 -0.4290
  841TIP3    H224015   2.229   0.374   2.364  0.5851  0.3300 -0.6145
  842TIP3   OH224016   0.959   2.672  81.109 -0.9064 -0.2112  0.3143
  842TIP3    H124017   1.043   2.717  81.097 -0.5982 -0.7580  0.3717
  842TIP3    H224018   0.920   2.671  81.022  0.2942 -2.1540 -0.2599
  843TIP3   OH224019   0.259   1.563   5.400  0.4421 -0.1930 -0.3863
  843TIP3    H124020   0.176   1.570   5.353  0.0326 -0.0619  0.3455
  843TIP3    H224021   0.303   1.489   5.358  0.4287  0.3847 -1.4770
  844TIP3   OH224022   1.023   1.399  83.072  0.1067  0.1352  0.2567
  844TIP3    H124023   1.032   1.467  83.138  2.3706 -1.0007  1.2313
  844TIP3    H224024   1.105   1.349  83.077 -0.1119 -0.7340 -2.6059
  845TIP3   OH224025   1.113   1.124  74.378 -0.4767 -0.4250  0.0191
  845TIP3    H124026   1.082   1.042  74.418 -2.1642 -0.2462 -0.8273
  845TIP3    H224027   1.090   1.191  74.442  1.6882 -0.6299  1.1053
  846TIP3   OH224028   1.245   0.639  27.900  0.9014  0.9053  0.1837
  846TIP3    H124029   1.214   0.702  27.834  1.0995 -0.4140 -1.2363
  846TIP3    H224030   1.334   0.618  27.873  0.3145 -1.1465 -0.3501
  847TIP3   OH224031   1.864   1.426  95.685 -0.4291 -0.2318  0.2130
  847TIP3    H124032   1.944   1.478  95.677 -0.3829 -0.4327 -0.7938
  847TIP3    H224033   1.800   1.473  95.632 -0.6677 -0.6592  0.1199
  848TIP3   OH224034   2.625   2.051  19.047 -0.5159  0.1981  0.4612
  848TIP3    H124035   2.698   2.018  19.099 -0.2167 -1.9207 -1.1888
  848TIP3    H224036   2.663   2.126  18.999  0.1597  0.0417  0.7326
  849TIP3   OH224037   1.320   2.457  36.809  0.1209 -0.1435  0.1464
  849TIP3    H124038   1.246   2.406  36.776 -1.1614  0.9354  1.2497
  849TIP3    H224039   1.363   2.491  36.730 -0.4733 -0.8839 -0.5131
  850TIP3   OH224040   0.865   1.561  88.228 -0.4904  0.5510  0.5079
  850TIP3    H124041   0.892   1.649  88.203  0.1780  0.5001  1.0414
  850TIP3    H224042   0.929   1.503  88.186 -0.9235  0.3081  0.1716
  851TIP3   OH224043   0.214   1.720 104.998  0.0511 -0.2777 -0.1482
  851TIP3    H124044   0.134   1.669 105.013 -0.2099  0.3676  0.8021
  851TIP3    H224045   0.236   1.754 105.085  1.6453 -0.8396 -0.2925
  852TIP3   OH224046   1.993   0.637  16.002 -0.2626  0.1004 -0.2089
  852TIP3    H124047   1.925   0.572  15.985 -0.4708  0.3515 -0.3420
  852TIP3    H224048   1.951   0.722  15.984 -0.2962  0.3377  0.9216
  853TIP3   OH224049   2.635   1.888  68.862 -0.5678 -0.3938 -0.4549
  853TIP3    H124050   2.686   1.968  68.852 -2.5299  0.7166 -2.3613
  853TIP3    H224051   2.607   1.888  68.953  0.5868  0.3377 -0.0750
  854TIP3   OH224052   1.962   0.246   6.988  0.1408 -0.0585  0.2393
  854TIP3    H124053   1.989   0.164   6.947 -0.0819  0.2629 -0.5709
  854TIP3    H224054   1.980   0.233   7.082  0.6390 -0.8119  0.0510
  855TIP3   OH224055   1.494   0.587  77.943 -0.1025  0.3270 -0.0972
  855TIP3    H124056   1.459   0.502  77.917 -1.9370  0.6709  1.0580
  855TIP3    H224057   1.494   0.584  78.039  1.9302  0.8290 -0.0394
  856TIP3   OH224058   0.370   0.514  86.299  0.3423  0.4465 -0.2392
  856TIP3    H124059   0.312   0.581  86.336 -0.0480  2.3007 -3.7629
  856TIP3    H224060   0.458   0.548  86.313  0.3681 -0.1689  1.1968
  857TIP3   OH224061   2.090   1.353  34.505 -0.1283 -0.2970 -0.1585
  857TIP3    H124062   2.074   1.318  34.593 -0.8392 -0.5136 -0.3636
  857TIP3    H224063   2.002   1.372  34.471  0.1221 -0.5701 -0.9674
  858TIP3   OH224064   1.429   0.716   7.313  0.4147  0.3381  0.3304
  858TIP3    H124065   1.479   0.780   7.363 -0.0472  0.9166  0.0724
  858TIP3    H224066   1.414   0.644   7.374  1.1337  0.3673  0.5564
  859TIP3   OH224067   1.687   0.159  94.113  0.2120 -0.0292  0.0883
  859TIP3    H124068   1.661   0.232  94.057  0.6352 -0.5016 -0.7394
  859TIP3    H224069   1.765   0.124  94.072  1.8774  0.9880  2.1908
  860TIP3   OH224070   1.346   1.076 108.060 -0.4571  0.0350 -0.1724
  860TIP3    H124071   1.317   0.986 108.071 -0.6118  0.0523 -0.4225
  860TIP3    H224072   1.434   1.079 108.097  0.0199 -0.4997 -1.2251
  861TIP3   OH224073   0.763   0.233  29.627 -0.6873 -0.6184 -0.3246
  861TIP3    H124074   0.715   0.161  29.669 -0.3721 -0.1409  0.9121
  861TIP3    H224075   0.717   0.312  29.657  0.0017 -0.2305 -0.2788
  862TIP3   OH224076   0.555   1.616 107.886  0.2657 -0.1168  0.0252
  862TIP3    H124077   0.474   1.576 107.919 -0.7331  1.3828 -0.4991
  862TIP3    H224078   0.607   1.542 107.854 -1.6898 -0.9954 -1.3123
  863TIP3   OH224079   0.364   0.223  26.724  0.1031 -0.0877 -0.1770
  863TIP3    H124080   0.404   0.137  26.710  0.1667  0.2067 -2.0106
  863TIP3    H224081   0.286   0.204  26.777  1.1075 -1.0076  1.0338
  864TIP3   OH224082   2.259   0.150  77.926  0.2490  0.3217 -0.3112
  864TIP3    H124083   2.339   0.154  77.874 -0.3657 -1.8290 -1.5581
  864TIP3    H224084   2.195   0.200  77.875  0.5951  1.4441  0.3333
  865TIP3   OH224085   0.952   0.026  13.973  0.4649  0.2987 -0.2511
  865TIP3    H124086   0.882  -0.034  13.999 -0.6541  1.5833 -0.2401
  865TIP3    H224087   0.908   0.108  13.953  2.0133  1.2690  0.1628
  866TIP3   OH224088   2.181   2.470  85.563 -0.1452 -0.5143 -0.2161
  866TIP3    H124089   2.177   2.376  85.546 -0.5908 -0.2566 -1.6692
  866TIP3    H224090   2.113   2.485  85.630  0.1826 -1.2630  0.3043
  867TIP3   OH224091   1.891   0.375  36.457 -0.3053 -0.4676 -0.2138
  867TIP3    H124092   1.854   0.353  36.372 -1.4826 -2.4953  0.7373
  867TIP3    H224093   1.831   0.439  36.495 -1.5076 -1.8248  0.2696
  868TIP3   OH224094   2.214   0.738  86.443 -0.7122 -0.0415  0.0213
  868TIP3    H124095   2.307   0.754  86.460 -0.3893 -1.5259 -0.2216
  868TIP3    H224096   2.183   0.694  86.522 -1.0076 -0.3181 -0.2540
  869TIP3   OH224097   2.284   2.040  24.685  0.1335  0.1295 -0.8405
  869TIP3    H124098   2.235   2.116  24.715  0.8905  0.5068 -0.5427
  869TIP3    H224099   2.234   1.965  24.718  0.3849  0.5261  0.5062
  870TIP3   OH224100   0.039   1.711  77.600  0.6427 -0.0890 -0.9415
  870TIP3    H124101  -0.049   1.675  77.607  1.2570 -1.4545  0.1536
  870TIP3    H224102   0.026   1.803  77.577 -1.1511  0.3271  1.4128
  871TIP3   OH224103   0.765   1.010   6.303  0.0776 -0.1181 -0.2963
  871TIP3    H124104   0.825   1.084   6.313  0.5362 -0.4643 -0.4646
  871TIP3    H224105   0.802   0.958   6.231  0.2761 -0.9997  0.4197
  872TIP3   OH224106   0.212   1.946  21.193 -0.0911 -0.0196 -0.1976
  872TIP3    H124107   0.199   2.032  21.152 -2.5896 -0.8418 -1.2682
  872TIP3    H224108   0.225   1.886  21.120 -0.7414 -0.9272  0.4134
  873TIP3   OH224109   0.861   2.372  26.625 -0.0946 -0.1136 -0.7743
  873TIP3    H124110   0.922   2.365  26.551  1.5821 -3.5275  0.7154
  873TIP3    H224111   0.803   2.296  26.615  0.7854 -1.2264  1.8041
  874TIP3   OH224112   1.099   0.178 103.615 -0.1926  0.1186  0.1450
  874TIP3    H124113   1.042   0.254 103.619 -1.6371 -0.9280  0.3116
  874TIP3    H224114   1.054   0.117 103.556  0.9565 -0.5737 -0.0424
  875TIP3   OH224115   0.759   2.644  31.844 -0.0558  0.0899 -0.2764
  875TIP3    H124116   0.685   2.666  31.788  1.0221  1.5485 -1.2068
  875TIP3    H224117   0.836   2.659  31.789  0.9679 -3.6219 -0.1321
  876TIP3   OH224118   1.250   0.027   0.488 -0.0651  0.1530  0.1894
  876TIP3    H124119   1.268  -0.060   0.524 -0.7695 -0.4507 -0.8715
  876TIP3    H224120   1.184   0.012   0.421  0.4215  1.3956 -0.6036
  877TIP3   OH224121   1.585   2.320  79.540 -0.1146  0.3968 -0.2443
  877TIP3    H124122   1.674   2.355  79.541  0.2047 -0.4202  0.2190
  877TIP3    H224123   1.534   2.387  79.494  1.0115  0.2122 -1.8446
  878TIP3   OH224124   0.662   2.370  76.144  0.0409  0.7589 -0.2636
  878TIP3    H124125   0.720   2.373  76.220  0.0068 -2.7662  0.0386
  878TIP3    H224126   0.720   2.378  76.068  0.5769  0.1408  0.0770
  879TIP3   OH224127   0.279   1.500  16.954  0.4009 -0.0913  0.5261
  879TIP3    H124128   0.367   1.490  16.992 -0.4630 -1.6198  2.2961
  879TIP3    H224129   0.272   1.593  16.933  2.0448  0.2588  1.3544
  880TIP3   OH224130   1.506   0.574  27.868 -0.1846  0.3815 -0.7074
  880TIP3    H124131   1.555   0.592  27.788 -0.7299  0.4796 -1.0279
  880TIP3    H224132   1.571   0.577  27.938  0.8583 -2.3934 -1.4016
  881TIP3   OH224133   1.757   0.356  31.835  0.0233 -0.0010  0.1261
  881TIP3    H124134   1.723   0.274  31.872  1.1560 -0.7887 -0.5103
  881TIP3    H224135   1.850   0.338  31.819 -0.0249  0.9487 -1.3277
  882TIP3   OH224136   0.852   2.250  16.279  0.0868 -0.0464  0.7135
  882TIP3    H124137   0.914   2.220  16.212 -0.1402  0.8494  0.0843
  882TIP3    H224138   0.890   2.219  16.362  0.0397 -1.7410  0.1426
  883TIP3   OH224139   0.498   0.298  68.214 -0.1084 -0.0318  0.0408
  883TIP3    H124140   0.451   0.216  68.232 -0.2071  0.4366  2.3023
  883TIP3    H224141   0.586   0.282  68.248  0.0479  0.5820 -0.0689
  884TIP3   OH224142   2.087   1.326  19.085 -0.0607 -0.4813 -0.1360
  884TIP3    H124143   2.063   1.393  19.021 -0.9583 -0.0217  0.6547
  884TIP3    H224144   2.010   1.269  19.090 -0.3358 -0.0263  1.1311
  885TIP3   OH224145   0.143   0.264  52.170  0.5808  0.2510 -0.0608
  885TIP3    H124146   0.108   0.246  52.257 -4.1399 -0.9957 -1.9379
  885TIP3    H224147   0.164   0.358  52.172 -0.7249  0.5545  2.0121
  886TIP3   OH224148   0.531   0.527  78.008  0.3566 -0.2598 -0.9281
  886TIP3    H124149   0.445   0.500  77.977  1.5746 -4.3595 -1.3569
  886TIP3    H224150   0.523   0.529  78.103  0.4093 -4.1467 -0.6799
  887TIP3   OH224151   0.677   0.064  36.602  0.3352 -0.3654  0.0191
  887TIP3    H124152   0.604   0.126  36.609  0.7916  0.0475  1.5486
  887TIP3    H224153   0.641  -0.019  36.636  0.1605 -0.5646 -0.6329
  888TIP3   OH224154   2.030   2.293  16.904  0.4392  0.2015  0.1931
  888TIP3    H124155   2.027   2.206  16.865  0.4131  0.6061 -0.7518
  888TIP3    H224156   2.026   2.353  16.829 -1.4235  1.0520  0.8864
  889TIP3   OH224157   1.674   2.338  20.791  0.1921 -0.3606 -0.0697
  889TIP3    H124158   1.717   2.332  20.706  1.7438  1.2447  0.5425
  889TIP3    H224159   1.606   2.405  20.780 -0.1506 -0.7325 -0.2423
  890TIP3   OH224160   0.208   2.514  77.938  0.3341 -0.0861  0.8707
  890TIP3    H124161   0.178   2.447  77.877  1.2780 -1.9557  2.3430
  890TIP3    H224162   0.230   2.589  77.883 -1.1725 -0.8016 -0.7932
  891TIP3   OH224163   2.259   0.746   8.332  0.1405 -0.2679 -0.1158
  891TIP3    H124164   2.239   0.832   8.296 -0.2845 -0.1445  0.3883
  891TIP3    H224165   2.296   0.697   8.259 -0.5251  0.0270 -0.6713
  892TIP3   OH224166   0.652   2.436 109.951  0.3831 -0.5505  0.0103
  892TIP3    H124167   0.716   2.395 109.894  0.1194 -0.2059 -0.5432
  892TIP3    H224168   0.672   2.402 110.039  1.4946 -0.2427 -0.1083
  893TIP3   OH224169   0.932   0.486  37.700  0.2315  0.3639  0.2491
  893TIP3    H124170   0.901   0.424  37.634  1.4640  0.7583 -0.7442
  893TIP3    H224171   1.009   0.443  37.738 -0.4471  0.1577  1.4108
  894TIP3   OH224172   1.943   1.480  25.649  0.2203 -0.0215  0.0318
  894TIP3    H124173   1.963   1.524  25.567 -3.0856 -0.0915 -0.9939
  894TIP3    H224174   1.962   1.545  25.717 -0.0786  1.2679 -1.0701
  895TIP3   OH224175   0.470   0.841  73.664  0.5896  0.0345  0.4659
  895TIP3    H124176   0.555   0.817  73.627  1.7443  0.5289  2.6189
  895TIP3    H224177   0.418   0.761  73.659  1.5739 -0.5993  0.1281
  896TIP3   OH224178   0.219   1.239   4.051 -0.1712 -0.2039 -0.3457
  896TIP3    H124179   0.198   1.181   4.124 -0.2103  0.2798  0.0319
  896TIP3    H224180   0.205   1.186   3.973 -1.7446 -0.2406 -0.0714
  897TIP3   OH224181   2.138   2.062  23.760 -0.1901  0.3656  0.7049
  897TIP3    H124182   2.138   2.003  23.836 -1.3560  0.1104  0.5231
  897TIP3    H224183   2.060   2.115  23.771 -0.7093 -0.0857 -0.6339
  898TIP3   OH224184   0.859   1.638  99.885  0.1471  0.3655 -0.2525
  898TIP3    H124185   0.936   1.585  99.908  1.1181  0.8996 -2.0519
  898TIP3    H224186   0.870   1.655  99.792 -2.0023  0.7693 -0.4671
  899TIP3   OH224187   1.375   1.746  75.094 -0.5673 -0.2102  0.5719
  899TIP3    H124188   1.281   1.749  75.112 -0.0521  0.8116  3.6287
  899TIP3    H224189   1.408   1.831  75.123  1.3370 -0.5697 -0.3842
  900TIP3   OH224190   1.868   2.135  90.109  0.4171 -0.2733 -0.4658
  900TIP3    H124191   1.815   2.148  90.030  0.5256  0.2142 -0.4598
  900TIP3    H224192   1.810   2.160  90.181  0.6652  0.2920 -0.4668
  901TIP3   OH224193   1.787   1.639 102.957  0.1431 -0.4335 -0.1828
  901TIP3    H124194   1.804   1.719 102.907  0.6943  0.5803  1.5327
  901TIP3    H224195   1.752   1.670 103.041 -0.4093 -2.0387  0.2179
  902TIP3   OH224196   1.876   0.472 101.630  0.1868 -0.0623  0.0874
  902TIP3    H124197   1.915   0.421 101.559  1.0813  0.0384  0.4868
  902TIP3    H224198   1.885   0.417 101.707 -2.1230 -0.8026 -0.1057
  903TIP3   OH224199   2.048   2.185  14.488  0.1345 -0.2099 -0.1206
  903TIP3    H124200   2.120   2.125  14.504  0.4104 -0.4015 -1.8498
  903TIP3    H224201   1.975   2.151  14.540  0.2043 -2.2196 -1.2405
  904TIP3   OH224202   1.053   2.585  12.012  0.3066 -0.5617  0.5617
  904TIP3    H124203   1.073   2.676  11.989 -0.9617 -0.2364  0.6545
  904TIP3    H224204   0.988   2.558  11.947 -0.4391 -0.9046  1.4297
  905TIP3   OH224205   0.387   0.118  83.781 -0.4688 -0.0801 -0.3973
  905TIP3    H124206   0.332   0.101  83.857  0.9241  2.0773  1.2276
  905TIP3    H224207   0.454   0.050  83.784 -0.0108  0.3918  0.7876
  906TIP3   OH224208   0.537   1.955  92.596  0.5912 -1.1598 -0.0928
  906TIP3    H124209   0.559   1.952  92.689  0.7671  0.3662 -0.0570
  906TIP3    H224210   0.470   2.024  92.590  1.8131 -0.0252 -1.2960
  907TIP3   OH224211   0.880   1.805   4.357  0.6568  0.0502 -0.3783
  907TIP3    H124212   0.895   1.893   4.392  0.5093  0.0794 -0.3915
  907TIP3    H224213   0.821   1.817   4.283 -1.5559 -0.3275  1.2352
  908TIP3   OH224214   0.824   0.585   0.404 -0.3451 -0.2687 -0.1301
  908TIP3    H124215   0.790   0.606   0.491  1.0325 -0.7677  0.5654
  908TIP3    H224216   0.896   0.647   0.391 -0.0671 -0.6828 -0.6018
  909TIP3   OH224217   1.743   0.974  81.764 -0.3921  0.5308  0.7061
  909TIP3    H124218   1.751   1.024  81.683  0.6534 -1.6816 -0.6450
  909TIP3    H224219   1.817   1.003  81.818  0.0894  0.5614  0.0369
  910TIP3   OH224220   0.461   2.315  29.332 -0.5369 -0.4457  0.2716
  910TIP3    H124221   0.366   2.300  29.327 -0.4999 -1.3588  1.7034
  910TIP3    H224222   0.472   2.407  29.307 -1.6026 -0.7754 -1.5877
  911TIP3   OH224223   0.313   0.586  13.360 -0.1963  0.0964  0.0720
  911TIP3    H124224   0.382   0.522  13.378  0.3565  1.0296  1.4642
  911TIP3    H224225   0.359   0.669  13.354 -1.2270  0.8759  1.8818
  912TIP3   OH224226   0.283   2.362  28.401  0.3134  0.6271  0.0074
  912TIP3    H124227   0.284   2.334  28.310  1.2862  1.8240 -0.3842
  912TIP3    H224228   0.367   2.333  28.436  0.1946  0.6873  0.3448
  913TIP3   OH224229   0.275   0.705 109.860  0.3324 -0.0362 -0.3694
  913TIP3    H124230   0.257   0.782 109.807 -1.0270 -0.4108 -0.4955
  913TIP3    H224231   0.323   0.646 109.801  1.1411  0.5942 -0.3522
  914TIP3   OH224232   1.071   0.210  69.193  0.4272  0.9195  0.0746
  914TIP3    H124233   1.030   0.235  69.276 -0.0419  0.8264 -0.1219
  914TIP3    H224234   1.095   0.292  69.151  1.2459  0.9479  0.5862
  915TIP3   OH224235   1.407   1.743  85.081  0.6276 -0.1760 -0.0190
  915TIP3    H124236   1.358   1.663  85.100  0.6325 -0.3987 -0.9287
  915TIP3    H224237   1.447   1.728  84.996 -0.0076  1.0889 -0.5751
  916TIP3   OH224238   0.256   2.149  20.492  0.5420 -0.3296  0.1784
  916TIP3    H124239   0.278   2.242  20.491  0.1518 -0.2400 -0.0086
  916TIP3    H224240   0.228   2.132  20.582  0.2363 -0.1826  0.1095
  917TIP3   OH224241   1.732   2.203  23.552 -0.3522  0.1463 -0.4371
  917TIP3    H124242   1.654   2.155  23.578  0.2274 -0.6179 -0.1031
  917TIP3    H224243   1.704   2.253  23.475 -1.0605 -0.4283 -0.5607
  918TIP3   OH224244   2.627   2.109  96.549  0.2299  0.2606 -0.2769
  918TIP3    H124245   2.648   2.197  96.517  1.6742  0.3563  0.7996
  918TIP3    H224246   2.706   2.082  96.596 -0.6950 -1.0789  0.5588
  919TIP3   OH224247   1.053   0.541   5.288 -0.4021 -0.0695 -0.0589
  919TIP3    H124248   1.059   0.450   5.316  1.4249 -0.6524 -2.0295
  919TIP3    H224249   1.118   0.587   5.342 -1.4236  0.1359  1.0341
  920TIP3   OH224250   1.160   0.923  74.169  0.2193 -0.1620 -0.6474
  920TIP3    H124251   1.100   0.854  74.196  1.4087 -0.4324  1.5684
  920TIP3    H224252   1.148   0.992  74.235  1.4487  0.2860 -0.8645
  921TIP3   OH224253   1.439   0.204  91.507  0.1474 -0.5765  0.0601
  921TIP3    H124254   1.422   0.157  91.589 -0.9363  0.1566  0.2817
  921TIP3    H224255   1.519   0.254  91.524 -0.3494 -0.0359  0.8614
  922TIP3   OH224256   2.178   2.121  29.965 -0.1147 -0.3700 -0.0410
  922TIP3    H124257   2.116   2.193  29.980 -0.3144 -0.7558  1.0680
  922TIP3    H224258   2.166   2.098  29.873 -2.2308 -0.9795  0.3413
  923TIP3   OH224259   2.684   1.139  48.935  0.1130 -0.1465  0.2991
  923TIP3    H124260   2.690   1.165  48.843  1.2842  0.3969  0.5089
  923TIP3    H224261   2.617   1.071  48.936 -1.9908  1.7854 -0.5043
  924TIP3   OH224262   1.295   0.351  89.283 -0.1842 -0.1656 -0.1747
  924TIP3    H124263   1.223   0.414  89.281  0.7531  0.9249 -1.0900
  924TIP3    H224264   1.321   0.341  89.191  0.9216 -0.4347  0.1550
  925TIP3   OH224265   2.072   0.115  28.748 -0.0084  0.1140  0.2556
  925TIP3    H124266   2.054   0.050  28.816  1.7412 -0.4727  0.2215
  925TIP3    H224267   2.166   0.108  28.733 -0.4317 -0.3594 -2.7965
  926TIP3   OH224268   0.561   1.190  15.211  0.9121 -0.3175 -0.1023
  926TIP3    H124269   0.544   1.096  15.226 -0.4006  0.1042  1.3075
  926TIP3    H224270   0.656   1.196  15.204  1.1717 -1.5404  1.6474
  927TIP3   OH224271   2.515   0.297 103.271 -0.8706  0.2580  0.0118
  927TIP3    H124272   2.515   0.343 103.355  1.9357  0.7695 -0.1741
  927TIP3    H224273   2.536   0.206 103.294 -1.0054  0.2084 -0.0606
  928TIP3   OH224274   2.013   2.305  91.734  0.1089  0.5037  0.3478
  928TIP3    H124275   2.007   2.399  91.713 -0.8123  0.6922  1.3576
  928TIP3    H224276   1.942   2.265  91.684  0.1613  0.4308  0.3335
  929TIP3   OH224277   1.459   1.605 102.029 -0.1902  0.1082  0.0527
  929TIP3    H124278   1.416   1.623 101.946 -1.9256  2.4558  1.3358
  929TIP3    H224279   1.387   1.598 102.092  1.1664  1.6221  1.8879
  930TIP3   OH224280   1.509   0.456 108.083  0.1158  0.1728 -0.0647
  930TIP3    H124281   1.538   0.543 108.110  0.0720  0.5659 -1.2036
  930TIP3    H224282   1.416   0.467 108.064  0.0554 -0.1841  0.0198
  931TIP3   OH224283   1.542   2.452  16.142 -0.4252  0.5186  0.6162
  931TIP3    H124284   1.580   2.402  16.214 -1.5625  0.2237  1.0255
  931TIP3    H224285   1.614   2.461  16.079 -0.1795 -1.6490  0.5082
  932TIP3   OH224286   1.881   1.288  80.004 -0.0668 -0.0287 -0.6715
  932TIP3    H124287   1.894   1.363  80.062  2.8111 -1.7604  1.2016
  932TIP3    H224288   1.906   1.320  79.917  3.3951  0.7629  0.4335
  933TIP3   OH224289   1.474   0.709  29.818  0.1370 -0.2624 -0.0182
  933TIP3    H124290   1.526   0.630  29.832 -1.8673 -1.9140 -1.4490
  933TIP3    H224291   1.386   0.686  29.847 -0.8022  0.9834 -1.7084
  934TIP3   OH224292   2.018   2.282  76.579  0.5800 -0.0170  0.3012
  934TIP3    H124293   2.043   2.238  76.660 -1.4330  1.2222  1.6950
  934TIP3    H224294   2.068   2.364  76.579  1.0254 -0.2858 -0.0247
  935TIP3   OH224295   0.493   1.957  35.055 -0.3131  0.0319 -0.3016
  935TIP3    H124296   0.526   1.917  34.974  0.6582  0.4154 -0.1106
  935TIP3    H224297   0.561   2.019  35.080 -0.6476 -0.0153  0.7638
  936TIP3   OH224298   0.346   1.371  21.751  0.2371 -0.2612  0.4188
  936TIP3    H124299   0.312   1.349  21.838 -1.8123  1.3054  0.0995
  936TIP3    H224300   0.331   1.465  21.743 -1.7597 -0.7155 -2.4583
  937TIP3   OH224301   0.537   0.918  87.050  0.0095  0.0122 -0.3110
  937TIP3    H124302   0.477   0.859  87.096 -0.3684  1.6817  1.4549
  937TIP3    H224303   0.618   0.867  87.040 -0.4821 -0.9999  0.6333
  938TIP3   OH224304   0.637   1.333  30.350  0.3948 -0.0122 -0.6318
  938TIP3    H124305   0.722   1.330  30.305  0.9110 -0.4211  0.3470
  938TIP3    H224306   0.641   1.262  30.414 -0.2687  0.6537  0.1700
  939TIP3   OH224307   1.884   2.466  98.485  0.1169 -0.3674 -0.1607
  939TIP3    H124308   1.862   2.496  98.397  0.5362 -0.4396 -0.2936
  939TIP3    H224309   1.816   2.403  98.507 -0.4212  0.2178 -0.1263
  940TIP3   OH224310   1.688   1.250  35.121  0.2745  0.4515 -0.5866
  940TIP3    H124311   1.771   1.206  35.103 -0.2357 -0.6381 -0.3752
  940TIP3    H224312   1.622   1.192  35.084 -0.6216 -0.4536  2.1921
  941TIP3   OH224313   1.610   0.065 102.595 -0.1111 -0.1880 -0.3448
  941TIP3    H124314   1.552   0.139 102.580  0.5309  0.0819 -1.5755
  941TIP3    H224315   1.552  -0.004 102.628 -0.9467  0.4042 -0.5470
  942TIP3   OH224316   1.813   1.380 111.333  0.3821  0.2441  0.1307
  942TIP3    H124317   1.757   1.332 111.394  1.2750  0.4469  1.1436
  942TIP3    H224318   1.883   1.319 111.311  2.0159  1.2488  2.1138
  943TIP3   OH224319   2.681   1.142  29.788  0.1076 -0.1418 -0.1156
  943TIP3    H124320   2.680   1.124  29.694  0.1655 -2.9699  0.3554
  943TIP3    H224321   2.773   1.161  29.807  0.2393 -0.3773 -0.4904
  944TIP3   OH224322   0.549   1.497  38.125  0.2737 -0.1518  0.0373
  944TIP3    H124323   0.643   1.483  38.132  0.1926 -0.0848  1.4117
  944TIP3    H224324   0.510   1.434  38.186 -0.4890  0.8582  0.6182
  945TIP3   OH224325   1.416   1.430 101.366  0.0854  0.0828  0.0560
  945TIP3    H124326   1.328   1.468 101.369 -0.3304 -0.9390  2.0641
  945TIP3    H224327   1.463   1.473 101.437  0.6297 -0.7690  0.2184
  946TIP3   OH224328   1.946   1.348  99.876 -0.0002  0.3175 -0.1423
  946TIP3    H124329   1.869   1.297  99.849  0.1424  0.6549 -1.2301
  946TIP3    H224330   2.020   1.297  99.844  0.2829 -0.2766  1.3614
  947TIP3   OH224331   1.656   1.540 110.729  0.7815  0.1900 -0.0043
  947TIP3    H124332   1.586   1.555 110.666  0.4513 -1.4185 -0.0697
  947TIP3    H224333   1.728   1.504 110.676  0.6764 -0.7134  0.4557
  948TIP3   OH224334   2.532   2.604  92.964  0.1225 -0.2896 -0.3202
  948TIP3    H124335   2.482   2.582  93.042  0.8259  0.5268  0.3879
  948TIP3    H224336   2.614   2.555  92.973  0.4293  0.2212 -0.2631
  949TIP3   OH224337   2.675   2.247  76.329 -1.0648  0.1313  0.1296
  949TIP3    H124338   2.581   2.261  76.340 -0.8592 -0.0053  2.9422
  949TIP3    H224339   2.682   2.182  76.259 -3.1348 -0.6615  0.5932
  950TIP3   OH224340   0.696   1.438 100.197 -0.0628  0.4193 -0.3033
  950TIP3    H124341   0.675   1.505 100.132  1.1947  0.7439 -0.3948
  950TIP3    H224342   0.750   1.483 100.262  1.5882 -0.6904 -0.8398
  951TIP3   OH224343   1.240   0.089 100.634  0.3707  0.1767  0.5744
  951TIP3    H124344   1.234   0.184 100.627 -0.5651  0.1001  0.1330
  951TIP3    H224345   1.194   0.068 100.715  0.6573  0.0970  0.7145
  952TIP3   OH224346   0.306   1.686  78.980 -0.4124 -0.5418  0.6036
  952TIP3    H124347   0.382   1.733  79.014 -0.2321  0.2990 -0.9013
  952TIP3    H224348   0.311   1.599  79.021  1.1294 -0.3701  0.8214
  953TIP3   OH224349   0.793   0.660  14.813 -0.1208  0.1952  0.1285
  953TIP3    H124350   0.798   0.737  14.757 -0.5870 -0.1781 -0.4382
  953TIP3    H224351   0.781   0.586  14.752 -1.4752 -0.1337  0.7394
  954TIP3   OH224352   2.262   1.623  16.652 -0.2934  0.7156  0.1709
  954TIP3    H124353   2.323   1.622  16.579 -1.7807 -0.2933 -1.1171
  954TIP3    H224354   2.261   1.532  16.684 -1.8709  0.4724 -0.5078
  955TIP3   OH224355   2.250   2.433  33.839  0.6299  0.2035 -0.2872
  955TIP3    H124356   2.295   2.453  33.921 -1.1026  0.4608  0.6430
  955TIP3    H224357   2.205   2.350  33.856  1.0653 -0.2590 -1.3282
  956TIP3   OH224358   0.655   1.968  83.427 -0.1814 -0.1210  0.0880
  956TIP3    H124359   0.580   1.919  83.392 -0.3900 -0.0725  0.4682
  956TIP3    H224360   0.730   1.911  83.409 -0.5326 -1.0410  1.3844
  957TIP3   OH224361   1.118   1.327  20.648  0.0421 -0.2076  0.0715
  957TIP3    H124362   1.179   1.388  20.690 -1.5091  1.0241  0.6251
  957TIP3    H224363   1.089   1.269  20.719 -0.3896  0.0252  0.0887
  958TIP3   OH224364   2.149   2.497   8.196 -0.4589 -0.4171 -0.4786
  958TIP3    H124365   2.140   2.406   8.226  0.3957 -0.6542 -0.9017
  958TIP3    H224366   2.221   2.532   8.247  0.1905 -0.4438 -1.3491
  959TIP3   OH224367   0.239   1.783   5.889 -0.0451  0.6964 -0.0472
  959TIP3    H124368   0.331   1.794   5.866  0.0373 -0.2325 -0.1690
  959TIP3    H224369   0.200   1.740   5.814 -0.8304  2.0551 -0.4531
  960TIP3   OH224370   1.768   2.448 106.182  0.1595 -0.0102 -0.1096
  960TIP3    H124371   1.746   2.424 106.092 -0.0272  3.3359 -1.0915
  960TIP3    H224372   1.853   2.407 106.197 -0.5332 -1.9626 -1.1901
  961TIP3   OH224373   0.960   1.997   1.345 -0.1074 -0.3546 -0.1050
  961TIP3    H124374   0.980   1.979   1.254 -0.2940 -0.2236 -0.1719
  961TIP3    H224375   0.954   2.093   1.350  0.9414 -0.2992  0.2593
  962TIP3   OH224376   2.147   2.611  11.502 -0.2496 -0.1981  0.7264
  962TIP3    H124377   2.140   2.706  11.494 -0.0494 -0.0893  1.7032
  962TIP3    H224378   2.197   2.598  11.582  1.1619 -1.1161 -0.2683
  963TIP3   OH224379   1.776   2.525  83.650  0.5711  0.1715 -0.0802
  963TIP3    H124380   1.870   2.542  83.640  0.7785 -1.5295 -1.6603
  963TIP3    H224381   1.766   2.500  83.741  1.3823  1.7325  0.4660
  964TIP3   OH224382   0.498   1.006  95.199 -0.0790  0.4222  0.3366
  964TIP3    H124383   0.519   1.038  95.112 -1.1863 -2.0088 -0.9097
  964TIP3    H224384   0.461   1.082  95.244  0.6727  1.7623 -1.2242
  965TIP3   OH224385   1.536   2.565  20.742  0.1379  0.1962  0.2251
  965TIP3    H124386   1.596   2.588  20.671 -0.5823  0.4049 -0.3283
  965TIP3    H224387   1.519   2.648  20.786  0.6828  0.0465  0.7331
  966TIP3   OH224388   2.661   2.024  63.675 -0.2029  0.2726  0.0620
  966TIP3    H124389   2.740   2.022  63.621  0.0507  0.2237  0.4316
  966TIP3    H224390   2.589   2.004  63.614 -0.0473  1.3406 -0.4869
  967TIP3   OH224391   0.718   0.900  24.770 -0.4231 -0.0014  0.2436
  967TIP3    H124392   0.687   0.891  24.680 -1.4012  1.1035  0.4549
  967TIP3    H224393   0.813   0.901  24.762 -0.5048  0.5180 -0.8195
  968TIP3   OH224394   2.408   0.732   3.017 -0.1962 -0.1313 -0.2989
  968TIP3    H124395   2.313   0.731   3.013 -0.2746 -0.0876  1.0161
  968TIP3    H224396   2.429   0.685   3.098  0.8788  0.0774 -0.4427
  969TIP3   OH224397   0.991   0.415  13.091  0.1624  0.0076  0.4461
  969TIP3    H124398   0.997   0.372  13.006 -0.0707 -0.5856  0.7281
  969TIP3    H224399   1.027   0.503  13.076  1.0905 -0.4485 -0.0098
  970TIP3   OH224400   1.577   0.432  78.799 -0.2942  0.0398 -0.3516
  970TIP3    H124401   1.645   0.491  78.832 -2.4612  2.6941 -0.2572
  970TIP3    H224402   1.622   0.349  78.786  2.6672  1.3043  0.8213
  971TIP3   OH224403   0.142   1.514 101.649  0.2269  0.1857  0.2807
  971TIP3    H124404   0.188   1.527 101.733  0.8071  2.8065 -0.3282
  971TIP3    H224405   0.210   1.483 101.589  0.3330  0.4642  0.2581
  972TIP3   OH224406   0.367   2.284  32.602 -0.5902  0.4211 -0.3360
  972TIP3    H124407   0.419   2.352  32.558  2.8164 -1.2707  0.6967
  972TIP3    H224408   0.322   2.330  32.673  0.3705  1.8562 -0.6117
  973TIP3   OH224409   0.721   1.255 100.468  0.3356  0.3921 -0.3511
  973TIP3    H124410   0.752   1.343 100.448  0.0561  0.6934  0.5153
  973TIP3    H224411   0.782   1.222 100.534  0.4896 -0.1058 -0.7323
  974TIP3   OH224412   1.903   0.449 109.342 -0.0131 -0.0207  0.2886
  974TIP3    H124413   1.852   0.458 109.422 -0.0931  2.0574  0.0446
  974TIP3    H224414   1.840   0.459 109.271  0.6061  2.2654 -0.0162
  975TIP3   OH224415   2.112   0.757   2.999  0.5829 -0.2545  0.0259
  975TIP3    H124416   2.056   0.801   2.935  2.1459  0.7023 -0.7407
  975TIP3    H224417   2.098   0.805   3.081  0.1871 -0.0999 -0.1324
  976TIP3   OH224418   0.352   2.588   0.066  0.3099  0.0121  0.2154
  976TIP3    H124419   0.410   2.622  -0.002  1.0499 -0.5485  0.5630
  976TIP3    H224420   0.371   2.494   0.069  0.7248  0.1220  1.6173
  977TIP3   OH224421   0.678   2.407  12.317 -0.1494 -0.6465 -0.2448
  977TIP3    H124422   0.613   2.404  12.247  0.0584  2.4828 -0.7090
  977TIP3    H224423   0.761   2.424  12.272  0.6559 -2.2309  0.5343
  978TIP3   OH224424   2.276   0.070  76.532 -0.0297 -0.1471  0.1815
  978TIP3    H124425   2.268   0.104  76.621 -0.7983  0.0664  0.0423
  978TIP3    H224426   2.284   0.148  76.477 -3.5698  0.0274 -0.3198
  979TIP3   OH224427   1.512   2.129  82.469 -0.3589 -0.0767  0.4165
  979TIP3    H124428   1.423   2.159  82.487 -0.4455  0.4132 -0.7526
  979TIP3    H224429   1.513   2.112  82.375  1.0215  0.7118  0.2678
  980TIP3   OH224430   0.378   1.814   7.901 -0.2081  0.6356 -0.0117
  980TIP3    H124431   0.325   1.805   7.822  0.2923 -0.7294 -0.2225
  980TIP3    H224432   0.313   1.828   7.971 -0.6287  2.2760 -0.6781
  981TIP3   OH224433   0.225   0.852  14.989 -0.4509 -0.0993 -0.5659
  981TIP3    H124434   0.153   0.915  14.985 -0.6023 -0.2118  0.1636
  981TIP3    H224435   0.183   0.766  14.980 -0.3671 -0.1432 -0.5440
  982TIP3   OH224436   0.142   1.725  97.823 -0.1138  0.4642 -0.6664
  982TIP3    H124437   0.113   1.803  97.869 -1.2664 -0.2595 -0.1196
  982TIP3    H224438   0.072   1.661  97.837 -0.4558  0.1371 -3.2501
  983TIP3   OH224439   1.259   0.297  58.418 -0.3494  0.0086  0.3274
  983TIP3    H124440   1.247   0.324  58.327 -1.1530  0.2980  0.5168
  983TIP3    H224441   1.339   0.243  58.416 -1.0448 -1.0367 -0.7565
  984TIP3   OH224442   2.210   1.283 103.063  0.2391  0.0060 -0.0497
  984TIP3    H124443   2.146   1.352 103.044  2.1233  1.2230 -2.6464
  984TIP3    H224444   2.276   1.327 103.118  0.5499 -0.2294 -0.2295
  985TIP3   OH224445   1.397   1.066 106.878 -0.0519  0.2220  0.1912
  985TIP3    H124446   1.327   1.059 106.813  0.6382  0.8903 -0.6418
  985TIP3    H224447   1.421   0.976 106.898 -1.3007 -0.0243  0.6623
  986TIP3   OH224448   0.943   0.119 104.152 -0.2142  0.3872  0.0228
  986TIP3    H124449   0.884   0.162 104.215 -1.1964 -0.0892 -0.5492
  986TIP3    H224450   1.017   0.089 104.205  0.7503  3.1319  0.4051
  987TIP3   OH224451   1.713   0.525 103.507 -0.1729  0.3580 -0.1481
  987TIP3    H124452   1.700   0.431 103.490  2.7308 -0.0535 -0.5127
  987TIP3    H224453   1.733   0.529 103.600  2.2524  0.1865 -0.5802
  988TIP3   OH224454   2.065   0.834  33.875  0.1924  0.0996  0.4590
  988TIP3    H124455   2.081   0.785  33.956 -1.9799 -0.9428  0.3255
  988TIP3    H224456   1.984   0.797  33.841 -0.1527  2.0989 -1.0169
  989TIP3   OH224457   1.311   0.063  17.245 -0.5635  0.1984 -0.1299
  989TIP3    H124458   1.390   0.117  17.239 -0.9874  1.0072  1.0355
  989TIP3    H224459   1.331  -0.001  17.312 -1.3688  1.3527  1.2940
  990TIP3   OH224460   1.020   0.741  24.022 -0.2514 -0.0254  0.1640
  990TIP3    H124461   0.925   0.744  24.009 -0.4100 -0.7637  1.0205
  990TIP3    H224462   1.037   0.808  24.088 -0.0530  0.6983 -0.6136
  991TIP3   OH224463   0.364   0.581  73.666  0.0199 -0.1494 -0.4078
  991TIP3    H124464   0.400   0.492  73.664 -2.1401 -1.1353  0.7335
  991TIP3    H224465   0.272   0.570  73.644 -0.3746  1.7760  0.1079
  992TIP3   OH224466   0.144   1.222  23.837  0.2156  0.2831  1.0625
  992TIP3    H124467   0.221   1.280  23.840 -0.2694  1.0301 -0.1107
  992TIP3    H224468   0.110   1.233  23.749 -1.4323  0.2026  1.6656
  993TIP3   OH224469   0.074   0.219  11.169  0.1178 -0.1524  0.0746
  993TIP3    H124470  -0.019   0.238  11.169  0.1175 -0.0842  1.1592
  993TIP3    H224471   0.080   0.126  11.147 -0.2418 -0.2615  0.4209
  994TIP3   OH224472   2.147   2.081  25.429  0.0349  0.6165  0.5604
  994TIP3    H124473   2.084   2.052  25.496 -0.0784  2.5326  1.3230
  994TIP3    H224474   2.163   2.002  25.377 -1.3392 -0.4592  1.6701
  995TIP3   OH224475   1.403   0.545  27.409  0.3487  0.0960  0.1020
  995TIP3    H124476   1.459   0.622  27.403  0.3736  0.2901  2.1204
  995TIP3    H224477   1.319   0.573  27.371  0.8949  0.5068 -0.8470
  996TIP3   OH224478   1.670   0.335 104.151  0.1387  0.0823 -0.0538
  996TIP3    H124479   1.722   0.410 104.120 -0.3682 -0.0167 -1.1912
  996TIP3    H224480   1.623   0.369 104.227  0.8892  0.5415  0.2133
  997TIP3   OH224481   1.484   2.376  21.312 -0.6366  0.5745  0.0625
  997TIP3    H124482   1.530   2.304  21.354 -0.4808 -0.0319 -1.0889
  997TIP3    H224483   1.539   2.453  21.328 -0.0741  0.1690  0.1094
  998TIP3   OH224484   1.586   2.256  97.204 -0.0216 -0.1054 -0.1814
  998TIP3    H124485   1.576   2.218  97.116 -0.2622  0.9325 -0.6131
  998TIP3    H224486   1.598   2.180  97.261 -0.6331 -0.8482 -1.0001
  999TIP3   OH224487   2.163   1.635  89.450  0.1303 -0.3661 -0.0716
  999TIP3    H124488   2.253   1.604  89.443  0.3816  0.6223 -1.8794
  999TIP3    H224489   2.170   1.730  89.443 -1.1239 -0.3341 -1.5549
 1000TIP3   OH224490   2.160   1.096   1.034 -0.2201 -0.1478  0.6564
 1000TIP3    H124491   2.249   1.060   1.041 -0.4750 -0.8300  0.5231
 1000TIP3    H224492   2.136   1.119   1.124 -0.6771 -1.9147  1.0446
 1001TIP3   OH224493   2.276   1.608  96.291  0.1963 -0.0628  0.2476
 1001TIP3    H124494   2.230   1.558  96.224 -0.7133  1.2156 -0.1325
 1001TIP3    H224495   2.361   1.566  96.299 -0.7490 -2.0295  0.4092
 1002TIP3   OH224496   1.621   0.315   4.466 -0.2765 -0.0678 -0.0854
 1002TIP3    H124497   1.713   0.323   4.490  0.7070 -2.7162 -2.3489
 1002TIP3    H224498   1.598   0.400   4.430  1.7227  0.2857 -0.6688
 1003TIP3   OH224499   0.594   2.118  12.158  0.2859  0.2374  0.3471
 1003TIP3    H124500   0.499   2.107  12.154  0.1425  1.1385  1.1136
 1003TIP3    H224501   0.612   2.196  12.107  0.6729 -0.1631 -0.1457
 1004TIP3   OH224502   2.452   2.090  77.786 -0.2271  0.0493  0.3969
 1004TIP3    H124503   2.530   2.034  77.782  0.4386  1.0136 -1.6391
 1004TIP3    H224504   2.444   2.127  77.698 -1.6528  1.7982  1.1812
 1005TIP3   OH224505   1.461   0.604  34.420  0.1909  0.1595  0.4683
 1005TIP3    H124506   1.538   0.658  34.404  1.1092 -1.4557 -0.9265
 1005TIP3    H224507   1.388   0.665  34.417  1.1372  1.2966 -1.4784
 1006TIP3   OH224508   1.484   1.549   8.215 -0.5846  0.2094  0.4469
 1006TIP3    H124509   1.464   1.633   8.255  1.7059  0.4040  1.2819
 1006TIP3    H224510   1.552   1.568   8.150 -1.4270 -0.7267 -0.7668
 1007TIP3   OH224511   0.994   0.684  15.385 -0.1559 -0.0602  0.3408
 1007TIP3    H124512   0.910   0.712  15.421  0.4688  1.0618  0.9658
 1007TIP3    H224513   1.036   0.764  15.355  1.7825 -0.2261  2.3882
 1008TIP3   OH224514   0.240   1.707  37.361 -0.3556  0.2888 -0.1023
 1008TIP3    H124515   0.330   1.739  37.363  0.1941 -1.2007 -0.1449
 1008TIP3    H224516   0.216   1.698  37.453  0.2084 -1.0895 -0.0761
 1009TIP3   OH224517   1.775   0.572  92.998  0.0543 -0.4201 -0.6586
 1009TIP3    H124518   1.754   0.619  93.079 -0.3843 -1.3923 -0.1924
 1009TIP3    H224519   1.864   0.540  93.011  0.1936 -0.0984 -0.7972
 1010TIP3   OH224520   2.077   2.633  84.782 -0.1957 -0.3447 -0.2033
 1010TIP3    H124521   2.084   2.586  84.865  2.0777  0.1866 -0.0410
 1010TIP3    H224522   2.102   2.568  84.716  4.5002  0.8045  0.1376
 1011TIP3   OH224523   1.774   0.110   8.385  0.1277  0.4979  0.7564
 1011TIP3    H124524   1.794   0.121   8.478 -1.7030 -2.3201  1.5924
 1011TIP3    H224525   1.790   0.017   8.367  2.7854  1.3703 -2.4471
 1012TIP3   OH224526   2.678   0.891  84.764 -0.1176  0.1305 -0.2839
 1012TIP3    H124527   2.719   0.824  84.710  1.7115  2.8271 -2.5061
 1012TIP3    H224528   2.598   0.914  84.718 -0.1534  0.2705 -0.1526
 1013TIP3   OH224529   1.455   2.415  15.551  0.6804 -0.4387  0.1508
 1013TIP3    H124530   1.525   2.471  15.517  0.5508  0.1189  0.7881
 1013TIP3    H224531   1.374   2.460  15.527  0.5891 -0.0271  1.2195
 1014TIP3   OH224532   0.010   0.366  78.193 -0.6535  0.1277  0.1808
 1014TIP3    H124533  -0.083   0.348  78.208 -0.8132  0.2161 -0.6421
 1014TIP3    H224534   0.011   0.452  78.151 -0.1612  0.3290  0.5934
 1015TIP3   OH224535   2.223   0.315 100.266  0.1720 -0.2673 -0.0840
 1015TIP3    H124536   2.290   0.380 100.283  0.6728 -0.6963 -0.3870
 1015TIP3    H224537   2.143   0.353 100.302  0.3165  0.8067 -0.8592
 1016TIP3   OH224538   1.845   0.204  74.650 -0.1747  0.1878  0.5310
 1016TIP3    H124539   1.754   0.227  74.666 -0.2530  0.4410 -0.2356
 1016TIP3    H224540   1.841   0.128  74.592 -0.0076  3.0238 -3.6912
 1017TIP3   OH224541   2.036   1.215  91.191 -0.5434  0.5023  0.2112
 1017TIP3    H124542   2.020   1.234  91.099  0.7300  0.0878 -0.1136
 1017TIP3    H224543   1.950   1.225  91.233 -0.9219  1.8840 -0.7975
 1018TIP3   OH224544   2.035   0.000  85.980  0.0325 -0.5501  0.2309
 1018TIP3    H124545   2.100   0.042  86.036  0.7284 -0.4518 -0.6305
 1018TIP3    H224546   1.951   0.022  86.020  0.3639  1.7746 -0.2242
 1019TIP3   OH224547   0.061   1.851  75.919  0.1511  0.0836 -0.9363
 1019TIP3    H124548   0.075   1.940  75.951  0.7963 -0.3863  0.1697
 1019TIP3    H224549   0.105   1.796  75.984 -2.0401 -1.1764 -0.4132
 1020TIP3   OH224550   2.031   1.043 111.948  0.5365  0.0594 -0.5683
 1020TIP3    H124551   2.060   1.085 112.028  0.5541  0.3803 -0.7380
 1020TIP3    H224552   2.109   1.041 111.892  0.9593 -1.6357  0.0288
 1021TIP3   OH224553   0.436   0.587  17.343 -0.3480  0.0171 -0.3414
 1021TIP3    H124554   0.484   0.508  17.317 -0.2676 -0.1870  0.3883
 1021TIP3    H224555   0.346   0.557  17.357 -0.6033  0.3089 -1.2594
 1022TIP3   OH224556   1.617   2.032  15.715  0.1158  0.4959  0.1120
 1022TIP3    H124557   1.655   2.001  15.796 -0.8716 -0.1350  0.3493
 1022TIP3    H224558   1.591   1.953  15.668 -0.3903  0.8885 -0.2842
 1023TIP3   OH224559   1.740   2.620  74.122  0.6744  0.1236  0.0578
 1023TIP3    H124560   1.652   2.643  74.151  0.7958  0.3536  0.2400
 1023TIP3    H224561   1.794   2.696  74.145  0.8927  0.0442 -0.1881
 1024TIP3   OH224562   0.208   1.438  12.536  0.3523  0.3807 -0.0049
 1024TIP3    H124563   0.227   1.481  12.453 -0.4383 -0.1005 -0.4408
 1024TIP3    H224564   0.279   1.467  12.594  0.4181  1.4297 -0.5772
 1025TIP3   OH224565   0.189   1.176  99.306  0.0492 -0.1382  0.0428
 1025TIP3    H124566   0.186   1.237  99.233  0.1802 -0.1305  0.0432
 1025TIP3    H224567   0.282   1.157  99.319 -0.0065 -0.5495 -0.1352
 1026TIP3   OH224568   1.106   0.537  24.181  0.3386  0.1980  0.0578
 1026TIP3    H124569   1.107   0.452  24.137  0.3242  0.2521 -0.0482
 1026TIP3    H224570   1.100   0.601  24.109  0.9178  0.3139  0.1075
 1027TIP3   OH224571   0.266   1.161  84.871 -0.6140 -0.4117 -0.3319
 1027TIP3    H124572   0.204   1.187  84.940 -2.0330 -0.4418 -1.5396
 1027TIP3    H224573   0.235   1.207  84.793  1.3081  0.0754 -0.8441
 1028TIP3   OH224574   2.275   1.530 100.796  0.1179 -0.3179 -0.3404
 1028TIP3    H124575   2.331   1.465 100.838 -0.9920 -0.3477  1.1921
 1028TIP3    H224576   2.189   1.487 100.791 -0.2449  0.4379 -0.8073
 1029TIP3   OH224577   2.634   1.549 102.975  0.3605 -0.2847  0.2352
 1029TIP3    H124578   2.670   1.487 102.912  0.7910  0.5489 -0.3511
 1029TIP3    H224579   2.597   1.619 102.922 -0.3998 -0.1696  0.8841
 1030TIP3   OH224580   1.924   0.587   9.523 -0.2087  0.4848 -0.0595
 1030TIP3    H124581   2.004   0.636   9.503  0.1704 -0.1245 -0.0529
 1030TIP3    H224582   1.906   0.606   9.615 -0.5854  1.3445 -0.3020
 1031TIP3   OH224583   0.996   1.320   9.608 -0.0395 -0.1546 -0.0577
 1031TIP3    H124584   0.995   1.344   9.516  2.1674 -2.9124 -0.9660
 1031TIP3    H224585   0.946   1.238   9.612  2.7469 -1.9620  0.4126
 1032TIP3   OH224586   1.605   0.838  63.003  0.1209 -0.1611 -0.2998
 1032TIP3    H124587   1.659   0.763  63.024 -0.7496 -0.5260  0.7390
 1032TIP3    H224588   1.551   0.809  62.929  1.4208  0.2593 -1.4394
 1033TIP3   OH224589   0.723   1.404  12.779 -0.1842  0.1441 -0.2607
 1033TIP3    H124590   0.647   1.400  12.720 -0.9490  0.6225  0.6530
 1033TIP3    H224591   0.696   1.352  12.855  0.0872  0.9698  0.4110
 1034TIP3   OH224592   2.574   2.193 100.829  0.3905 -0.1394 -0.2206
 1034TIP3    H124593   2.524   2.155 100.901 -0.1149  0.5869 -0.1782
 1034TIP3    H224594   2.639   2.248 100.872  0.7589 -0.5110 -0.2979
 1035TIP3   OH224595   1.606   1.488  78.280  0.5758  0.1706  0.0917
 1035TIP3    H124596   1.650   1.495  78.195  1.2218 -0.7556  0.3284
 1035TIP3    H224597   1.677   1.473  78.342  0.0645  0.3748  0.7352
 1036TIP3   OH224598   0.636   0.460  64.300  0.2746 -0.8540  0.3123
 1036TIP3    H124599   0.589   0.543  64.288  0.9210 -0.6605 -1.0576
 1036TIP3    H224600   0.575   0.393  64.269  0.9585 -0.5744 -1.7924
 1037TIP3   OH224601   0.381   2.295  28.145  0.3463 -0.2728  0.0493
 1037TIP3    H124602   0.458   2.238  28.141  0.6386  0.1190 -0.0174
 1037TIP3    H224603   0.389   2.350  28.067 -0.5963 -0.9679 -0.5625
 1038TIP3   OH224604   2.213   1.086 100.594  0.1602  0.3987 -0.0364
 1038TIP3    H124605   2.214   0.990 100.587  0.3823  0.3834  0.1580
 1038TIP3    H224606   2.165   1.104 100.675  1.1418  0.3931  0.5753
 1039TIP3   OH224607   1.845   0.812  97.685 -0.7436 -0.1222  0.8377
 1039TIP3    H124608   1.766   0.805  97.631 -0.3791  0.2409  0.2462
 1039TIP3    H224609   1.826   0.883  97.746 -0.1726  1.3384 -0.5784
 1040TIP3   OH224610   0.060   0.312  48.292  0.2328  0.9463  0.5306
 1040TIP3    H124611   0.044   0.286  48.202  0.1740  1.4741  0.3855
 1040TIP3    H224612   0.127   0.251  48.324  0.5047  0.9757  0.0196
 1041TIP3   OH224613   1.015   1.579  87.073 -0.0572 -0.5796 -0.1184
 1041TIP3    H124614   1.002   1.660  87.024 -1.7358 -1.8017 -1.8679
 1041TIP3    H224615   0.947   1.581  87.141  1.3007  0.4120  1.2888
 1042TIP3   OH224616   2.651   1.346  15.867 -0.4142 -0.0874  0.0424
 1042TIP3    H124617   2.735   1.392  15.873 -1.2349  1.3368  1.1047
 1042TIP3    H224618   2.646   1.319  15.775  1.2495 -0.3137 -0.0154
 1043TIP3   OH224619   1.258   1.790  75.432 -0.3667  0.2199  0.0134
 1043TIP3    H124620   1.331   1.740  75.469 -0.9367  0.3342  1.3496
 1043TIP3    H224621   1.183   1.767  75.487 -0.8654  1.7709  0.0245
 1044TIP3   OH224622   0.977   0.960 108.566 -0.3469  0.0225 -0.3672
 1044TIP3    H124623   1.061   1.006 108.570 -1.0902  1.4915 -0.8392
 1044TIP3    H224624   0.995   0.874 108.602  2.0406 -0.7654 -3.0456
 1045TIP3   OH224625   1.017   1.189  20.881  0.1124 -0.7615  0.1805
 1045TIP3    H124626   0.942   1.152  20.833 -0.2842 -0.3670  0.4875
 1045TIP3    H224627   1.039   1.121  20.945 -1.4813  0.0493  1.6535
 1046TIP3   OH224628   0.076   1.822   3.434 -0.2946 -0.1666  0.4092
 1046TIP3    H124629   0.056   1.768   3.358 -1.0897 -0.1954  0.6254
 1046TIP3    H224630   0.171   1.818   3.442 -0.3409 -1.6546  0.5113
 1047TIP3   OH224631   0.236   1.974  12.663  0.2010 -0.0210  0.2762
 1047TIP3    H124632   0.294   2.037  12.621  0.4841  1.0145  2.1111
 1047TIP3    H224633   0.191   2.024  12.730  0.3115 -1.7091  1.6914
 1048TIP3   OH224634   1.599   0.769  18.935  0.0938  0.1404 -0.6229
 1048TIP3    H124635   1.605   0.707  19.007 -1.7934 -0.2583 -0.7852
 1048TIP3    H224636   1.606   0.716  18.856 -0.0678  0.3111 -0.7544
 1049TIP3   OH224637   0.663   2.230   7.856  0.3506 -0.6084  0.1011
 1049TIP3    H124638   0.746   2.253   7.814  0.2842  0.0459  0.3142
 1049TIP3    H224639   0.688   2.182   7.935  0.6211  1.2980  1.2315
 1050TIP3   OH224640   0.876   1.502 100.386 -0.0602  0.0084 -0.1939
 1050TIP3    H124641   0.901   1.526 100.475 -0.8380  2.4394 -0.5502
 1050TIP3    H224642   0.950   1.530 100.332  0.2169 -1.0435 -0.3746
 1051TIP3   OH224643   1.571   2.455  22.403  0.4870  0.4816  0.3156
 1051TIP3    H124644   1.631   2.398  22.356 -2.3381 -1.6054 -1.1024
 1051TIP3    H224645   1.522   2.500  22.333 -0.3853  1.2159  1.3635
 1052TIP3   OH224646   0.705   1.065  93.202 -0.0083 -0.4401  0.8503
 1052TIP3    H124647   0.755   1.035  93.278  1.5634  1.5574  0.6999
 1052TIP3    H224648   0.691   1.158  93.217 -0.2148 -0.1174 -1.0038
 1053TIP3   OH224649   1.565   0.364  15.369 -0.7726  0.1822 -0.0517
 1053TIP3    H124650   1.553   0.279  15.412  1.2570  1.4168  3.3685
 1053TIP3    H224651   1.613   0.417  15.433  1.3715  2.7523 -3.3923
 1054TIP3   OH224652   0.448   0.981 104.374  0.7503  0.0588  0.3972
 1054TIP3    H124653   0.474   0.890 104.384 -1.1171 -0.4310  1.1818
 1054TIP3    H224654   0.444   1.015 104.464  0.8240  0.7425  0.1510
 1055TIP3   OH224655   1.348   0.261  75.626  0.0970 -0.1859 -0.4014
 1055TIP3    H124656   1.318   0.265  75.535  1.7808  1.1182 -0.9519
 1055TIP3    H224657   1.287   0.318  75.674  1.5575  2.4921 -1.5091
 1056TIP3   OH224658   0.034   1.156 108.498  0.0836 -0.5034  0.3010
 1056TIP3    H124659   0.024   1.231 108.556 -0.7002 -0.1457 -0.2787
 1056TIP3    H224660   0.076   1.191 108.419  0.1096 -0.7544  0.2016
 1057TIP3   OH224661   0.201   1.412 106.833  0.1400  0.2555  0.2693
 1057TIP3    H124662   0.229   1.451 106.916 -1.7883 -0.6580  1.4359
 1057TIP3    H224663   0.228   1.320 106.839 -0.2737  0.1136  0.0337
 1058TIP3   OH224664   0.176   0.179  95.904 -0.0609  0.8078  0.7604
 1058TIP3    H124665   0.115   0.114  95.938 -0.6725  1.5803  1.1636
 1058TIP3    H224666   0.125   0.230  95.841  0.8780 -0.1729 -0.8707
 1059TIP3   OH224667   2.197   1.668  22.714 -0.5282  0.1618 -0.2037
 1059TIP3    H124668   2.202   1.574  22.699  1.0360  0.4145 -1.6046
 1059TIP3    H224669   2.256   1.684  22.788  1.3350  0.2853 -1.6220
 1060TIP3   OH224670   1.821   1.033   6.317  0.1174  0.1911 -0.4429
 1060TIP3    H124671   1.770   1.061   6.393  1.5869  0.7013  0.3865
 1060TIP3    H224672   1.756   1.025   6.247 -1.1898  0.2069  0.7218
 1061TIP3   OH224673   2.336   0.830  10.099 -0.0529  0.0838 -0.5877
 1061TIP3    H124674   2.393   0.785  10.037  0.3947  0.1371 -0.2202
 1061TIP3    H224675   2.273   0.877  10.045  0.6076  0.4871 -1.0197
 1062TIP3   OH224676   2.446   2.373  29.006 -0.2010  0.2252  0.4116
 1062TIP3    H124677   2.451   2.464  28.977  1.2026 -0.0203 -0.2179
 1062TIP3    H224678   2.537   2.348  29.021 -0.4477 -1.4098 -0.5557
 1063TIP3   OH224679   2.154   2.318  91.985  0.1483 -0.3708 -0.0300
 1063TIP3    H124680   2.101   2.323  91.905 -0.1496  1.1703  0.2276
 1063TIP3    H224681   2.095   2.346  92.055  0.5881 -1.1042  0.6403
 1064TIP3   OH224682   1.302   0.015  33.031  0.7199  0.4509 -0.2372
 1064TIP3    H124683   1.323   0.107  33.044  0.1761  0.5643 -0.1595
 1064TIP3    H224684   1.369  -0.016  32.970 -0.5440  1.5124 -2.2424
 1065TIP3   OH224685   1.483   1.423  17.171 -0.0551 -0.0321  0.2189
 1065TIP3    H124686   1.515   1.397  17.257 -0.5377 -1.7806 -0.0864
 1065TIP3    H224687   1.558   1.411  17.113  1.1216  3.7489  0.7276
 1066TIP3   OH224688   0.149   1.158  15.384 -0.1042 -0.4475  0.5743
 1066TIP3    H124689   0.059   1.155  15.352  0.4254  0.5091 -1.1474
 1066TIP3    H224690   0.186   1.236  15.344  1.4403 -0.6999  1.4295
 1067TIP3   OH224691   0.444   0.955  51.680  0.3847 -0.2350 -0.0797
 1067TIP3    H124692   0.517   0.996  51.634  0.8669 -0.4717  0.4638
 1067TIP3    H224693   0.419   0.881  51.624 -1.4832  1.5951 -1.8423
 1068TIP3   OH224694   1.070   1.196  69.685 -0.4117  0.0579 -0.3655
 1068TIP3    H124695   1.014   1.272  69.670 -0.3642 -0.1141 -1.5087
 1068TIP3    H224696   1.114   1.181  69.601  5.2215  3.1727  1.4561
 1069TIP3   OH224697   0.212   1.792  93.777  0.6092  0.1382  0.0267
 1069TIP3    H124698   0.213   1.888  93.779  0.8972  0.1328  0.2041
 1069TIP3    H224699   0.272   1.766  93.847  0.3155 -0.1764  0.1660
 1070TIP3   OH224700   2.209   1.159  34.163 -0.3353 -0.1168 -0.2452
 1070TIP3    H124701   2.262   1.123  34.092 -0.7854 -3.6470  1.0185
 1070TIP3    H224702   2.262   1.230  34.198  1.5441 -0.6509 -1.8080
 1071TIP3   OH224703   1.884   1.924  30.534  0.3482 -0.3307  0.2986
 1071TIP3    H124704   1.979   1.928  30.523  0.2846  0.9190  0.0356
 1071TIP3    H224705   1.870   1.865  30.608  1.2507 -1.6238 -0.5223
 1072TIP3   OH224706   0.920   0.788  75.652  0.1560  0.2021 -0.2326
 1072TIP3    H124707   1.002   0.819  75.689 -1.2608  2.3957  1.3764
 1072TIP3    H224708   0.854   0.811  75.718 -1.9835  0.3338 -2.2745
 1073TIP3   OH224709   1.794   2.639  17.974  0.0108 -0.2789 -0.0213
 1073TIP3    H124710   1.889   2.629  17.984  0.0626 -0.1080 -0.3194
 1073TIP3    H224711   1.763   2.657  18.063  0.1467 -1.1684  0.2208
 1074TIP3   OH224712   2.656   2.300  10.649  0.0632 -0.6146  0.3470
 1074TIP3    H124713   2.614   2.243  10.584 -1.3525  0.1481  0.5596
 1074TIP3    H224714   2.584   2.347  10.690  1.1835  1.6311 -0.0851
 1075TIP3   OH224715   1.051   2.537   3.458  0.0867 -0.3792 -0.4224
 1075TIP3    H124716   1.112   2.463   3.451 -1.3843 -1.7070  0.3183
 1075TIP3    H224717   1.054   2.560   3.551 -0.6296 -0.5481 -0.3543
 1076TIP3   OH224718   1.168   0.168  10.500  0.4191  0.1027  0.6707
 1076TIP3    H124719   1.137   0.078  10.489  0.8427  0.1819 -1.6946
 1076TIP3    H224720   1.126   0.199  10.581 -2.6197 -1.0520 -0.3566
 1077TIP3   OH224721   0.746   0.395  12.430 -0.4217  0.0574  0.0016
 1077TIP3    H124722   0.833   0.434  12.419 -0.0643 -0.0312  2.1780
 1077TIP3    H224723   0.706   0.401  12.342  1.4175  0.9150 -0.8294
 1078TIP3   OH224724   1.546   1.772  15.323  0.0311 -0.0910  0.5331
 1078TIP3    H124725   1.626   1.775  15.375  0.2824 -0.5444  0.1840
 1078TIP3    H224726   1.564   1.707  15.255 -0.5005  0.0672  0.2309
 1079TIP3   OH224727   2.511   2.376   0.627  1.0634 -0.3222  0.4185
 1079TIP3    H124728   2.490   2.354   0.536  1.0607 -0.2334  0.3981
 1079TIP3    H224729   2.504   2.292   0.674 -0.3015 -0.1259  0.6018
 1080TIP3   OH224730   0.317   0.447  36.244 -0.1026 -0.3062 -0.2461
 1080TIP3    H124731   0.383   0.513  36.266 -0.6251  0.2828 -0.4115
 1080TIP3    H224732   0.234   0.487  36.269 -0.2864 -1.7582  1.6735
 1081TIP3   OH224733   0.390   1.585  89.242  0.0670  0.1956  0.3688
 1081TIP3    H124734   0.390   1.641  89.164  0.6586  1.3391  1.1576
 1081TIP3    H224735   0.319   1.523  89.227  0.8381 -0.3064 -1.5528
 1082TIP3   OH224736   1.406   2.305  79.039  0.0254 -0.4352  0.3834
 1082TIP3    H124737   1.488   2.294  79.088  1.2915 -0.9969 -1.7301
 1082TIP3    H224738   1.415   2.247  78.964 -2.1360 -0.1434 -0.1572
 1083TIP3   OH224739   2.596   0.463  57.636  0.0910 -0.2580  0.2579
 1083TIP3    H124740   2.509   0.422  57.640 -0.7095  1.4585  1.6988
 1083TIP3    H224741   2.615   0.488  57.726  0.9610  1.6120 -0.3954
 1084TIP3   OH224742   0.468   2.266  99.671  0.2427  0.3912 -0.3866
 1084TIP3    H124743   0.521   2.330  99.623 -0.5527  0.9341 -0.5501
 1084TIP3    H224744   0.451   2.308  99.756 -0.2016  0.3658 -0.4605
 1085TIP3   OH224745   1.796   2.406  76.449 -0.1661  0.4680  0.2067
 1085TIP3    H124746   1.839   2.363  76.375  0.0318  1.6158 -0.3687
 1085TIP3    H224747   1.868   2.448  76.496 -0.2868 -0.3028  1.0929
 1086TIP3   OH224748   2.547   1.649  14.863  0.5189 -0.2632 -0.5731
 1086TIP3    H124749   2.497   1.728  14.843 -0.3785 -0.6917 -0.0428
 1086TIP3    H224750   2.520   1.625  14.951  1.7721 -0.4314 -0.2159
 1087TIP3   OH224751   1.113   2.213 102.467  0.6650 -0.0637  0.5164
 1087TIP3    H124752   1.064   2.202 102.548  0.1971 -0.2573  0.2052
 1087TIP3    H224753   1.165   2.133 102.459  1.4847  0.3872  1.1339
 1088TIP3   OH224754   1.031   1.668  17.356 -0.6937  0.2449 -0.2674
 1088TIP3    H124755   0.948   1.645  17.313  0.2287 -1.5881 -1.2121
 1088TIP3    H224756   1.039   1.604  17.427 -0.4877  0.9817  0.3869
 1089TIP3   OH224757   1.711   2.231  80.228  0.0290 -0.1491  0.3552
 1089TIP3    H124758   1.705   2.246  80.322  1.4418 -0.7711  0.5620
 1089TIP3    H224759   1.789   2.278  80.200 -0.0922 -0.3870 -0.4289
 1090TIP3   OH224760   2.415   2.338   3.019  0.1927  0.1452 -0.1977
 1090TIP3    H124761   2.396   2.432   3.019  2.8224  0.7590  0.2776
 1090TIP3    H224762   2.477   2.327   2.947  0.0014 -1.2172 -0.1629
 1091TIP3   OH224763   2.121   1.491  86.059  0.3612  0.0595 -0.1918
 1091TIP3    H124764   2.179   1.461  86.129  1.0389  2.8561  0.5557
 1091TIP3    H224765   2.037   1.506  86.102  0.4079  0.5194 -0.2603
 1092TIP3   OH224766   0.211   0.969   5.438 -0.1062  0.3928  0.1795
 1092TIP3    H124767   0.242   0.893   5.488 -0.8344 -0.8497 -1.1815
 1092TIP3    H224768   0.288   1.024   5.428  0.2070  0.3867  2.0760
 1093TIP3   OH224769   1.339   1.723  22.661  0.2315 -0.0946  0.5260
 1093TIP3    H124770   1.420   1.677  22.641  0.0982  0.3487 -1.1841
 1093TIP3    H224771   1.293   1.664  22.721  1.6975 -0.4563  1.3395
 1094TIP3   OH224772   2.218   0.083  75.045 -0.0543  0.2364  0.2053
 1094TIP3    H124773   2.243   0.145  75.113  0.7737 -0.7552  0.8312
 1094TIP3    H224774   2.293   0.082  74.985  0.7710 -1.5023  1.1941
 1095TIP3   OH224775   1.638   1.112  84.723  0.1756 -0.0793  0.0555
 1095TIP3    H124776   1.601   1.195  84.694 -1.5555 -0.2887  1.5406
 1095TIP3    H224777   1.721   1.136  84.764  0.0686  0.8150 -0.2211
 1096TIP3   OH224778   1.623   0.356  86.381  0.4981 -0.1871  0.8411
 1096TIP3    H124779   1.596   0.425  86.442 -1.1307  0.1437 -0.1721
 1096TIP3    H224780   1.586   0.276  86.419 -1.9494  0.2318 -0.4211
 1097TIP3   OH224781   1.602   0.852 106.900  0.4927  0.0455 -0.2582
 1097TIP3    H124782   1.691   0.873 106.874 -0.1219  3.1319 -0.2739
 1097TIP3    H224783   1.601   0.864 106.995 -0.2175  1.6675 -0.4329
 1098TIP3   OH224784   2.327   1.644  47.118  0.0218 -0.0339 -0.8984
 1098TIP3    H124785   2.409   1.670  47.161 -0.7592 -0.7754  1.2022
 1098TIP3    H224786   2.262   1.706  47.151 -0.5711 -0.4720 -1.2261
 1099TIP3   OH224787   1.414   1.997  99.454  0.1492 -0.2048  0.2336
 1099TIP3    H124788   1.359   1.955  99.520 -0.6472  1.0764  0.4203
 1099TIP3    H224789   1.393   1.953  99.372  0.1459 -0.9077  0.6103
 1100TIP3   OH224790   2.387   0.108   1.670 -0.2762 -0.2754  0.7281
 1100TIP3    H124791   2.374   0.130   1.762  1.0812  0.8862  0.6663
 1100TIP3    H224792   2.299   0.111   1.632 -0.6745  0.6169  1.6911
 1101TIP3   OH224793   2.493   0.305 107.297  0.2927  0.0655  0.1871
 1101TIP3    H124794   2.510   0.218 107.336 -0.6797 -0.4237 -0.4506
 1101TIP3    H224795   2.527   0.298 107.208  0.6281  0.5021  0.2835
 1102TIP3   OH224796   0.901   0.231 102.175 -0.5992 -0.3517 -0.0377
 1102TIP3    H124797   0.925   0.249 102.084 -1.2829 -1.0437 -0.3586
 1102TIP3    H224798   0.809   0.255 102.181 -0.3494  0.4982  0.7110
 1103TIP3   OH224799   0.882   2.458  93.488  0.1195 -0.6550 -0.8939
 1103TIP3    H124800   0.977   2.460  93.486  0.2108 -2.6779 -0.2422
 1103TIP3    H224801   0.856   2.536  93.439  2.0773  0.7177  0.1319
 1104TIP3   OH224802   2.641   1.566  15.360 -0.1055 -0.3627 -0.5695
 1104TIP3    H124803   2.566   1.517  15.393 -0.2180 -0.0539 -0.3674
 1104TIP3    H224804   2.611   1.656  15.354 -0.2616 -0.4900 -2.0401
 1105TIP3   OH224805   2.519   0.504  30.030 -0.5863 -0.5571  0.2012
 1105TIP3    H124806   2.549   0.595  30.033 -0.3820 -0.5648 -0.9696
 1105TIP3    H224807   2.524   0.481  29.937 -2.3206 -1.1922  0.2273
 1106TIP3   OH224808   0.811   0.246  32.739  0.0744 -0.5676 -0.0286
 1106TIP3    H124809   0.741   0.224  32.801 -1.2506  1.9460 -0.4844
 1106TIP3    H224810   0.888   0.261  32.794 -0.4687 -0.7063  0.7922
 1107TIP3   OH224811   1.004   2.171  89.778  0.2245 -0.0484 -0.2377
 1107TIP3    H124812   0.989   2.117  89.855 -0.5088 -0.2815 -0.5367
 1107TIP3    H224813   1.094   2.202  89.787  1.0364 -2.1251 -0.5531
 1108TIP3   OH224814   1.085   1.179  36.242 -0.1826 -0.4564  0.2195
 1108TIP3    H124815   0.995   1.151  36.259 -0.0930 -1.9211 -1.3497
 1108TIP3    H224816   1.098   1.160  36.149  1.6991 -0.1307  0.3823
 1109TIP3   OH224817   0.797   1.503  27.147  0.2959 -0.0285  0.2504
 1109TIP3    H124818   0.813   1.425  27.201  0.5228 -0.5413 -0.5340
 1109TIP3    H224819   0.882   1.546  27.141  0.1695  0.2833  0.6870
 1110TIP3   OH224820   0.416   0.056  97.443  0.2483  0.3831  0.2872
 1110TIP3    H124821   0.330   0.020  97.423  0.0679  0.4972  0.8568
 1110TIP3    H224822   0.452  -0.004  97.509  0.7321  0.1580 -0.1725
 1111TIP3   OH224823   1.482   1.129   7.274 -0.0673  0.0037  0.2016
 1111TIP3    H124824   1.505   1.056   7.332  0.6567 -1.3364 -1.6525
 1111TIP3    H224825   1.386   1.132   7.275 -0.1982 -1.9853 -0.7698
 1112TIP3   OH224826   1.843   0.772   3.360 -0.0506  0.0555  0.1250
 1112TIP3    H124827   1.830   0.678   3.347 -0.4657  0.1894 -0.4580
 1112TIP3    H224828   1.801   0.791   3.444 -0.1440 -0.2374  0.1451
 1113TIP3   OH224829   1.015   0.081  93.661 -0.1359 -0.2107  0.2195
 1113TIP3    H124830   1.048  -0.008  93.667 -0.2929 -0.3134 -0.3892
 1113TIP3    H224831   1.019   0.114  93.751  1.3553 -0.3033  0.2150
 1114TIP3   OH224832   2.426   1.784  82.332 -0.5771  0.4425  0.7224
 1114TIP3    H124833   2.490   1.853  82.346  0.3487  0.1161 -1.5153
 1114TIP3    H224834   2.341   1.827  82.338 -0.0140  1.9071 -1.0043
 1115TIP3   OH224835   2.045   2.355  36.765  0.4945  0.3002 -0.3841
 1115TIP3    H124836   1.987   2.392  36.831 -1.1338  0.1122 -1.6417
 1115TIP3    H224837   2.022   2.400  36.684 -0.4266 -2.2196 -1.6481
 1116TIP3   OH224838   0.972   0.266  31.127  0.1159  0.0021 -0.2733
 1116TIP3    H124839   0.979   0.288  31.220 -0.7124  0.9754 -0.4232
 1116TIP3    H224840   1.035   0.195  31.115  1.5048  0.9993  0.6775
 1117TIP3   OH224841   2.134   2.566 110.655  0.2167  0.1544  0.2727
 1117TIP3    H124842   2.202   2.631 110.672  0.7974 -0.0802 -1.1001
 1117TIP3    H224843   2.096   2.591 110.571 -1.0838 -0.0067  0.7705
 1118TIP3   OH224844   0.555   2.664   1.499  0.7719  0.2761 -0.4275
 1118TIP3    H124845   0.576   2.757   1.497 -0.9386  0.6959 -0.5125
 1118TIP3    H224846   0.532   2.646   1.590  0.4494  0.0934 -0.5427
 1119TIP3   OH224847   2.184   0.983 106.090  0.1172 -0.1951 -0.0092
 1119TIP3    H124848   2.225   0.896 106.084  1.1722  0.2695  0.3825
 1119TIP3    H224849   2.150   0.999 106.002  3.4427  0.6889 -1.2768
 1120TIP3   OH224850   0.535   1.856  18.259 -0.3202 -0.2094 -0.1936
 1120TIP3    H124851   0.457   1.816  18.297 -1.9966  2.1516 -0.9121
 1120TIP3    H224852   0.570   1.913  18.328  0.2093 -0.5150 -0.2019
 1121TIP3   OH224853   0.164   1.867  44.948  0.4375  0.2553 -0.5854
 1121TIP3    H124854   0.239   1.808  44.963  0.3136  0.7743  2.7047
 1121TIP3    H224855   0.201   1.955  44.958 -0.0780  0.6554 -1.9736
 1122TIP3   OH224856   1.115   1.435  78.997 -0.3557  0.5178 -0.3101
 1122TIP3    H124857   1.060   1.387  79.059 -1.3557  0.8164 -0.9532
 1122TIP3    H224858   1.150   1.367  78.939  0.2362  0.2908  0.2952
 1123TIP3   OH224859   1.667   2.288  21.071 -0.4191 -0.1139  0.0383
 1123TIP3    H124860   1.625   2.337  21.142 -0.4800 -0.2810  0.1182
 1123TIP3    H224861   1.657   2.344  20.994 -0.6695 -0.0928  0.0856
 1124TIP3   OH224862   2.380   1.227  89.335 -0.6795  0.1970 -0.2061
 1124TIP3    H124863   2.450   1.247  89.397 -1.3323  2.8242 -0.1668
 1124TIP3    H224864   2.312   1.186  89.387  0.5953 -1.9937 -0.1610
 1125TIP3   OH224865   0.138   1.553  22.109  0.2641  0.5737 -0.2116
 1125TIP3    H124866   0.178   1.474  22.074 -1.7964  0.1562 -1.8679
 1125TIP3    H224867   0.087   1.522  22.184  0.5628  0.5762 -0.0070
 1126TIP3   OH224868   2.638   0.970  76.500  0.1755 -0.3080 -0.2891
 1126TIP3    H124869   2.717   0.919  76.516  0.1500 -0.1519  0.3499
 1126TIP3    H224870   2.575   0.906  76.466 -0.8342 -1.4380  3.2521
 1127TIP3   OH224871   1.545   0.202  17.265 -0.9679  0.3413  0.2889
 1127TIP3    H124872   1.627   0.165  17.231 -0.4257  2.1048 -0.4862
 1127TIP3    H224873   1.571   0.243  17.348 -1.0462  0.9286  0.0262
 1128TIP3   OH224874   2.131   0.638 103.221  0.0218  0.1513 -0.0170
 1128TIP3    H124875   2.222   0.624 103.196 -0.0292 -1.8399  0.7448
 1128TIP3    H224876   2.130   0.627 103.316 -1.1555 -0.8625 -0.1234
 1129TIP3   OH224877   0.037   0.866  77.876 -0.3851 -0.2207 -0.4617
 1129TIP3    H124878   0.042   0.831  77.787 -2.1305 -0.2611 -0.5786
 1129TIP3    H224879   0.001   0.954  77.864 -2.4354 -0.9070  0.3080
 1130TIP3   OH224880   1.080   0.592  29.789 -0.1277  0.5167 -0.2249
 1130TIP3    H124881   1.111   0.595  29.880 -0.3156  1.4190 -0.1839
 1130TIP3    H224882   1.075   0.498  29.769 -1.1538  0.2596  1.0649
 1131TIP3   OH224883   0.780   1.316  25.962  0.4193 -0.1516 -0.3774
 1131TIP3    H124884   0.869   1.346  25.942  0.5759 -1.3333 -1.6610
 1131TIP3    H224885   0.765   1.344  26.052  1.5330  1.3287 -0.6094
 1132TIP3   OH224886   0.727   0.873  17.602 -0.2018 -0.2845  0.3578
 1132TIP3    H124887   0.638   0.891  17.631 -0.2844 -0.1538  0.0317
 1132TIP3    H224888   0.722   0.784  17.565 -0.4120  0.0650 -0.4940
 1133TIP3   OH224889   1.396   2.194  35.062  0.1833 -0.1940  0.0675
 1133TIP3    H124890   1.421   2.260  34.997  2.2784 -1.8348 -0.9089
 1133TIP3    H224891   1.464   2.200  35.129 -0.0204 -0.8744  0.3422
 1134TIP3   OH224892   2.111   0.450  84.128 -0.2822  0.8270 -1.3301
 1134TIP3    H124893   2.058   0.375  84.154 -1.4089  1.5512 -1.4524
 1134TIP3    H224894   2.202   0.423  84.144 -0.7579  0.1550  0.4455
 1135TIP3   OH224895   2.030   0.398  80.913  0.1202  0.6022 -0.0483
 1135TIP3    H124896   2.046   0.316  80.867 -2.1309  0.2400 -0.2824
 1135TIP3    H224897   2.021   0.373  81.005 -3.5383  0.0282 -0.4358
 1136TIP3   OH224898   2.307   2.618 102.508 -0.0312  0.0881 -0.0363
 1136TIP3    H124899   2.292   2.539 102.560  1.9791  0.2845  0.9468
 1136TIP3    H224900   2.402   2.619 102.494 -0.0783  2.0494 -0.4859
 1137TIP3   OH224901   2.317   1.445  85.128 -0.7458 -0.1775  0.1372
 1137TIP3    H124902   2.390   1.429  85.068  0.3007 -3.2506  2.0130
 1137TIP3    H224903   2.264   1.365  85.125 -1.5869  0.2290  2.0405
 1138TIP3   OH224904   0.497   1.710  85.786 -0.0384 -0.5706 -0.2796
 1138TIP3    H124905   0.430   1.709  85.855  1.4148 -0.9798  1.1889
 1138TIP3    H224906   0.470   1.780  85.727 -1.2586 -0.1073  0.7898
 1139TIP3   OH224907   1.213   1.695  52.598  0.5762 -0.1807 -0.2905
 1139TIP3    H124908   1.204   1.741  52.514  1.1660 -0.8251 -0.7177
 1139TIP3    H224909   1.284   1.742  52.643  0.9142 -0.4278 -0.5620
 1140TIP3   OH224910   2.392   1.868   4.440 -0.0027 -0.1048 -0.6037
 1140TIP3    H124911   2.404   1.940   4.502 -1.9566  0.2664 -0.5643
 1140TIP3    H224912   2.394   1.789   4.494  1.3912 -0.0527 -0.5420
 1141TIP3   OH224913   0.632   0.232   7.513  0.3782  0.2173 -0.5333
 1141TIP3    H124914   0.641   0.242   7.418  1.7758 -0.6280 -0.5183
 1141TIP3    H224915   0.539   0.216   7.527  0.2075  0.0261 -1.8038
 1142TIP3   OH224916   1.774   1.014   2.615 -0.2710  0.2709 -0.9508
 1142TIP3    H124917   1.799   0.961   2.539 -0.6183 -1.7355  0.2516
 1142TIP3    H224918   1.678   1.011   2.615 -0.2657  0.0494 -0.3086
 1143TIP3   OH224919   0.448   0.029 103.202 -0.4165  0.1422 -0.1933
 1143TIP3    H124920   0.440  -0.032 103.128 -0.6867 -0.1356  0.0588
 1143TIP3    H224921   0.481  -0.025 103.274 -0.0179  0.4423 -0.1536
 1144TIP3   OH224922   0.143   2.037  13.674  0.1849 -0.3079  0.3510
 1144TIP3    H124923   0.194   1.963  13.640  1.1738  0.0927  0.9061
 1144TIP3    H224924   0.059   1.999  13.699  0.3516 -1.0695 -0.2063
 1145TIP3   OH224925   0.894   1.195 100.688  0.4072  0.5291  0.1105
 1145TIP3    H124926   0.974   1.222 100.644 -0.2562  1.1380 -0.7511
 1145TIP3    H224927   0.917   1.112 100.730  1.1696  0.1064 -1.0818
 1146TIP3   OH224928   0.636   2.349  84.421 -0.0375  0.6020  0.2008
 1146TIP3    H124929   0.555   2.399  84.432 -0.0396  0.3579  1.4524
 1146TIP3    H224930   0.606   2.259  84.408  0.0195  0.2773  2.0344
 1147TIP3   OH224931   0.805   2.453  25.987 -0.0553 -0.3259 -0.3891
 1147TIP3    H124932   0.731   2.409  26.027  0.7057  0.1930  1.7331
 1147TIP3    H224933   0.840   2.509  26.057  1.9306 -0.0691 -1.5120
 1148TIP3   OH224934   1.934   0.161  78.430 -0.3788  0.5276 -0.9750
 1148TIP3    H124935   1.871   0.149  78.358 -0.0449  1.0253 -1.3522
 1148TIP3    H224936   2.018   0.134  78.392 -0.4520 -0.7248 -0.2804
 1149TIP3   OH224937   0.583   1.838  80.475 -0.2683  0.4187  0.2265
 1149TIP3    H124938   0.506   1.894  80.477 -2.0153 -1.7906 -0.7239
 1149TIP3    H224939   0.593   1.812  80.384  1.3446  0.2757  0.4043
 1150TIP3   OH224940   2.088   1.832 105.451  0.3830  0.0262  0.0667
 1150TIP3    H124941   1.995   1.850 105.434  0.0371  0.1564  1.8806
 1150TIP3    H224942   2.128   1.830 105.364 -1.3973 -0.5244 -0.8050
 1151TIP3   OH224943   2.679   1.433  24.521  0.1153  0.4533  0.6655
 1151TIP3    H124944   2.754   1.383  24.488 -0.4971 -1.5365  2.0847
 1151TIP3    H224945   2.636   1.466  24.442  2.5754  1.9022 -0.1771
 1152TIP3   OH224946   1.410   2.180  85.076 -0.5453 -0.4862 -0.0676
 1152TIP3    H124947   1.438   2.214  84.990  1.9730  0.5056  1.0445
 1152TIP3    H224948   1.318   2.203  85.082 -0.6290 -0.0062 -2.2530
 1153TIP3   OH224949   2.184   1.998  84.975  0.2255 -0.3500  0.6378
 1153TIP3    H124950   2.102   1.987  85.024 -0.0097  1.8988  0.8639
 1153TIP3    H224951   2.231   2.066  85.022  1.8703 -1.0373  0.0360
 1154TIP3   OH224952   1.471   2.371   0.015 -0.0052  0.0543 -0.0303
 1154TIP3    H124953   1.425   2.453   0.029  1.1529  0.8802 -0.8474
 1154TIP3    H224954   1.410   2.317  -0.036 -0.3153  0.8793 -0.5508
 1155TIP3   OH224955   0.864   0.939   4.435 -0.3300 -0.3369  0.2157
 1155TIP3    H124956   0.793   0.999   4.412  0.0811 -0.1827 -0.6856
 1155TIP3    H224957   0.944   0.987   4.414 -0.0036 -1.3360 -0.9215
 1156TIP3   OH224958   1.704   1.428  18.056 -0.5418 -0.1268 -0.5714
 1156TIP3    H124959   1.666   1.438  18.143 -2.5479 -0.6933 -1.3228
 1156TIP3    H224960   1.728   1.336  18.050  2.1687  0.4288  0.2970
 1157TIP3   OH224961   0.399   2.009   4.631  0.3430 -0.5046 -0.0393
 1157TIP3    H124962   0.471   2.009   4.694 -0.7430 -1.3932  1.2953
 1157TIP3    H224963   0.325   1.971   4.680 -1.4117  1.5891 -0.9132
 1158TIP3   OH224964   0.279   1.341  79.502 -0.2493 -0.0759  0.1884
 1158TIP3    H124965   0.218   1.414  79.493  0.6015  0.6142 -0.1184
 1158TIP3    H224966   0.348   1.359  79.437  2.2734  1.1864  2.9680
 1159TIP3   OH224967   1.447   0.150  86.147  0.4120  0.3009 -0.0226
 1159TIP3    H124968   1.425   0.188  86.232  0.6741  0.4310 -0.0119
 1159TIP3    H224969   1.452   0.224  86.088 -0.8053  0.1083 -0.3900
 1160TIP3   OH224970   0.896   0.030  37.575  0.6245 -0.1665  0.2742
 1160TIP3    H124971   0.858  -0.034  37.636 -0.1437  1.5191  1.6508
 1160TIP3    H224972   0.944   0.091  37.631  1.6587  0.2869 -1.0355
 1161TIP3   OH224973   2.301   2.438  13.709 -0.3453 -0.0046  0.0053
 1161TIP3    H124974   2.361   2.511  13.692 -1.6662  1.1295  0.0293
 1161TIP3    H224975   2.327   2.371  13.646  0.5821  0.6776 -0.3701
 1162TIP3   OH224976   2.390   1.835  29.429 -0.1115  0.9956 -0.3901
 1162TIP3    H124977   2.352   1.837  29.516  0.8362  1.5557  0.0239
 1162TIP3    H224978   2.376   1.923  29.394 -1.2371  0.5393 -1.1521
 1163TIP3   OH224979   0.291   1.336  14.875 -0.0106 -0.2998  0.4585
 1163TIP3    H124980   0.209   1.306  14.836 -0.1092  0.2471  0.2395
 1163TIP3    H224981   0.358   1.283  14.831 -0.2161 -0.5072  0.3915
 1164TIP3   OH224982   1.125   2.268  81.223  0.0729 -0.1123  0.3417
 1164TIP3    H124983   1.199   2.209  81.234  0.3972  0.2597  0.1518
 1164TIP3    H224984   1.151   2.328  81.153 -0.3549  0.0956  0.3560
 1165TIP3   OH224985   2.527   0.462  22.776  0.1149 -0.2137  0.6722
 1165TIP3    H124986   2.586   0.441  22.704  1.1160  2.7825  0.4821
 1165TIP3    H224987   2.564   0.417  22.852  1.2618 -0.3031  0.0709
 1166TIP3   OH224988   2.633   0.069  57.857  0.5942  0.1182 -0.0529
 1166TIP3    H124989   2.662   0.141  57.801  0.8098 -0.2939 -0.4729
 1166TIP3    H224990   2.606   0.000  57.796  1.4140 -0.5730  0.3527
 1167TIP3   OH224991   2.061   0.233  87.824 -0.4513  0.2354 -0.8749
 1167TIP3    H124992   2.127   0.229  87.892  0.7384  0.8779 -1.9411
 1167TIP3    H224993   1.998   0.299  87.854 -0.1644  0.2098 -0.2164
 1168TIP3   OH224994   0.801   1.080 105.664 -0.1666 -0.0674  0.4274
 1168TIP3    H124995   0.841   1.000 105.632 -1.9206 -1.3968  1.4112
 1168TIP3    H224996   0.793   1.067 105.759 -0.5949  1.2005  0.5931
 1169TIP3   OH224997   1.664   2.317  12.116  0.0611  0.2736  0.5637
 1169TIP3    H124998   1.692   2.338  12.027 -1.7773  0.6299  0.0351
 1169TIP3    H224999   1.666   2.221  12.119  1.2330  0.2790  0.5405
 1170TIP3   OH225000   1.609   1.605 105.021 -0.2434  0.2361  0.3510
 1170TIP3    H125001   1.627   1.694 104.990  0.1188  0.5660  1.4715
 1170TIP3    H225002   1.655   1.549 104.959 -1.0703  0.7771 -0.8054
 1171TIP3   OH225003   1.049   0.034  79.582  0.4194  0.2579 -0.0311
 1171TIP3    H125004   1.071  -0.019  79.658 -0.2629  0.0827  0.0524
 1171TIP3    H225005   1.075  -0.020  79.507 -0.4758 -0.2995  0.0441
 1172TIP3   OH225006   1.504   0.517  83.000 -0.0913  0.3791  0.1571
 1172TIP3    H125007   1.437   0.553  82.942  0.9151  0.6020 -0.9304
 1172TIP3    H225008   1.547   0.594  83.038  1.3954  0.3754 -1.3847
 1173TIP3   OH225009   0.066   0.744  38.420 -0.2725  0.5714  0.3999
 1173TIP3    H125010   0.105   0.831  38.427  0.7779  0.2292 -0.9153
 1173TIP3    H225011   0.135   0.685  38.451 -0.6695  0.1332  0.4595
 1174TIP3   OH225012   1.022   0.761  57.176 -0.0492 -0.5341  0.3221
 1174TIP3    H125013   0.961   0.748  57.103  0.2067  0.9708 -0.1842
 1174TIP3    H225014   0.990   0.840  57.219  1.0723 -0.2023  0.5540
 1175TIP3   OH225015   1.397   0.957  18.343 -0.2732 -0.0185 -0.1331
 1175TIP3    H125016   1.331   0.895  18.314 -1.2132  0.5624  0.7101
 1175TIP3    H225017   1.443   0.912  18.414  0.4770 -0.5409 -0.9219
 1176TIP3   OH225018   2.298   0.939   6.574  0.2690  0.0509  0.2891
 1176TIP3    H125019   2.381   0.985   6.591  0.5772 -0.2697 -0.3022
 1176TIP3    H225020   2.312   0.851   6.609  0.3625 -0.1512 -0.2382
 1177TIP3   OH225021   2.052   2.095 103.517  0.1406 -0.0516  0.4686
 1177TIP3    H125022   2.002   2.051 103.585  0.0168  0.1092  0.4799
 1177TIP3    H225023   1.998   2.169 103.490 -0.8615 -1.3476 -1.3677
 1178TIP3   OH225024   0.498   1.298  35.372 -0.4956 -0.1513 -0.4517
 1178TIP3    H125025   0.428   1.263  35.316 -1.3534  0.9778 -0.1240
 1178TIP3    H225026   0.463   1.381  35.404  2.0724  1.8925 -2.5025
 1179TIP3   OH225027   0.314   0.667  15.638  0.1283  0.4080  0.5405
 1179TIP3    H125028   0.270   0.731  15.694 -0.3104  0.9518 -0.3986
 1179TIP3    H225029   0.261   0.588  15.644  0.1003  0.4569  0.9150
 1180TIP3   OH225030   0.536   2.034  28.565 -0.1059  0.1051 -0.4769
 1180TIP3    H125031   0.613   2.025  28.621 -1.0388 -1.5801  0.5943
 1180TIP3    H225032   0.558   1.986  28.486  0.0505 -0.1335 -0.2887
 1181TIP3   OH225033   2.245   0.189  80.584  0.1906  0.2111  0.2776
 1181TIP3    H125034   2.317   0.160  80.529  0.8795  1.7408  0.3205
 1181TIP3    H225035   2.283   0.258  80.639 -1.3321  1.1515  0.2110
 1182TIP3   OH225036   0.929   0.124  38.032 -0.1907 -0.4215  0.1414
 1182TIP3    H125037   0.861   0.188  38.054 -1.0878 -0.8237 -1.3000
 1182TIP3    H225038   0.890   0.039  38.051 -0.8503 -0.7643 -2.3504
 1183TIP3   OH225039   0.483   2.284  74.874 -0.0042 -0.7939  0.1253
 1183TIP3    H125040   0.432   2.335  74.811 -0.4545  0.8348  1.7071
 1183TIP3    H225041   0.573   2.309  74.857 -0.1417 -0.1962  0.2349
 1184TIP3   OH225042   1.683   1.142   6.523 -0.4054 -0.0292  0.4211
 1184TIP3    H125043   1.655   1.161   6.612 -1.9221  0.2518 -0.0912
 1184TIP3    H225044   1.677   1.225   6.476 -0.1254 -0.2808 -0.0826
 1185TIP3   OH225045   0.050   0.218  25.506 -0.5036  0.0938  0.1598
 1185TIP3    H125046  -0.009   0.149  25.537 -0.2004 -0.1227  0.2577
 1185TIP3    H225047   0.098   0.177  25.433 -0.4348  0.2473  0.1192
 1186TIP3   OH225048   2.142   1.983 111.351  0.6432 -0.0502  0.1068
 1186TIP3    H125049   2.156   2.035 111.431 -1.7180  0.2276  0.4282
 1186TIP3    H225050   2.158   1.893 111.377  0.3154  0.0861  0.7989
 1187TIP3   OH225051   1.940   1.640   9.361 -0.2495  0.1029  0.0443
 1187TIP3    H125052   1.991   1.655   9.281 -0.4581 -0.7017 -0.2500
 1187TIP3    H225053   2.005   1.632   9.430  0.0772 -1.1983 -0.3732
 1188TIP3   OH225054   1.157   0.853  32.259 -0.2089 -0.1529 -0.0888
 1188TIP3    H125055   1.145   0.759  32.273  0.4486  0.0328  1.9234
 1188TIP3    H225056   1.087   0.876  32.196 -0.0756 -2.0358 -1.0071
 1189TIP3   OH225057   1.578   0.026  96.150  0.6905 -0.0741 -0.4311
 1189TIP3    H125058   1.651   0.070  96.106  0.8905 -0.3464 -0.3738
 1189TIP3    H225059   1.603   0.026  96.243  0.5046  0.0433 -0.3810
 1190TIP3   OH225060   1.622   1.342   1.201 -0.5595 -0.1972 -0.0219
 1190TIP3    H125061   1.542   1.362   1.250 -0.8104 -1.0103 -0.0833
 1190TIP3    H225062   1.691   1.337   1.268 -0.9268 -1.4465  0.2730
 1191TIP3   OH225063   1.800   1.363 107.139  0.1202 -0.2926 -0.1817
 1191TIP3    H125064   1.882   1.411 107.149  0.1737 -0.1024 -1.3789
 1191TIP3    H225065   1.800   1.300 107.212  0.5249  0.8188  0.7959
 1192TIP3   OH225066   0.110   2.155  21.049 -0.2649  0.5980 -0.7052
 1192TIP3    H125067   0.015   2.160  21.036 -0.3596  1.0005  0.0933
 1192TIP3    H225068   0.146   2.190  20.967 -0.7863 -0.1267 -1.2652
 1193TIP3   OH225069   1.119   0.370  16.248  0.2803 -0.0013 -0.0078
 1193TIP3    H125070   1.172   0.294  16.226  1.3192  0.7479 -0.1698
 1193TIP3    H225071   1.149   0.396  16.335 -2.2305 -1.5896  1.4791
 1194TIP3   OH225072   0.190   1.530  77.730 -0.0751  0.4375 -0.5350
 1194TIP3    H125073   0.149   1.595  77.674 -0.6667 -0.4306 -1.1207
 1194TIP3    H225074   0.146   1.540  77.815 -0.8002  0.1900 -0.8752
 1195TIP3   OH225075   2.481   2.654 107.084  0.3236 -0.6238 -0.3705
 1195TIP3    H125076   2.433   2.634 107.164 -0.4773 -0.6922 -0.8529
 1195TIP3    H225077   2.509   2.569 107.051  1.8600 -0.5022  0.5482
 1196TIP3   OH225078   1.046   2.175 103.746  0.2544 -0.4622 -0.5701
 1196TIP3    H125079   1.086   2.250 103.703  1.9910 -1.4830 -0.8215
 1196TIP3    H225080   1.076   2.099 103.695 -1.6120 -1.3528 -0.4617
 1197TIP3   OH225081   2.028   1.576 103.796  0.3446 -0.1932 -0.1106
 1197TIP3    H125082   2.033   1.599 103.889  0.5423  1.0522 -0.3988
 1197TIP3    H225083   2.103   1.518 103.782  0.4955 -0.1460  0.4431
 1198TIP3   OH225084   1.243   1.911 104.310  0.0971 -0.5301 -0.3013
 1198TIP3    H125085   1.173   1.858 104.272 -0.2150  0.4312 -1.1455
 1198TIP3    H225086   1.241   1.890 104.403 -1.2452 -0.6146 -0.3208
 1199TIP3   OH225087   1.348   2.437  90.968 -0.5618 -0.2663 -0.7148
 1199TIP3    H125088   1.349   2.492  90.890  0.1108 -0.6396 -0.9789
 1199TIP3    H225089   1.434   2.451  91.009 -1.8402  1.9925  1.4622
 1200TIP3   OH225090   1.858   2.590 111.013 -0.6264 -0.4927  0.2421
 1200TIP3    H125091   1.859   2.496 110.996 -0.0369 -0.6266  0.9697
 1200TIP3    H225092   1.938   2.622 110.973 -1.7026  0.0218 -1.6294
 1201TIP3   OH225093   2.521   1.347  16.103  0.0911 -0.1752 -0.3329
 1201TIP3    H125094   2.577   1.390  16.168  0.5086  0.2858 -0.9801
 1201TIP3    H225095   2.572   1.351  16.022 -1.1469  0.8677 -1.0952
 1202TIP3   OH225096   1.562   1.596  97.861  0.4174  0.0058 -0.2932
 1202TIP3    H125097   1.515   1.588  97.778 -0.2469  0.5352  0.0183
 1202TIP3    H225098   1.493   1.599  97.927  0.8894  0.8313  0.1780
 1203TIP3   OH225099   1.655   2.366  30.362  0.5271 -0.1641  0.1094
 1203TIP3    H125100   1.612   2.380  30.278 -1.4952  0.8101  1.2530
 1203TIP3    H225101   1.691   2.278  30.356 -0.4303 -0.4814 -1.4047
 1204TIP3   OH225102   0.074   0.305  67.503 -0.1279 -0.1062 -0.3901
 1204TIP3    H125103   0.061   0.219  67.463  0.9028 -0.0337 -0.9115
 1204TIP3    H225104   0.040   0.367  67.438  0.9988 -0.0198 -0.9085
 1205TIP3   OH225105   0.401   0.376  80.098  0.5118 -0.8555 -0.1907
 1205TIP3    H125106   0.355   0.449  80.058 -0.4387 -1.8102 -0.8765
 1205TIP3    H225107   0.457   0.417  80.165 -1.5545  0.3156  0.9118
 1206TIP3   OH225108   1.573   1.555   8.710  0.0564 -0.3478 -0.1511
 1206TIP3    H125109   1.565   1.643   8.748 -0.5622 -0.1826 -0.6620
 1206TIP3    H225110   1.558   1.496   8.784  0.8316 -0.0400  0.2760
 1207TIP3   OH225111   0.085   0.389 103.420  0.2053  0.1628  0.0808
 1207TIP3    H125112   0.024   0.372 103.492 -0.1366  0.4837 -0.1324
 1207TIP3    H225113   0.042   0.455 103.366  0.5380  0.0474 -0.3299
 1208TIP3   OH225114   1.189   2.241  89.153  0.7438  0.4261 -0.1409
 1208TIP3    H125115   1.269   2.275  89.192  0.2165  0.7335  0.6735
 1208TIP3    H225116   1.212   2.228  89.060  1.8235  0.2236  0.1319
 1209TIP3   OH225117   0.741   2.431 108.188  0.1649  0.3148 -0.1211
 1209TIP3    H125118   0.745   2.425 108.283 -0.5531 -1.0206 -0.1579
 1209TIP3    H225119   0.810   2.372 108.157 -2.6699 -3.1328 -0.4186
 1210TIP3   OH225120   1.530   1.135   2.107 -0.6032  0.2793  0.4116
 1210TIP3    H125121   1.501   1.192   2.178 -0.7385  0.5675  0.1286
 1210TIP3    H225122   1.485   1.052   2.123 -0.8296  0.4214  0.5217
 1211TIP3   OH225123   1.572   1.826  21.525 -0.3984  0.0251 -0.4543
 1211TIP3    H125124   1.583   1.737  21.558 -0.8825 -0.0934 -0.6100
 1211TIP3    H225125   1.492   1.823  21.472 -1.4128  0.9640  0.9527
 1212TIP3   OH225126   2.264   2.315 110.207  0.2175 -0.0843  0.0035
 1212TIP3    H125127   2.252   2.401 110.167  1.3646  0.4779  0.8219
 1212TIP3    H225128   2.193   2.308 110.271 -1.8474 -1.1338 -2.2309
 1213TIP3   OH225129   1.020   2.185  25.034 -0.4915  0.1096  0.3929
 1213TIP3    H125130   0.967   2.165  24.956  1.0543 -1.7938 -0.2591
 1213TIP3    H225131   0.955   2.194  25.104 -1.8697  1.0249 -0.9314
 1214TIP3   OH225132   0.595   2.091  77.533 -0.2642 -0.4991  0.0606
 1214TIP3    H125133   0.678   2.134  77.510  1.0464 -2.1023  1.4740
 1214TIP3    H225134   0.601   2.077  77.628 -1.3241 -2.2833 -0.0872
 1215TIP3   OH225135   0.785   2.018  28.722 -0.0255 -0.1687 -0.0718
 1215TIP3    H125136   0.758   2.029  28.813  1.2328 -0.9958  0.4262
 1215TIP3    H225137   0.806   2.107  28.692  1.0998 -0.0592  0.9630
 1216TIP3   OH225138   0.894   1.925  26.332  0.0822  0.7472  0.1981
 1216TIP3    H125139   0.907   1.984  26.406 -1.9220  0.0786  1.1606
 1216TIP3    H225140   0.901   1.837  26.370  0.7975  0.3487 -0.7844
 1217TIP3   OH225141   1.017   2.665   0.897 -0.0341 -0.0116  0.1447
 1217TIP3    H125142   0.959   2.712   0.957 -0.6702  1.1185 -1.2823
 1217TIP3    H225143   1.025   2.723   0.821  0.9308 -1.2764 -0.7690
 1218TIP3   OH225144   1.630   0.880  11.464 -0.0882  0.2119  0.3718
 1218TIP3    H125145   1.714   0.883  11.419 -0.2869  0.1978 -0.0063
 1218TIP3    H225146   1.607   0.972  11.479 -0.1595  0.2254  0.1815
 1219TIP3   OH225147   1.019   0.798  28.763 -0.1905  0.1213 -0.4210
 1219TIP3    H125148   1.042   0.754  28.681 -2.0344 -1.8719  0.0376
 1219TIP3    H225149   0.972   0.877  28.735  0.2399  0.0918 -1.2715
 1220TIP3   OH225150   0.030   0.854  11.400  0.1542 -0.1853 -0.1108
 1220TIP3    H125151  -0.013   0.907  11.468 -0.1899 -1.1388  0.4340
 1220TIP3    H225152   0.121   0.846  11.431 -0.1237 -1.0483  0.5234
 1221TIP3   OH225153   2.007   2.330  73.782  0.4257 -0.2766 -0.0360
 1221TIP3    H125154   2.045   2.342  73.695 -0.3324 -1.7776 -0.6020
 1221TIP3    H225155   1.991   2.419  73.814  4.0088  0.4948  0.1006
 1222TIP3   OH225156   0.086   2.234  43.708  0.1564 -0.3098  0.5439
 1222TIP3    H125157   0.046   2.171  43.649  2.3820 -2.2412  0.9380
 1222TIP3    H225158   0.136   2.292  43.651  0.2638 -0.6067  0.3311
 1223TIP3   OH225159   0.288   0.056  27.073 -0.0285 -0.1789  0.4050
 1223TIP3    H125160   0.347  -0.018  27.057  1.9519  1.1287  1.2989
 1223TIP3    H225161   0.290   0.068  27.168 -1.1572  0.3852  0.3689
 1224TIP3   OH225162   1.229   0.919   8.634  0.3079  0.5196  0.0379
 1224TIP3    H125163   1.184   0.972   8.700 -0.1972  0.2367 -0.0712
 1224TIP3    H225164   1.305   0.883   8.679  0.5021  1.1140  0.1899
 1225TIP3   OH225165   0.658   2.324  76.683  0.2921 -0.1429 -0.5687
 1225TIP3    H125166   0.625   2.261  76.618  0.9651 -1.2934  0.1738
 1225TIP3    H225167   0.611   2.303  76.763  0.4274  0.4006 -0.3436
 1226TIP3   OH225168   1.109   2.621  52.490  0.3914 -0.5277  0.9635
 1226TIP3    H125169   1.113   2.716  52.493 -0.0671 -0.3201 -1.9679
 1226TIP3    H225170   1.194   2.592  52.525  0.1820  0.8591  2.7524
 1227TIP3   OH225171   1.247   0.415  82.085 -0.3990  0.3637 -0.3269
 1227TIP3    H125172   1.157   0.392  82.062 -0.0673  0.3919 -1.7782
 1227TIP3    H225173   1.272   0.480  82.020  0.9054 -0.1681 -0.3812
 1228TIP3   OH225174   2.253   2.520  27.973 -0.1302 -0.3420 -0.1917
 1228TIP3    H125175   2.202   2.467  27.912  0.4811 -1.0074 -0.1303
 1228TIP3    H225176   2.190   2.543  28.042 -0.8153  0.3936 -1.0354
 1229TIP3   OH225177   0.078   2.668 103.180  0.2737 -0.7425  0.5041
 1229TIP3    H125178  -0.006   2.683 103.222  0.1803  2.1082 -0.5208
 1229TIP3    H225179   0.143   2.694 103.245  0.1600  2.2562 -0.4519
 1230TIP3   OH225180   2.142   1.915  46.909 -0.4378  0.0435 -0.3590
 1230TIP3    H125181   2.102   1.830  46.927  1.2555 -0.6581  0.2125
 1230TIP3    H225182   2.104   1.941  46.825 -1.1037 -1.1910 -0.4687
 1231TIP3   OH225183   0.579   0.725  18.073  0.5722 -0.2999 -0.1735
 1231TIP3    H125184   0.556   0.637  18.041  0.6556 -0.2128 -0.4728
 1231TIP3    H225185   0.674   0.724  18.082  0.7026  0.1405 -1.3319
 1232TIP3   OH225186   0.304   1.972  73.981 -0.3399  0.7276  0.5887
 1232TIP3    H125187   0.231   1.913  74.001 -1.6734  1.2545 -2.1877
 1232TIP3    H225188   0.291   2.047  74.039 -1.9232  0.7085  0.3026
 1233TIP3   OH225189   0.544   1.254   1.415  0.1704 -0.1859 -0.0839
 1233TIP3    H125190   0.471   1.200   1.384  0.2896  0.4101 -1.4722
 1233TIP3    H225191   0.620   1.196   1.410  0.0702 -0.3063 -0.2372
 1234TIP3   OH225192   0.177   2.234  23.570  0.0793  0.4811 -0.1143
 1234TIP3    H125193   0.210   2.291  23.500 -0.5859  0.3688 -0.5317
 1234TIP3    H225194   0.226   2.260  23.648  0.2913  1.1378 -0.4612
 1235TIP3   OH225195   1.631   1.836  34.222  0.2398 -0.0518 -0.0855
 1235TIP3    H125196   1.722   1.811  34.203  0.0980  1.4610 -3.3585
 1235TIP3    H225197   1.639   1.922  34.262  0.2534  0.5078 -1.2599
 1236TIP3   OH225198   0.799   1.432  89.514  0.0802 -0.0028 -0.0693
 1236TIP3    H125199   0.738   1.438  89.440  0.9948  0.4715 -0.8134
 1236TIP3    H225200   0.884   1.459  89.477  0.4625  0.7240  1.2657
 1237TIP3   OH225201   1.219   0.361  76.058  0.3688  0.3137 -0.0674
 1237TIP3    H125202   1.252   0.418  75.989 -0.2846  1.1382  0.2756
 1237TIP3    H225203   1.130   0.338  76.030  0.8390 -1.0510 -0.4930
 1238TIP3   OH225204   2.075   0.010   6.951  0.0004 -0.1398  0.6545
 1238TIP3    H125205   2.090  -0.065   7.009  2.7503  0.7252  1.2296
 1238TIP3    H225206   2.074  -0.028   6.863 -0.8271 -1.0847  1.0556
 1239TIP3   OH225207   1.275   0.608   9.293 -1.3051 -0.2307 -0.1672
 1239TIP3    H125208   1.351   0.560   9.261 -0.6385  1.3928 -1.1713
 1239TIP3    H225209   1.216   0.612   9.218 -1.6791 -0.1351  0.1304
 1240TIP3   OH225210   0.825   2.613   0.064 -0.2930 -0.3532  0.0744
 1240TIP3    H125211   0.829   2.706   0.040 -0.0654 -0.3205  0.2307
 1240TIP3    H225212   0.873   2.568  -0.005 -0.0889 -0.3141  0.1864
 1241TIP3   OH225213   2.133   1.189  10.237  0.9363 -0.4330  0.1509
 1241TIP3    H125214   2.143   1.280  10.266 -1.1116  0.5694 -1.9829
 1241TIP3    H225215   2.222   1.164  10.210  1.2759  1.5731 -0.8606
 1242TIP3   OH225216   0.024   0.815  15.360  0.1469 -0.0771 -0.0435
 1242TIP3    H125217  -0.008   0.882  15.299 -1.0527 -1.1387 -0.6250
 1242TIP3    H225218  -0.046   0.809  15.426  0.1293 -0.9166 -0.1357
 1243TIP3   OH225219   0.095   1.733  69.993 -0.3880  0.6839  0.2385
 1243TIP3    H125220   0.120   1.825  69.995 -0.5448  0.7278  0.1709
 1243TIP3    H225221   0.025   1.728  69.928  0.4657  0.3178 -0.6983
 1244TIP3   OH225222   1.706   2.658  95.861  0.3282 -0.4164 -0.4265
 1244TIP3    H125223   1.794   2.622  95.866  0.1467 -0.7254  0.8562
 1244TIP3    H225224   1.708   2.733  95.921 -0.2035 -0.2730 -0.5878
 1245TIP3   OH225225   2.431   1.601 102.465 -0.5088 -0.4853  0.0575
 1245TIP3    H125226   2.433   1.559 102.379 -0.0509  0.4352 -0.4024
 1245TIP3    H225227   2.519   1.637 102.477  0.0703 -2.3136  1.8093
 1246TIP3   OH225228   1.102   1.757  11.229 -0.0693  0.3472  0.2235
 1246TIP3    H125229   1.130   1.666  11.234 -1.3178 -0.0873 -0.3353
 1246TIP3    H225230   1.026   1.762  11.287 -0.4350  0.8674 -0.2933
 1247TIP3   OH225231   0.914   2.566  78.342 -0.3563  0.1418  0.1395
 1247TIP3    H125232   0.988   2.514  78.310 -0.6604 -0.6602  0.7024
 1247TIP3    H225233   0.907   2.639  78.280  1.2484  0.5375  0.3862
 1248TIP3   OH225234   0.154   1.398  80.413 -0.1952 -0.2013  0.0253
 1248TIP3    H125235   0.142   1.309  80.381  1.7199 -0.7224  0.6247
 1248TIP3    H225236   0.187   1.447  80.338 -1.6092  0.1366 -0.4030
 1249TIP3   OH225237   1.426   1.675   4.372  0.4719 -0.2473  0.4088
 1249TIP3    H125238   1.401   1.746   4.431  0.9522 -0.6838  1.1511
 1249TIP3    H225239   1.500   1.710   4.322 -0.0777  0.2018 -0.1176
 1250TIP3   OH225240   2.048   1.724  31.715  0.0592  0.2326  0.3557
 1250TIP3    H125241   2.065   1.744  31.623 -0.2902 -0.0420  0.2273
 1250TIP3    H225242   2.050   1.629  31.719  1.2412  0.2628  0.8679
 1251TIP3   OH225243   2.564   0.444  73.384  0.1952  0.8801 -0.3362
 1251TIP3    H125244   2.610   0.524  73.359 -0.3375  2.1901  2.5251
 1251TIP3    H225245   2.472   0.462  73.364  0.1347  0.7635 -0.1582
 1252TIP3   OH225246   1.131   0.440 110.604 -0.1017  0.1998 -0.6653
 1252TIP3    H125247   1.101   0.349 110.596  0.4480  0.0494 -1.1207
 1252TIP3    H225248   1.227   0.433 110.603 -0.0268  0.6558  0.8639
 1253TIP3   OH225249   1.235   0.310  85.316  0.1159 -0.7145 -0.2094
 1253TIP3    H125250   1.216   0.398  85.349 -0.0011 -1.3504  1.5297
 1253TIP3    H225251   1.154   0.261  85.329  0.2030 -1.1220 -1.0949
 1254TIP3   OH225252   1.498   1.581 108.394 -0.1007 -0.2004  0.0097
 1254TIP3    H125253   1.477   1.567 108.487  1.3542 -0.0987  0.3930
 1254TIP3    H225254   1.501   1.676 108.384 -1.6657 -0.1836 -0.5142
 1255TIP3   OH225255   2.600   0.428  18.984 -0.5097 -0.0107  0.1160
 1255TIP3    H125256   2.584   0.522  18.976 -1.5880 -0.0734  1.2493
 1255TIP3    H225257   2.536   0.388  18.925 -0.6253 -0.0607  0.2741
 1256TIP3   OH225258   1.492   2.611   3.564 -0.0133 -0.7861  0.1485
 1256TIP3    H125259   1.415   2.566   3.599 -1.0096  1.1609  0.5758
 1256TIP3    H225260   1.525   2.664   3.636 -0.1958  0.8516 -0.9128
 1257TIP3   OH225261   0.534   1.408   1.194 -0.0985  1.1930  0.1097
 1257TIP3    H125262   0.577   1.493   1.201  1.1338  0.6281 -0.2715
 1257TIP3    H225263   0.554   1.363   1.276  0.3129  0.8083 -0.1950
 1258TIP3   OH225264   2.383   0.599  36.931  0.5647 -0.2801 -0.3924
 1258TIP3    H125265   2.448   0.621  36.997 -0.0470  0.3165  0.0190
 1258TIP3    H225266   2.326   0.535  36.973 -0.8119  1.3014  0.2774
 1259TIP3   OH225267   1.669   1.784  99.704  0.8119  0.7452 -0.5694
 1259TIP3    H125268   1.748   1.737  99.678  0.5342  0.8887 -1.7429
 1259TIP3    H225269   1.604   1.758  99.639 -0.6322 -0.7002  1.3263
 1260TIP3   OH225270   1.562   1.273  90.997  0.2511 -0.3793  0.1103
 1260TIP3    H125271   1.626   1.316  91.054  2.1931 -1.4045 -1.2022
 1260TIP3    H225272   1.494   1.340  90.984  1.7432  1.2826  0.4044
 1261TIP3   OH225273   2.499   1.464 111.994  0.1193 -0.5741 -0.1181
 1261TIP3    H125274   2.470   1.504 111.912 -1.7490 -0.4305  0.5505
 1261TIP3    H225275   2.532   1.537 112.046 -1.3778 -0.1743  0.3181
 1262TIP3   OH225276   1.124   0.755  11.366 -0.2096 -0.4131 -0.0318
 1262TIP3    H125277   1.046   0.801  11.396 -0.5672 -0.2564 -1.1371
 1262TIP3    H225278   1.188   0.768  11.435 -1.2864 -0.8846  1.0833
 1263TIP3   OH225279   1.928   0.373   4.994  0.1322  0.1271 -0.4075
 1263TIP3    H125280   1.926   0.468   4.984 -0.0591  0.1665 -0.0126
 1263TIP3    H225281   2.022   0.352   5.001  0.1753  0.2829 -0.5163
 1264TIP3   OH225282   0.621   1.723  27.800  0.2100  0.0696 -0.0001
 1264TIP3    H125283   0.635   1.771  27.881  1.1401 -0.6559  0.2877
 1264TIP3    H225284   0.555   1.774  27.752 -0.8211  0.1746  1.4769
 1265TIP3   OH225285   0.461   2.184   5.802  0.4441  1.0531 -0.3101
 1265TIP3    H125286   0.535   2.142   5.845  0.8418  0.0480 -1.8720
 1265TIP3    H225287   0.386   2.161   5.856  0.7090 -1.3885 -0.8333
 1266TIP3   OH225288   1.810   2.184  94.180  0.0755  0.1338  0.1156
 1266TIP3    H125289   1.818   2.121  94.108  1.8475 -0.9644  1.2025
 1266TIP3    H225290   1.837   2.267  94.142  1.4717 -0.5196 -0.3846
 1267TIP3   OH225291   0.608   1.590  16.676 -0.1829 -0.0215  0.0797
 1267TIP3    H125292   0.597   1.612  16.768  0.4271 -0.4902  0.2704
 1267TIP3    H225293   0.681   1.529  16.674  1.9898  2.3912 -1.0290
 1268TIP3   OH225294   0.629   2.435  73.815  0.0670 -0.0494 -0.6321
 1268TIP3    H125295   0.566   2.364  73.831 -0.8754  1.2171  1.6925
 1268TIP3    H225296   0.576   2.508  73.784  0.6467  0.4736 -0.4166
 1269TIP3   OH225297   1.810   2.118  73.719 -0.0250  0.4396 -0.1984
 1269TIP3    H125298   1.866   2.194  73.734 -1.1853  0.9849  1.7789
 1269TIP3    H225299   1.858   2.045  73.757 -0.2224  0.7532  0.6874
 1270TIP3   OH225300   1.724   2.556  29.295  0.4956  0.2339 -0.3728
 1270TIP3    H125301   1.717   2.492  29.225  1.4257 -1.0888  0.6782
 1270TIP3    H225302   1.634   2.574  29.322  0.2424 -1.0813 -0.3098
 1271TIP3   OH225303   1.709   0.247  25.346 -0.1282  0.1757 -0.6242
 1271TIP3    H125304   1.737   0.301  25.420  1.3298  1.1340 -1.8181
 1271TIP3    H225305   1.652   0.181  25.385 -0.2773  1.3065  1.1859
 1272TIP3   OH225306   2.210   1.305  26.673  0.1202  0.1636  0.0867
 1272TIP3    H125307   2.147   1.377  26.669  0.8379  0.8830  1.1324
 1272TIP3    H225308   2.165   1.232  26.631 -0.8705  1.0379 -0.4360
 1273TIP3   OH225309   2.529   0.907   2.081 -0.2652 -0.3252  0.1595
 1273TIP3    H125310   2.582   0.954   2.017  0.0869 -0.8514  0.0583
 1273TIP3    H225311   2.479   0.976   2.126  1.6999  0.3943  1.3929
 1274TIP3   OH225312   0.772   1.944  84.556  0.2563 -0.1319 -0.3277
 1274TIP3    H125313   0.812   1.988  84.481 -0.4926  0.5603 -0.3363
 1274TIP3    H225314   0.827   1.969  84.630 -1.0211  2.2130 -0.0538
 1275TIP3   OH225315   2.149   0.039 102.086  0.1105  0.0173 -0.0955
 1275TIP3    H125316   2.180  -0.006 102.008 -0.3948  0.1132 -0.3529
 1275TIP3    H225317   2.130   0.128 102.058 -0.3134 -0.0167  0.0838
 1276TIP3   OH225318   1.531   1.531  22.617 -0.4386  0.4156 -0.5996
 1276TIP3    H125319   1.519   1.520  22.523  0.0357 -0.4162 -0.5721
 1276TIP3    H225320   1.612   1.484  22.636 -2.3698 -2.6217  0.7942
 1277TIP3   OH225321   1.240   0.186  36.259  0.0846 -0.0243 -0.3010
 1277TIP3    H125322   1.155   0.229  36.268  0.3059  0.0022  2.6327
 1277TIP3    H225323   1.245   0.128  36.335  2.2600 -0.8129 -0.9942
 1278TIP3   OH225324   0.876   1.499  35.276  0.1382  0.1192  0.2754
 1278TIP3    H125325   0.888   1.499  35.371  1.2988  0.5940  0.1314
 1278TIP3    H225326   0.964   1.493  35.240 -0.1930  1.2422 -0.7905
 1279TIP3   OH225327   2.332   2.150  92.778 -0.4181 -0.8331 -0.1752
 1279TIP3    H125328   2.391   2.093  92.729 -0.2173 -0.3700 -0.4827
 1279TIP3    H225329   2.265   2.175  92.714 -0.5722 -0.8174 -0.0068
 1280TIP3   OH225330   0.460   0.166  34.098 -0.3965  0.3169  0.3767
 1280TIP3    H125331   0.375   0.144  34.060 -1.7343  1.1354  2.6661
 1280TIP3    H225332   0.467   0.261  34.088 -0.5377  0.4773  1.5936
 1281TIP3   OH225333   1.773   1.143  80.644  0.7771  0.2956 -0.1329
 1281TIP3    H125334   1.751   1.134  80.737 -0.3468  0.6033 -0.3569
 1281TIP3    H225335   1.788   1.054  80.614  1.2165  0.1997  0.3561
 1282TIP3   OH225336   2.465   2.136  25.016  0.4225  0.0698  0.6264
 1282TIP3    H125337   2.415   2.203  25.063 -0.2904  0.0626 -0.1027
 1282TIP3    H225338   2.403   2.063  25.006 -0.0076  0.6713 -1.7334
 1283TIP3   OH225339   0.438   0.218  90.513  0.2520  0.5316 -0.0773
 1283TIP3    H125340   0.374   0.252  90.575  0.9842  0.5714  0.6635
 1283TIP3    H225341   0.517   0.202  90.565  0.4326 -0.7716 -0.7248
 1284TIP3   OH225342   2.596   1.549  29.356  0.0331  0.1610 -0.0555
 1284TIP3    H125343   2.536   1.596  29.412 -1.0118  0.0554 -1.0581
 1284TIP3    H225344   2.545   1.527  29.278  1.1524 -0.5791 -0.6142
 1285TIP3   OH225345   1.914   0.978  32.131  0.0733  0.2968  0.5419
 1285TIP3    H125346   1.992   0.983  32.186 -0.7733  0.7198  1.7514
 1285TIP3    H225347   1.841   0.989  32.192 -1.0419 -2.0434 -0.2653
 1286TIP3   OH225348   2.040   2.399  22.210  0.0377  0.5829  0.0211
 1286TIP3    H125349   2.092   2.399  22.130 -1.0314  0.2434 -0.6874
 1286TIP3    H225350   1.950   2.384  22.181  0.0155 -3.4931  1.5228
 1287TIP3   OH225351   0.755   0.414  92.572  0.2833 -0.2758 -0.1987
 1287TIP3    H125352   0.796   0.351  92.631 -0.1151  0.7119  1.2077
 1287TIP3    H225353   0.791   0.499  92.600 -1.4907  0.4464  0.0442
 1288TIP3   OH225354   2.359   2.023 105.629  0.1711 -0.0524 -0.1490
 1288TIP3    H125355   2.283   1.989 105.677 -1.1438 -0.3856 -2.3176
 1288TIP3    H225356   2.329   2.029 105.538  1.6257  3.0806 -0.5813
 1289TIP3   OH225357   0.554   0.949   0.818  0.0862 -0.2450 -0.1997
 1289TIP3    H125358   0.596   0.973   0.735  0.1566  0.4824  0.0380
 1289TIP3    H225359   0.464   0.981   0.810  0.2168  0.2305  0.1722
 1290TIP3   OH225360   0.673   0.007  20.189  0.5959  0.1302  0.7462
 1290TIP3    H125361   0.690  -0.029  20.276  0.5510 -0.2109  0.6137
 1290TIP3    H225362   0.618   0.084  20.204 -0.5624 -0.7217  0.9093
 1291TIP3   OH225363   0.098   1.419  93.431  0.1069  0.2847 -0.1643
 1291TIP3    H125364   0.112   1.469  93.512 -1.0941  0.6856 -0.1787
 1291TIP3    H225365   0.078   1.485  93.365  3.0724  0.1812 -1.3550
 1292TIP3   OH225366   1.034   2.484 101.295 -0.0217  0.0923  0.4760
 1292TIP3    H125367   0.954   2.531 101.318  0.0625  0.2737  0.4056
 1292TIP3    H225368   1.103   2.550 101.303  0.3417 -0.4379  2.0234
 1293TIP3   OH225369   2.065   2.288  26.646 -0.0239  0.3211 -0.0606
 1293TIP3    H125370   2.028   2.230  26.713 -0.1368 -1.8764 -1.8963
 1293TIP3    H225371   2.048   2.376  26.679 -1.5560 -0.6411  1.9941
 1294TIP3   OH225372   0.881   0.343  82.489  0.5123 -0.3254  0.6557
 1294TIP3    H125373   0.954   0.337  82.550 -0.6419 -0.2407  2.1088
 1294TIP3    H225374   0.878   0.435  82.463  1.3949 -0.4863 -0.0259
 1295TIP3   OH225375   2.611   0.851   8.299  0.1529  0.3477 -0.9213
 1295TIP3    H125376   2.620   0.756   8.309  0.5165  0.4896  0.3362
 1295TIP3    H225377   2.701   0.884   8.301  0.0621  0.6722 -1.9707
 1296TIP3   OH225378   0.551   2.196  93.444 -0.2178 -0.5400  0.8433
 1296TIP3    H125379   0.480   2.173  93.384 -0.5813 -1.2006  1.5126
 1296TIP3    H225380   0.621   2.229  93.387 -1.2950  0.7780  0.2295
 1297TIP3   OH225381   1.266   1.567  80.800  0.5111 -0.3068  0.4078
 1297TIP3    H125382   1.247   1.478  80.831  0.7521 -0.5611 -0.1459
 1297TIP3    H225383   1.257   1.622  80.877  0.7356 -0.8686  0.8462
 1298TIP3   OH225384   1.505   0.087  14.176 -0.1902 -0.4117 -0.4928
 1298TIP3    H125385   1.478   0.112  14.088  0.6326  1.2998 -0.3095
 1298TIP3    H225386   1.600   0.098  14.176 -0.2857  0.6384  0.8785
 1299TIP3   OH225387   1.707   0.669  32.328  0.1723  0.0938  0.2404
 1299TIP3    H125388   1.763   0.677  32.251 -0.0671 -0.7065 -0.0291
 1299TIP3    H225389   1.753   0.717  32.397  0.7759  0.1530 -0.1960
 1300TIP3   OH225390   2.009   0.503  93.201 -0.4595 -0.2593  0.1842
 1300TIP3    H125391   2.061   0.426  93.176  1.2013  0.5252  1.0530
 1300TIP3    H225392   2.056   0.577  93.163 -1.8427  0.3851 -0.3374
 1301TIP3   OH225393   2.511   2.516  27.327 -0.0183  0.7430  0.6234
 1301TIP3    H125394   2.593   2.486  27.289 -0.1696  0.4102  0.5618
 1301TIP3    H225395   2.444   2.487  27.265 -0.0807  2.1259  0.0070
 1302TIP3   OH225396   2.246   1.641 107.179  0.0245 -0.5278  0.0191
 1302TIP3    H125397   2.312   1.670 107.116  0.8768 -0.8832  0.7298
 1302TIP3    H225398   2.181   1.711 107.179  0.8470  0.2589 -0.0357
 1303TIP3   OH225399   1.945   0.132  88.490  0.6966  0.1519  0.3987
 1303TIP3    H125400   1.852   0.149  88.498  0.1617 -2.4170  0.5136
 1303TIP3    H225401   1.984   0.218  88.474 -1.9853  0.9721 -2.8292
 1304TIP3   OH225402   1.857   0.348  99.813  0.0471  0.4023  0.4565
 1304TIP3    H125403   1.896   0.262  99.797 -0.1961  0.1220  1.3121
 1304TIP3    H225404   1.931   0.409  99.806  0.4473 -0.0083  0.9820
 1305TIP3   OH225405   1.921   0.945  89.493  0.2456  0.2833 -0.3620
 1305TIP3    H125406   1.910   0.964  89.586 -0.5065  0.7352 -0.5319
 1305TIP3    H225407   1.831   0.936  89.459  0.5174 -2.8417 -0.4835
 1306TIP3   OH225408   0.307   1.789  28.135 -0.3986 -0.0909  0.1220
 1306TIP3    H125409   0.275   1.817  28.050 -0.3477  0.6427  0.3384
 1306TIP3    H225410   0.228   1.778  28.189 -0.3581  0.6077  0.3248
 1307TIP3   OH225411   0.929   0.041  32.292 -0.1709 -0.5599 -0.1112
 1307TIP3    H125412   0.977  -0.023  32.345  0.0592  0.2467  0.6800
 1307TIP3    H225413   0.947   0.125  32.334 -0.0448  0.1027 -1.4213
 1308TIP3   OH225414   0.025   2.633  83.776  0.5945 -0.1961  0.2066
 1308TIP3    H125415  -0.004   2.714  83.734 -0.7742 -0.0715  1.3143
 1308TIP3    H225416  -0.008   2.564  83.719  1.6229 -0.0162 -0.6542
 1309TIP3   OH225417   0.539   0.329  31.415 -0.2428 -0.1431  0.3146
 1309TIP3    H125418   0.504   0.296  31.498 -0.4390 -2.0473 -0.4664
 1309TIP3    H225419   0.617   0.380  31.440 -0.4445 -0.4681  1.6798
 1310TIP3   OH225420   1.374   1.827  97.136  0.1383  0.2637 -0.3056
 1310TIP3    H125421   1.369   1.872  97.220  1.1845  0.6246 -0.4273
 1310TIP3    H225422   1.348   1.737  97.155  0.5081  0.3081  0.4337
 1311TIP3   OH225423   2.166   2.398  96.233  0.6291  0.4137  0.5312
 1311TIP3    H125424   2.173   2.339  96.158  0.0143  0.8134  0.1455
 1311TIP3    H225425   2.173   2.341  96.309  1.0513 -0.0266  0.1715
 1312TIP3   OH225426   1.237   0.686 108.380 -0.6103 -0.5605  0.1771
 1312TIP3    H125427   1.300   0.615 108.368 -0.0559 -0.2388  1.0586
 1312TIP3    H225428   1.236   0.701 108.475 -1.3643  0.0246  0.0826
 1313TIP3   OH225429   0.155   1.052   9.854  0.0318  0.2373 -0.0042
 1313TIP3    H125430   0.084   1.049   9.919 -1.1186  0.8867 -1.1917
 1313TIP3    H225431   0.153   1.141   9.820  0.6479 -0.0767 -0.8955
 1314TIP3   OH225432   0.251   0.511  79.722  0.4816  0.3365 -0.2651
 1314TIP3    H125433   0.228   0.507  79.630  0.7678  0.7140 -0.3556
 1314TIP3    H225434   0.218   0.429  79.759  0.4216  0.1581 -0.7150
 1315TIP3   OH225435   1.167   1.931  82.908 -0.1352 -0.0887 -0.3640
 1315TIP3    H125436   1.177   1.931  83.004  2.3631 -1.6110 -0.5583
 1315TIP3    H225437   1.159   2.023  82.885  4.0633  0.8372  0.9927
 1316TIP3   OH225438   0.587   1.224  17.319 -0.5987  0.2310  0.4025
 1316TIP3    H125439   0.656   1.158  17.318 -0.8286 -0.0553 -1.9321
 1316TIP3    H225440   0.522   1.190  17.380 -0.6525 -1.6978 -0.6529
 1317TIP3   OH225441   1.497   0.696  73.596  0.3106  0.0448 -0.2176
 1317TIP3    H125442   1.453   0.780  73.581 -1.5855 -0.9006 -0.1840
 1317TIP3    H225443   1.555   0.686  73.521 -0.3998  0.7932 -0.8882
 1318TIP3   OH225444   1.426   2.684   9.764  0.3624 -0.3796 -0.4015
 1318TIP3    H125445   1.338   2.686   9.802 -0.5269 -0.4188 -2.3187
 1318TIP3    H225446   1.451   2.777   9.760  0.9030 -0.4351  1.1518
 1319TIP3   OH225447   2.535   1.957  90.347  0.3214 -0.0194  0.4109
 1319TIP3    H125448   2.486   1.931  90.269 -1.1694 -2.0200  1.9080
 1319TIP3    H225449   2.620   1.913  90.337  0.3536  0.1914 -0.3292
 1320TIP3   OH225450   0.067   0.435  10.787 -0.6332  0.4367 -0.0050
 1320TIP3    H125451   0.002   0.455  10.720 -0.3042  1.6961  0.0249
 1320TIP3    H225452   0.065   0.340  10.795 -1.7020  0.3801 -0.7665
 1321TIP3   OH225453   2.397   2.428  86.972  0.4274 -0.4103 -0.1575
 1321TIP3    H125454   2.434   2.400  86.889  0.6890 -1.6434  0.3609
 1321TIP3    H225455   2.445   2.509  86.993  1.4304 -0.9030 -0.4662
 1322TIP3   OH225456   1.876   0.745  35.608 -0.7288  0.0643 -0.2012
 1322TIP3    H125457   1.806   0.696  35.565  1.2352 -2.5614 -0.6633
 1322TIP3    H225458   1.859   0.734  35.701 -1.7619  0.7907 -0.2861
 1323TIP3   OH225459   0.331   0.336  26.209 -0.1103 -0.2600 -0.3156
 1323TIP3    H125460   0.309   0.422  26.243 -0.0270 -0.7824  1.1579
 1323TIP3    H225461   0.427   0.333  26.212 -0.1532 -0.8922  0.9877
 1324TIP3   OH225462   1.027   1.188  77.831 -0.2561 -0.0895  0.1589
 1324TIP3    H125463   1.088   1.190  77.757  0.2054  1.2921  0.5654
 1324TIP3    H225464   1.047   1.267  77.881 -2.0071  0.0988  0.6041
 1325TIP3   OH225465   1.354   2.496  22.698  0.1787 -0.1807 -0.0416
 1325TIP3    H125466   1.273   2.446  22.703  0.3103 -0.2707  1.5733
 1325TIP3    H225467   1.423   2.430  22.702  0.3586 -0.0985 -1.3168
 1326TIP3   OH225468   2.373   2.176  86.581  0.1934  0.1389  0.3459
 1326TIP3    H125469   2.292   2.181  86.632 -0.2091  0.4264 -0.2999
 1326TIP3    H225470   2.425   2.250  86.610  0.7330 -0.7020  1.5990
 1327TIP3   OH225471   2.071   0.645   6.489  0.7318  0.0575 -0.1702
 1327TIP3    H125472   2.091   0.563   6.442 -1.0715 -0.8095  0.4621
 1327TIP3    H225473   2.049   0.707   6.420  1.3775 -0.2069 -0.6254
 1328TIP3   OH225474   1.661   0.239  92.670  0.1924 -0.3069  0.2605
 1328TIP3    H125475   1.658   0.236  92.766 -0.6021  0.2759  0.2705
 1328TIP3    H225476   1.719   0.167  92.645 -0.6481 -1.3045  1.1188
 1329TIP3   OH225477   1.095   0.840  10.262  0.6112  0.6158  0.1340
 1329TIP3    H125478   1.107   0.890  10.181  0.4060  0.8710  0.2579
 1329TIP3    H225479   1.065   0.905  10.326 -1.6373  0.0223 -0.2083
 1330TIP3   OH225480   2.072   2.068  95.614 -0.4304 -0.1652 -0.1062
 1330TIP3    H125481   2.102   2.033  95.530  0.8210  0.5172  0.0402
 1330TIP3    H225482   2.150   2.107  95.654 -1.2596  0.6003  0.8408
 1331TIP3   OH225483   2.516   2.549  25.073  0.0472 -0.3603 -0.3252
 1331TIP3    H125484   2.434   2.534  25.025  0.0689 -1.4789 -0.0396
 1331TIP3    H225485   2.585   2.527  25.010  0.0804 -1.5557  0.1051
 1332TIP3   OH225486   2.023   0.480  25.416  0.2320  0.6174  0.2425
 1332TIP3    H125487   2.036   0.385  25.416 -1.7787  0.0954 -4.3006
 1332TIP3    H225488   2.109   0.516  25.394  0.6969 -0.2271  0.6102
 1333TIP3   OH225489   2.551   0.535  82.290 -0.0101 -0.3863  0.2695
 1333TIP3    H125490   2.483   0.598  82.263  0.7012  0.7582  1.0357
 1333TIP3    H225491   2.607   0.527  82.213 -0.1913 -0.1833  0.1109
 1334TIP3   OH225492   0.819   2.253  98.987  0.0373  0.6206 -0.1548
 1334TIP3    H125493   0.774   2.308  98.922 -0.8910  0.1404  0.0765
 1334TIP3    H225494   0.807   2.164  98.955  0.3892  0.4477  0.1887
 1335TIP3   OH225495   0.008   2.597  78.774  0.1564  0.0970 -0.3931
 1335TIP3    H125496  -0.016   2.674  78.722  1.1563 -0.6838 -2.1005
 1335TIP3    H225497   0.102   2.608  78.791  0.5993 -1.3069 -1.7322
 1336TIP3   OH225498   1.432   0.960   6.369  0.4354 -0.6638 -0.0197
 1336TIP3    H125499   1.497   0.962   6.440 -0.3366 -1.7236  0.7440
 1336TIP3    H225500   1.353   0.999   6.408  0.4236  0.0950 -0.7661
 1337TIP3   OH225501   1.714   1.879 110.987 -0.3170  0.7052  0.3399
 1337TIP3    H125502   1.659   1.922 111.053  0.2131 -0.5776  1.6698
 1337TIP3    H225503   1.803   1.909 111.007 -0.0250 -0.4707  0.8846
 1338TIP3   OH225504   0.644   0.639  58.192  0.2906 -0.2870 -0.2255
 1338TIP3    H125505   0.641   0.554  58.235 -2.8531 -1.4993 -2.5158
 1338TIP3    H225506   0.669   0.700  58.262  1.0820 -2.8259  1.8597
 1339TIP3   OH225507   0.895   0.456  74.102 -0.1589  0.2677  0.7767
 1339TIP3    H125508   0.933   0.388  74.157 -1.2553 -1.6699 -0.7328
 1339TIP3    H225509   0.883   0.414  74.017 -2.0355  1.9539  0.1325
 1340TIP3   OH225510   2.495   1.919   1.837  0.3018  0.4169 -0.3191
 1340TIP3    H125511   2.458   1.978   1.903 -0.4428  1.3391 -1.5195
 1340TIP3    H225512   2.545   1.976   1.779  1.6804 -0.4999 -0.0982
 1341TIP3   OH225513   1.525   1.656  51.641 -0.0638 -0.5489  0.3020
 1341TIP3    H125514   1.495   1.740  51.676 -1.3961  0.6870 -3.3178
 1341TIP3    H225515   1.620   1.658  51.652 -0.0911  1.3053  0.5838
 1342TIP3   OH225516   1.132   1.682  98.050  0.2732 -0.3571  0.6168
 1342TIP3    H125517   1.174   1.713  97.971  0.0718  3.9781  1.9394
 1342TIP3    H225518   1.160   1.743  98.118 -3.1281 -1.0319  2.8960
 1343TIP3   OH225519   2.462   2.451 111.572 -0.1246 -0.2651  0.0673
 1343TIP3    H125520   2.418   2.396 111.507 -0.3929 -1.2788  1.0585
 1343TIP3    H225521   2.551   2.416 111.576  0.6304  1.3342 -1.4233
 1344TIP3   OH225522   0.443   1.569  86.915  0.3969  0.0266  0.1650
 1344TIP3    H125523   0.515   1.522  86.956 -0.2760 -0.5063  0.7506
 1344TIP3    H225524   0.377   1.502  86.897 -0.0337  0.5355 -0.2096
 1345TIP3   OH225525   0.354   1.440  17.264  0.2598 -0.0298 -0.5161
 1345TIP3    H125526   0.419   1.379  17.229  1.2278  0.9023 -0.4104
 1345TIP3    H225527   0.336   1.409  17.353  0.8624 -0.0686 -0.4055
 1346TIP3   OH225528   2.294   0.307   0.181  0.0968  0.2104  0.3099
 1346TIP3    H125529   2.368   0.248   0.168 -0.2033 -0.2090  0.4664
 1346TIP3    H225530   2.313   0.353   0.263  1.1952  1.6529 -0.7026
 1347TIP3   OH225531   0.125   2.282  33.142  0.0088  0.3099 -0.0254
 1347TIP3    H125532   0.100   2.357  33.196  0.3026  0.7771 -0.5221
 1347TIP3    H225533   0.159   2.217  33.203  1.5588  1.3285  0.2329
 1348TIP3   OH225534   0.094   1.606  19.398 -0.0996 -0.8849  0.2047
 1348TIP3    H125535   0.121   1.535  19.456  1.0050 -0.7955 -0.1869
 1348TIP3    H225536   0.150   1.597  19.321 -0.7322 -0.2733 -0.3467
 1349TIP3   OH225537   0.934   1.570  15.758  0.5055 -0.0367 -0.2126
 1349TIP3    H125538   0.997   1.500  15.744 -0.0885 -0.9320  1.3324
 1349TIP3    H225539   0.852   1.536  15.723 -0.1932 -0.9072  2.0644
 1350TIP3   OH225540   0.688   0.371   1.022 -0.0244 -0.2264 -0.8089
 1350TIP3    H125541   0.746   0.297   1.004  0.9157 -0.7351  3.2324
 1350TIP3    H225542   0.746   0.438   1.058 -1.6300 -0.2663  2.1813
 1351TIP3   OH225543   0.736   1.503  91.076  0.2120  0.2099 -0.2518
 1351TIP3    H125544   0.783   1.578  91.041 -0.9549  0.6345 -0.9493
 1351TIP3    H225545   0.682   1.538  91.147  1.3519 -0.3773  0.9573
 1352TIP3   OH225546   1.497   1.419  11.302 -0.5468  0.1928 -0.3597
 1352TIP3    H125547   1.508   1.511  11.324  0.9008  0.0828 -0.5528
 1352TIP3    H225548   1.534   1.371  11.376  1.0159 -0.1857 -1.3265
 1353TIP3   OH225549   1.687   0.929  35.412 -0.1763 -0.0014 -0.1538
 1353TIP3    H125550   1.661   0.843  35.379 -1.5188 -0.4511  1.9475
 1353TIP3    H225551   1.679   0.923  35.507 -1.1110  2.6842  0.0301
 1354TIP3   OH225552   0.242   1.466  79.112  0.6596 -0.5116  0.1523
 1354TIP3    H125553   0.173   1.519  79.153  1.4282 -0.3778  1.3298
 1354TIP3    H225554   0.210   1.376  79.118  0.1475 -0.3606 -0.2193
 1355TIP3   OH225555   0.649   2.555 106.807 -0.5017 -1.0292 -0.0214
 1355TIP3    H125556   0.638   2.485 106.871 -0.9969 -0.2664  0.7553
 1355TIP3    H225557   0.740   2.582 106.815 -0.5032 -1.0898  0.1994
 1356TIP3   OH225558   2.398   2.608   7.481 -0.1905  0.4196  0.0944
 1356TIP3    H125559   2.407   2.703   7.470 -0.6518  0.6131  1.2915
 1356TIP3    H225560   2.457   2.586   7.553 -0.3313 -0.1595  0.0366
 1357TIP3   OH225561   1.624   2.190  27.301 -0.6943 -0.4331 -0.2891
 1357TIP3    H125562   1.700   2.175  27.357  0.4832  0.5675 -1.5372
 1357TIP3    H225563   1.555   2.135  27.338  0.4486 -0.8846  1.2587
 1358TIP3   OH225564   1.510   0.020  80.668  0.0942  0.3572  0.4428
 1358TIP3    H125565   1.548   0.082  80.607 -1.1087  0.0637 -0.6467
 1358TIP3    H225566   1.480   0.074  80.742 -0.1285  0.9580 -0.0798
 1359TIP3   OH225567   1.909   2.410  15.158  0.0881 -0.3530  0.3791
 1359TIP3    H125568   1.947   2.402  15.070 -1.5440 -1.7250 -0.2519
 1359TIP3    H225569   1.815   2.397  15.145 -0.4705  1.5412  2.0699
 1360TIP3   OH225570   1.626   2.271  15.179  0.2995 -0.2824 -0.1420
 1360TIP3    H125571   1.594   2.304  15.094  0.2953  0.1702  0.0336
 1360TIP3    H225572   1.581   2.187  15.190  0.6418 -0.5611 -0.7964
 1361TIP3   OH225573   1.669   0.897   8.502 -0.2513 -0.1481  0.3772
 1361TIP3    H125574   1.635   0.893   8.413 -0.1482 -0.3718  0.3494
 1361TIP3    H225575   1.653   0.988   8.529  1.0856  0.3491 -0.4029
 1362TIP3   OH225576   2.502   0.987  93.781  0.2937  0.2094 -0.0111
 1362TIP3    H125577   2.465   0.898  93.781  0.5017  0.0726 -1.8285
 1362TIP3    H225578   2.521   1.004  93.689 -0.1160  2.3198  0.2535
 1363TIP3   OH225579   0.689   2.362 108.717 -0.9053  0.1555 -0.3631
 1363TIP3    H125580   0.681   2.396 108.806  0.6430 -0.0194 -0.1157
 1363TIP3    H225581   0.759   2.416 108.678 -0.8219 -0.4823 -1.0991
 1364TIP3   OH225582   0.010   1.439  29.665  0.5795 -0.4325 -0.3077
 1364TIP3    H125583  -0.042   1.519  29.673  1.0868  0.2244 -2.6861
 1364TIP3    H225584  -0.048   1.369  29.692 -0.7849  0.5034 -0.7066
 1365TIP3   OH225585   0.568   1.453   6.307  0.4639 -0.5310 -0.3199
 1365TIP3    H125586   0.619   1.403   6.243  0.9387 -1.7246  0.9443
 1365TIP3    H225587   0.624   1.527   6.329  0.5685 -0.4623 -0.7988
 1366TIP3   OH225588   1.666   2.262  16.351  0.3332  0.1905 -0.0992
 1366TIP3    H125589   1.706   2.192  16.402  1.7996  1.7893  1.0854
 1366TIP3    H225590   1.577   2.232  16.333  0.5730 -1.4873  1.2773
 1367TIP3   OH225591   2.118   0.627  12.726  0.0056  0.1426  0.0638
 1367TIP3    H125592   2.040   0.638  12.781 -1.2151  1.2798 -1.7916
 1367TIP3    H225593   2.146   0.537  12.743 -1.3402 -0.1006  1.2509
 1368TIP3   OH225594   1.536   0.748 110.500  0.5598  1.0393  0.0243
 1368TIP3    H125595   1.488   0.747 110.583  0.6366  0.2041  0.0616
 1368TIP3    H225596   1.628   0.741 110.525  0.5867  0.8472 -0.1233
 1369TIP3   OH225597   0.621   0.466  34.232 -0.0930  0.1829 -0.5922
 1369TIP3    H125598   0.642   0.443  34.322 -0.7850  0.5224 -0.3355
 1369TIP3    H225599   0.648   0.390  34.181 -0.9288 -0.5787  0.0662
 1370TIP3   OH225600   1.471   0.845 102.994 -0.0838 -0.2465 -0.1140
 1370TIP3    H125601   1.388   0.834 103.040  0.8618 -2.8705  1.2031
 1370TIP3    H225602   1.530   0.882 103.061  0.7006 -1.8847  0.1489
 1371TIP3   OH225603   1.323   2.619 101.081  0.3210 -0.3968 -0.3894
 1371TIP3    H125604   1.287   2.536 101.051  3.6437 -1.4466 -1.9068
 1371TIP3    H225605   1.339   2.669 101.001  0.3908  0.8484  0.3669
 1372TIP3   OH225606   0.752   0.348  78.941 -0.2810  0.1148  0.0585
 1372TIP3    H125607   0.662   0.346  78.973 -0.6312 -1.1198 -0.9133
 1372TIP3    H225608   0.757   0.277  78.877  0.9723  1.1018 -1.0206
 1373TIP3   OH225609   2.016   2.378  41.585 -0.4443  0.1102 -0.9077
 1373TIP3    H125610   1.953   2.317  41.547 -1.7485  2.0457 -2.0341
 1373TIP3    H225611   1.967   2.425  41.652  0.0654  0.9783 -1.1177
 1374TIP3   OH225612   0.673   2.236  96.309  0.5851  0.1793 -0.0045
 1374TIP3    H125613   0.617   2.290  96.253  0.9316  0.1240 -0.4101
 1374TIP3    H225614   0.615   2.167  96.341  0.9992 -1.4470 -2.5167
 1375TIP3   OH225615   2.149   1.185  99.810  0.1627  0.2578  0.2883
 1375TIP3    H125616   2.221   1.195  99.748  0.2041 -1.1084  0.0840
 1375TIP3    H225617   2.124   1.093  99.802 -1.5699  0.6911  0.3920
 1376TIP3   OH225618   2.087   1.163  38.135  0.9422 -0.2288 -0.7257
 1376TIP3    H125619   2.135   1.233  38.091  2.2904 -0.1034  0.8459
 1376TIP3    H225620   2.150   1.091  38.142  0.6344 -0.3929  0.5627
 1377TIP3   OH225621   2.062   0.221  16.655 -0.6900 -0.7095 -0.0925
 1377TIP3    H125622   2.045   0.225  16.749  1.2227  1.5198  0.2581
 1377TIP3    H225623   2.021   0.301  16.620  2.5773  1.0760 -0.2754
 1378TIP3   OH225624   1.527   0.063  84.995  0.1283 -0.0882  0.2988
 1378TIP3    H125625   1.535   0.158  84.994  0.6718 -0.0949  1.7863
 1378TIP3    H225626   1.613   0.032  85.022  0.1409 -1.0519 -0.7701
 1379TIP3   OH225627   0.348   0.875 101.327 -0.3703  0.7344  0.3675
 1379TIP3    H125628   0.322   0.798 101.276 -1.1276  0.5109  1.0571
 1379TIP3    H225629   0.319   0.855 101.416  0.2128  1.4521  0.7265
 1380TIP3   OH225630   0.905   0.205   6.751 -0.1977 -0.1064 -0.5387
 1380TIP3    H125631   0.840   0.169   6.691 -0.0953 -0.5113 -0.4133
 1380TIP3    H225632   0.986   0.208   6.700  0.1568 -1.4886 -0.1202
 1381TIP3   OH225633   0.719   2.065  33.089 -0.0713  0.6915  0.2014
 1381TIP3    H125634   0.712   2.125  33.015  1.0088 -0.9390 -1.2864
 1381TIP3    H225635   0.796   2.096  33.137  0.8625  0.1857 -0.9120
 1382TIP3   OH225636   2.292   1.161 101.022  0.2738  0.7408 -0.1356
 1382TIP3    H125637   2.347   1.095 101.065  0.2564  1.1139  0.4686
 1382TIP3    H225638   2.204   1.125 101.027  0.0925  1.2863  1.1920
 1383TIP3   OH225639   2.664   0.320  97.439  0.2610 -0.3115  0.4035
 1383TIP3    H125640   2.751   0.310  97.401  0.0748 -0.7351  0.0657
 1383TIP3    H225641   2.647   0.236  97.482  0.2826  0.0023  1.0362
 1384TIP3   OH225642   2.148   1.880   5.808  0.2431  0.1533 -0.0816
 1384TIP3    H125643   2.190   1.903   5.891 -0.8784  1.4892  0.1414
 1384TIP3    H225644   2.173   1.951   5.748 -0.4085  0.1369 -0.3769
 1385TIP3   OH225645   1.124   0.303  81.812  0.3279 -0.6323  0.5749
 1385TIP3    H125646   1.203   0.355  81.827 -0.4591  0.9023 -0.3509
 1385TIP3    H225647   1.063   0.331  81.880 -0.0999 -0.3403  0.0809
 1386TIP3   OH225648   1.997   0.730  87.830 -0.0850  0.1239 -0.1118
 1386TIP3    H125649   1.997   0.664  87.761  0.7420  0.2195 -0.2169
 1386TIP3    H225650   1.929   0.701  87.891  0.9396 -1.4008  0.3625
 1387TIP3   OH225651   1.738   1.842  91.568 -0.0107  0.7074 -0.0398
 1387TIP3    H125652   1.703   1.773  91.513  0.8611  0.7978 -0.7394
 1387TIP3    H225653   1.804   1.885  91.513 -0.4049  1.9714  0.4483
 1388TIP3   OH225654   1.534   1.560 109.748 -0.2804  0.0448 -0.3011
 1388TIP3    H125655   1.484   1.629 109.791  0.3439 -0.2458  0.9525
 1388TIP3    H225656   1.619   1.600 109.728  0.2755 -0.4575  0.9054
 1389TIP3   OH225657   1.678   2.080  81.799 -0.4494  0.1468 -0.5714
 1389TIP3    H125658   1.661   2.147  81.733 -0.8344 -0.6767 -1.3371
 1389TIP3    H225659   1.673   1.997  81.751 -0.5810 -0.4663  0.4568
 1390TIP3   OH225660   0.618   2.446  34.494 -0.4504  0.0334 -0.0088
 1390TIP3    H125661   0.587   2.529  34.530 -0.7940 -0.1896  0.2060
 1390TIP3    H225662   0.713   2.448  34.508 -0.5269  0.1345  0.5215
 1391TIP3   OH225663   2.566   0.659  20.536 -0.2979 -0.2107  0.0371
 1391TIP3    H125664   2.655   0.679  20.565 -0.6493  1.2357  0.2466
 1391TIP3    H225665   2.533   0.597  20.601  1.0472 -1.9923 -0.9111
 1392TIP3   OH225666   1.049   0.596  28.532 -0.1271  0.5982 -0.2097
 1392TIP3    H125667   1.101   0.524  28.497 -2.1581 -0.8273 -0.4542
 1392TIP3    H225668   1.103   0.674  28.518  1.8428 -0.7671 -0.5595
 1393TIP3   OH225669   2.558   2.430 104.325  0.0223 -0.5352 -0.1142
 1393TIP3    H125670   2.566   2.525 104.317  0.4250 -0.6473 -1.2373
 1393TIP3    H225671   2.551   2.399 104.234  0.2273 -1.6042  0.2279
 1394TIP3   OH225672   2.280   1.028  24.923  0.2922  0.2162  0.0280
 1394TIP3    H125673   2.364   0.988  24.943  0.1625  0.8404  2.0727
 1394TIP3    H225674   2.215   0.973  24.967  0.0152  1.8402  1.8096
 1395TIP3   OH225675   1.524   0.048  84.689 -0.6854  0.4684  0.3436
 1395TIP3    H125676   1.590   0.050  84.758 -0.5306 -2.0171  0.3597
 1395TIP3    H225677   1.441   0.037  84.735 -0.9966  2.0985  0.2468
 1396TIP3   OH225678   1.326   1.694  13.409 -0.7222 -0.0077 -0.2776
 1396TIP3    H125679   1.328   1.699  13.504  0.1213 -1.0323 -0.2124
 1396TIP3    H225680   1.331   1.600  13.390 -0.7415  0.1902 -1.3306
 1397TIP3   OH225681   1.341   1.171 111.293  0.4857  0.0433  0.3010
 1397TIP3    H125682   1.374   1.099 111.346  0.8351 -1.3422 -1.6870
 1397TIP3    H225683   1.412   1.188 111.230  0.2037  1.8113  0.4076
 1398TIP3   OH225684   2.646   0.330 108.501  0.4548 -0.0427 -0.3436
 1398TIP3    H125685   2.638   0.304 108.592 -1.0902 -0.5721 -0.6078
 1398TIP3    H225686   2.663   0.424 108.504 -1.6842  0.3717  0.4745
 1399TIP3   OH225687   0.220   0.513   9.459  0.0393 -0.4853  0.6129
 1399TIP3    H125688   0.264   0.572   9.397 -0.2021  0.8937  1.6946
 1399TIP3    H225689   0.213   0.430   9.412 -0.6879  0.6493 -1.4634
 1400TIP3   OH225690   1.768   1.973  26.642  0.2732  0.0840  0.4402
 1400TIP3    H125691   1.719   1.903  26.686 -1.1243  0.5287 -0.3542
 1400TIP3    H225692   1.708   2.006  26.576  1.2908  1.3687  0.1262
 1401TIP3   OH225693   0.982   1.737  78.238 -0.9546 -0.5941 -0.7428
 1401TIP3    H125694   0.898   1.693  78.242 -1.4980  0.4874  0.1746
 1401TIP3    H225695   1.014   1.737  78.329  0.1894 -1.2646 -1.1173
 1402TIP3   OH225696   1.346   1.076  76.375  0.2697  0.0499  0.4794
 1402TIP3    H125697   1.307   1.063  76.289 -1.4775 -1.2991  1.4069
 1402TIP3    H225698   1.365   1.170  76.378  0.5731  0.0953 -1.4292
 1403TIP3   OH225699   1.903   2.675  11.186  0.4889 -0.3277 -0.2097
 1403TIP3    H125700   1.978   2.729  11.213  0.0870 -0.3293  0.9791
 1403TIP3    H225701   1.925   2.587  11.216  0.1780 -0.4008 -0.1904
 1404TIP3   OH225702   2.540   0.949  15.181  0.3465 -0.2801  0.5242
 1404TIP3    H125703   2.567   0.954  15.090  0.5426  0.0490  0.5966
 1404TIP3    H225704   2.466   0.888  15.181  0.3176 -0.2495  0.1394
 1405TIP3   OH225705   2.383   2.669  96.148  0.1670 -0.8907  0.5246
 1405TIP3    H125706   2.298   2.643  96.182  0.1400 -0.3050  0.9006
 1405TIP3    H225707   2.423   2.720  96.218  0.4747 -0.4299  0.0196
 1406TIP3   OH225708   1.074   2.386 106.791  0.3379  0.2561  0.6274
 1406TIP3    H125709   1.019   2.463 106.799 -0.2063 -0.1716  1.0373
 1406TIP3    H225710   1.062   2.357 106.700  1.2386  1.1552  0.2034
 1407TIP3   OH225711   2.357   1.305   0.679  0.1499  0.4592  0.2514
 1407TIP3    H125712   2.385   1.367   0.612  1.3487  1.5372  1.6890
 1407TIP3    H225713   2.343   1.358   0.757  1.0363 -1.0406  1.4842
 1408TIP3   OH225714   2.530   1.706  35.776  0.3224 -0.1003 -0.0694
 1408TIP3    H125715   2.583   1.679  35.701 -0.2475  1.7018 -1.1703
 1408TIP3    H225716   2.443   1.669  35.758 -0.4062  2.0972 -1.4804
 1409TIP3   OH225717   1.887   0.407  90.775 -0.9084  0.0942 -0.0125
 1409TIP3    H125718   1.891   0.421  90.680 -0.2524  2.8824  0.3188
 1409TIP3    H225719   1.969   0.362  90.796  0.1816  1.7349 -0.5287
 1410TIP3   OH225720   2.306   1.544 104.118  0.1301  0.1701  1.2599
 1410TIP3    H125721   2.218   1.556 104.082 -0.2939 -1.5600  1.6179
 1410TIP3    H225722   2.342   1.632 104.124 -1.4120  0.8715  0.6799
 1411TIP3   OH225723   2.260   1.649   3.813  0.6476 -0.0054  0.2898
 1411TIP3    H125724   2.192   1.646   3.880 -0.8532  2.0636 -1.0152
 1411TIP3    H225725   2.293   1.739   3.817  1.4495 -0.2323 -0.8728
 1412TIP3   OH225726   1.542   0.933   7.729  0.2622 -0.5396 -0.1989
 1412TIP3    H125727   1.599   0.912   7.803  1.0446 -1.0084 -0.9068
 1412TIP3    H225728   1.461   0.886   7.746 -0.4182  1.0918  1.4294
 1413TIP3   OH225729   0.343   1.218  28.391 -0.1193 -0.2978  0.6537
 1413TIP3    H125730   0.352   1.197  28.484  3.2079  0.1007  0.5579
 1413TIP3    H225731   0.426   1.189  28.352 -2.0321 -1.9925 -2.5599
 1414TIP3   OH225732   2.640   2.551 108.578  0.1014 -0.2042 -0.0917
 1414TIP3    H125733   2.643   2.477 108.638  0.1130 -1.0598 -1.1150
 1414TIP3    H225734   2.549   2.581 108.581  0.1819 -0.0113  0.6042
 1415TIP3   OH225735   2.059   1.335  97.696  0.1513 -0.2569  0.3264
 1415TIP3    H125736   2.121   1.408  97.699  0.1249 -0.2206 -0.0628
 1415TIP3    H225737   2.066   1.295  97.783 -0.8548  1.0503  1.0476
 1416TIP3   OH225738   1.287   1.989  31.427  0.0186 -0.3453 -0.2708
 1416TIP3    H125739   1.365   1.946  31.394  1.9789  1.4444  1.7349
 1416TIP3    H225740   1.302   1.999  31.521 -2.0691  1.1462 -0.0260
 1417TIP3   OH225741   0.406   0.236  37.404 -0.0689 -0.4510 -0.3242
 1417TIP3    H125742   0.476   0.179  37.372  0.5973 -0.9119  1.7827
 1417TIP3    H225743   0.384   0.201  37.490 -1.6436  0.8060 -0.1644
 1418TIP3   OH225744   0.835   1.002   1.626 -0.1113  0.3657  0.4488
 1418TIP3    H125745   0.863   1.074   1.682  1.0769 -0.2573  0.7063
 1418TIP3    H225746   0.906   0.992   1.563  0.4909 -1.5367  1.3610
 1419TIP3   OH225747   0.415   0.007  16.635 -0.2842  0.6817 -0.2382
 1419TIP3    H125748   0.510  -0.000  16.630 -0.0833  1.3250  1.8084
 1419TIP3    H225749   0.393   0.078  16.574  0.6396  1.0991 -0.0948
 1420TIP3   OH225750   1.268   1.463  16.702 -0.4359  0.0017  0.4000
 1420TIP3    H125751   1.176   1.456  16.676 -0.7514  0.4826  1.3538
 1420TIP3    H225752   1.307   1.380  16.674 -1.2337 -0.3486  0.2938
 1421TIP3   OH225753   1.197   0.006   8.896  0.4773  0.2544 -0.1250
 1421TIP3    H125754   1.271   0.049   8.854  0.0134  1.0831 -0.1181
 1421TIP3    H225755   1.125   0.068   8.887  0.4526  0.6876  2.2371
 1422TIP3   OH225756   1.327   1.194  97.032 -0.3113  0.0787  0.0010
 1422TIP3    H125757   1.420   1.176  97.017 -0.3606  0.2593 -0.5525
 1422TIP3    H225758   1.286   1.184  96.946 -0.7478  0.3398  0.1690
 1423TIP3   OH225759   0.461   0.652  68.269 -0.6661 -0.2153 -0.4353
 1423TIP3    H125760   0.463   0.576  68.327  0.2227 -0.6899 -1.0588
 1423TIP3    H225761   0.551   0.683  68.266 -0.7649  0.0241 -1.2735
 1424TIP3   OH225762   1.538   1.843  73.762  0.6697  0.4198 -0.0515
 1424TIP3    H125763   1.473   1.898  73.719 -0.8341 -1.5037 -0.3872
 1424TIP3    H225764   1.562   1.891  73.841 -2.1644  0.6412  0.7833
 1425TIP3   OH225765   1.681   1.581 103.946  0.0166  0.7293  0.1486
 1425TIP3    H125766   1.750   1.632 103.902  0.2168 -0.1434 -0.5793
 1425TIP3    H225767   1.608   1.581 103.884  0.2660 -0.4349 -0.1639
 1426TIP3   OH225768   0.285   2.104 105.232  0.0638 -0.0266  0.4417
 1426TIP3    H125769   0.251   2.016 105.251  0.4278 -0.3274 -0.2687
 1426TIP3    H225770   0.215   2.147 105.184 -0.6016  0.5124  1.8245
 1427TIP3   OH225771   1.230   1.221 102.971  0.4659 -0.3404 -0.4121
 1427TIP3    H125772   1.299   1.240 103.034  0.9930 -0.9268 -0.8061
 1427TIP3    H225773   1.275   1.210 102.888 -0.2716  0.9134 -1.0068
 1428TIP3   OH225774   1.540   2.262  81.637 -0.0093 -0.1615  0.9596
 1428TIP3    H125775   1.511   2.316  81.711  0.2036 -0.0614  0.9670
 1428TIP3    H225776   1.490   2.296  81.562 -1.5257 -1.3831  1.3575
 1429TIP3   OH225777   1.509   1.648 103.758 -0.5238 -0.0878 -0.5101
 1429TIP3    H125778   1.462   1.586 103.702 -0.8252  0.3199 -0.7126
 1429TIP3    H225779   1.585   1.675 103.707 -1.6994  1.6039 -1.4699
 1430TIP3   OH225780   1.042   1.769  13.395 -0.4146  0.0404  0.1673
 1430TIP3    H125781   1.087   1.829  13.455 -0.8082 -0.1545  0.6727
 1430TIP3    H225782   1.050   1.683  13.437 -0.1813 -0.1990 -0.3634
 1431TIP3   OH225783   1.863   1.791 101.561  0.0780 -0.6070 -0.2459
 1431TIP3    H125784   1.880   1.736 101.485  1.0538  1.3846 -1.5756
 1431TIP3    H225785   1.856   1.730 101.635  1.6027 -2.4241 -1.5179
 1432TIP3   OH225786   1.520   0.069  77.588 -0.1646  0.3109 -0.0020
 1432TIP3    H125787   1.615   0.080  77.597  0.0194 -0.9517 -0.2932
 1432TIP3    H225788   1.498   0.116  77.507  0.0992  1.1650  0.4183
 1433TIP3   OH225789   2.625   0.069  15.557 -0.1333 -0.1309 -0.0777
 1433TIP3    H125790   2.661   0.129  15.492  0.5796 -0.1957  0.2370
 1433TIP3    H225791   2.629   0.118  15.639  1.0585 -0.8006  0.3008
 1434TIP3   OH225792   0.898   0.060  74.467 -0.0524  0.4862  0.6785
 1434TIP3    H125793   0.993   0.051  74.472 -0.1704 -1.4929  0.1678
 1434TIP3    H225794   0.876   0.036  74.377 -1.0534  1.0057  0.7717
 1435TIP3   OH225795   0.446   1.394  22.144  0.1379 -0.1493 -0.4673
 1435TIP3    H125796   0.459   1.312  22.191 -3.6348 -0.5125  0.2375
 1435TIP3    H225797   0.358   1.386  22.106  0.0436  3.1666 -1.2145
 1436TIP3   OH225798   1.952   1.626  92.397 -0.7349 -0.3412 -0.1598
 1436TIP3    H125799   2.006   1.703  92.413 -3.3411  1.5660  0.2105
 1436TIP3    H225800   1.909   1.609  92.481 -1.8881 -0.7892 -0.8144
 1437TIP3   OH225801   1.507   1.642   6.368 -0.2491 -0.1194  0.5173
 1437TIP3    H125802   1.546   1.722   6.402 -0.0403  0.1250 -0.2854
 1437TIP3    H225803   1.428   1.671   6.322 -0.4720 -0.4345  0.6914
 1438TIP3   OH225804   1.135   2.368  68.357  0.8107 -0.2260 -0.1984
 1438TIP3    H125805   1.162   2.304  68.291  1.1124  0.6592 -0.9770
 1438TIP3    H225806   1.151   2.325  68.441 -1.0435 -1.9812 -0.6748
 1439TIP3   OH225807   1.120   0.046  83.014  0.2727  0.4753  0.0301
 1439TIP3    H125808   1.034   0.033  83.053  1.0665 -0.7864  1.5054
 1439TIP3    H225809   1.135   0.140  83.019 -0.7793  0.6443  0.2655
 1440TIP3   OH225810   0.030   1.267  12.990  0.5570  0.1660  0.2771
 1440TIP3    H125811  -0.060   1.290  13.014  0.8186 -0.2712  1.7997
 1440TIP3    H225812   0.024   1.238  12.899 -0.7066  0.8272  0.1235
 1441TIP3   OH225813   2.560   2.096  10.470 -0.3496  0.3281  0.4484
 1441TIP3    H125814   2.467   2.113  10.454 -0.0396  0.2783 -1.6352
 1441TIP3    H225815   2.595   2.069  10.385  1.4006 -0.5245  1.3854
 1442TIP3   OH225816   2.500   0.158  69.358 -0.0205  0.0076 -0.2746
 1442TIP3    H125817   2.486   0.071  69.320  1.5806 -0.1018 -0.7054
 1442TIP3    H225818   2.523   0.214  69.283  1.6238  0.1509  0.2848
 1443TIP3   OH225819   1.862   0.261  87.614  0.7316  0.0737  0.2825
 1443TIP3    H125820   1.914   0.230  87.688  3.0976 -0.8045 -1.6044
 1443TIP3    H225821   1.857   0.186  87.555 -2.4349  0.2635  0.1521
 1444TIP3   OH225822   0.806   2.053  27.296 -0.0733  0.0514  0.1439
 1444TIP3    H125823   0.852   2.107  27.360  0.5986 -0.8155  0.4048
 1444TIP3    H225824   0.739   2.111  27.260  1.0086  1.2408 -0.0119
 1445TIP3   OH225825   1.667   0.639  87.686  0.0637 -0.0668  0.2604
 1445TIP3    H125826   1.587   0.682  87.715 -1.1086 -0.3039 -2.3097
 1445TIP3    H225827   1.733   0.709  87.686 -0.5635  0.5318  0.8442
 1446TIP3   OH225828   2.197   2.037 111.097 -0.0298  0.1632 -0.1349
 1446TIP3    H125829   2.160   2.040 111.185 -0.7785 -0.6474 -0.4051
 1446TIP3    H225830   2.121   2.039 111.039  0.4657  0.9436 -0.7811
 1447TIP3   OH225831   0.093   0.719  29.844  0.5569 -0.3261 -0.0348
 1447TIP3    H125832   0.122   0.630  29.867 -0.9057 -0.7184  0.4434
 1447TIP3    H225833   0.017   0.734  29.901 -1.1644 -0.0188 -2.2719
 1448TIP3   OH225834   1.805   1.960  35.532  0.3095  0.3833 -0.5867
 1448TIP3    H125835   1.827   1.899  35.603 -0.1191  0.6557 -0.2153
 1448TIP3    H225836   1.881   2.017  35.525  0.7619 -0.2479 -1.0037
 1449TIP3   OH225837   2.665   1.685  79.992 -0.8759  0.2301 -0.6014
 1449TIP3    H125838   2.598   1.739  80.035 -2.2397 -0.6103 -1.6161
 1449TIP3    H225839   2.748   1.723  80.021 -1.7616  1.0067  1.0775
 1450TIP3   OH225840   0.251   0.376 109.269 -0.6060  0.1711 -0.3348
 1450TIP3    H125841   0.317   0.445 109.275  1.1311 -1.4559  0.5811
 1450TIP3    H225842   0.183   0.401 109.331 -0.1993  1.2229 -0.2999
 1451TIP3   OH225843   1.064   2.040  34.115 -0.7061 -0.1873 -0.4341
 1451TIP3    H125844   1.089   1.978  34.184 -0.0139  0.6513  0.0871
 1451TIP3    H225845   0.978   2.009  34.086 -0.8331 -0.8043  0.5277
 1452TIP3   OH225846   2.327   0.377  96.563 -0.8835 -0.1887 -0.1657
 1452TIP3    H125847   2.292   0.447  96.619  0.2177 -0.0126  0.3386
 1452TIP3    H225848   2.269   0.375  96.487 -1.9521  0.1013  0.6169
 1453TIP3   OH225849   1.330   1.996   0.925 -0.2792 -0.3218 -0.5679
 1453TIP3    H125850   1.419   2.028   0.913 -0.0573 -1.3951 -1.9718
 1453TIP3    H225851   1.274   2.065   0.890 -0.1014  0.8202  1.2547
 1454TIP3   OH225852   1.297   0.991   3.988  0.6531  0.1973  0.6155
 1454TIP3    H125853   1.262   1.078   4.006 -0.8009 -0.0814 -0.6877
 1454TIP3    H225854   1.373   0.984   4.046  0.2868  1.9758  1.3918
 1455TIP3   OH225855   0.613   2.077  90.526  0.1790  0.2999 -0.2546
 1455TIP3    H125856   0.622   1.997  90.578 -1.5259  0.5868  0.5510
 1455TIP3    H225857   0.587   2.046  90.439 -1.9889 -0.0186  0.4532
 1456TIP3   OH225858   0.937   2.136  26.910 -0.5050  0.2590 -0.1793
 1456TIP3    H125859   0.845   2.127  26.887 -0.4079 -2.6842  0.2196
 1456TIP3    H225860   0.940   2.123  27.005  0.2344  1.4029 -0.0242
 1457TIP3   OH225861   2.557   1.641  94.416 -0.3283  0.0253 -0.7754
 1457TIP3    H125862   2.532   1.733  94.427  1.8036  0.8934 -2.4675
 1457TIP3    H225863   2.550   1.625  94.322  1.0601 -0.9812 -0.7436
 1458TIP3   OH225864   1.285   1.537 104.175 -0.3028  0.2292 -0.2520
 1458TIP3    H125865   1.326   1.484 104.243 -1.3250 -0.1758  0.0725
 1458TIP3    H225866   1.191   1.523 104.188 -0.5969  2.0130 -0.2461
 1459TIP3   OH225867   1.842   1.448  34.408 -0.3833 -0.8109  0.0146
 1459TIP3    H125868   1.777   1.501  34.454 -1.1410 -0.9948 -0.8170
 1459TIP3    H225869   1.796   1.367  34.385  0.4331 -1.3670  0.2891
 1460TIP3   OH225870   0.440   0.835 108.666  0.4894  0.1796  0.0544
 1460TIP3    H125871   0.483   0.761 108.623 -1.2352 -0.1250 -1.2604
 1460TIP3    H225872   0.373   0.863 108.604  0.4199  2.2085  0.9584
 1461TIP3   OH225873   1.352   1.725  88.634 -0.4034 -1.0966  0.6889
 1461TIP3    H125874   1.408   1.802  88.633 -0.6659 -0.8869 -1.0679
 1461TIP3    H225875   1.412   1.651  88.626 -0.2790 -0.9502  0.2488
 1462TIP3   OH225876   2.645   0.418  74.118  0.2364  0.6497  0.4377
 1462TIP3    H125877   2.713   0.443  74.180  2.1406  1.5405 -1.8992
 1462TIP3    H225878   2.593   0.497  74.106 -1.3255 -0.0272  2.2126
 1463TIP3   OH225879   0.680   1.341  18.905  0.5261  0.1584  0.4430
 1463TIP3    H125880   0.631   1.423  18.905  2.3001  1.2786  0.8683
 1463TIP3    H225881   0.677   1.311  18.814  0.5953  1.1712  0.0920
 1464TIP3   OH225882   0.309   1.942  96.331 -0.1158 -0.5832  0.0071
 1464TIP3    H125883   0.400   1.934  96.358  0.3240  0.8880 -0.8960
 1464TIP3    H225884   0.309   1.912  96.240 -0.1729  0.9797 -0.5340
 1465TIP3   OH225885   1.116   2.332  88.293  0.9816  0.4107  0.1775
 1465TIP3    H125886   1.203   2.362  88.320  1.0540  0.8336 -0.5004
 1465TIP3    H225887   1.057   2.365  88.361  1.2878  0.5229  0.3948
 1466TIP3   OH225888   2.588   0.391  88.889  0.1044 -0.2049  0.3035
 1466TIP3    H125889   2.555   0.328  88.952  0.6750  0.9625  1.8336
 1466TIP3    H225890   2.517   0.455  88.879  0.4860  0.3048  0.7712
 1467TIP3   OH225891   1.650   1.171  86.448 -0.2446  0.4517  0.0384
 1467TIP3    H125892   1.614   1.099  86.500 -1.0915  0.8986  0.0777
 1467TIP3    H225893   1.579   1.234  86.442 -0.5689 -0.0656 -2.6108
 1468TIP3   OH225894   1.485   1.664  12.634 -0.0340 -0.2548 -0.5463
 1468TIP3    H125895   1.533   1.593  12.591  0.0562 -0.9914  0.7063
 1468TIP3    H225896   1.551   1.708  12.689 -0.5230 -0.5382  0.2875
 1469TIP3   OH225897   1.492   0.203  81.923 -0.5589 -0.1437 -0.7263
 1469TIP3    H125898   1.439   0.126  81.904  0.5703 -1.0093 -0.5134
 1469TIP3    H225899   1.480   0.218  82.017  0.1872 -0.8400 -0.5092
 1470TIP3   OH225900   1.908   0.192 101.560 -0.3949  0.0466  0.0059
 1470TIP3    H125901   1.928   0.177 101.652 -0.9850  1.9348  0.4736
 1470TIP3    H225902   1.956   0.122 101.514  1.1498 -0.0283  1.6153
 1471TIP3   OH225903   0.303   0.700  77.023 -0.0045 -1.2989  0.4230
 1471TIP3    H125904   0.270   0.707  77.112 -0.4539 -1.1173  0.2454
 1471TIP3    H225905   0.252   0.631  76.982 -0.8642 -0.3602 -0.1543
 1472TIP3   OH225906   1.116   2.549  80.362 -0.1526  0.2856 -0.1636
 1472TIP3    H125907   1.124   2.462  80.323  0.0378  0.6974 -1.0557
 1472TIP3    H225908   1.170   2.544  80.441  0.0443 -0.3364 -0.3266
 1473TIP3   OH225909   2.159   1.540   7.956  0.0855  0.0941  0.0927
 1473TIP3    H125910   2.165   1.614   7.896  0.8453  0.5608  0.7269
 1473TIP3    H225911   2.151   1.580   8.042 -0.8776 -0.5700  0.3261
 1474TIP3   OH225912   2.586   2.417  23.376  0.0084  0.3278  0.3730
 1474TIP3    H125913   2.600   2.367  23.456  1.3234 -1.5999 -0.9894
 1474TIP3    H225914   2.637   2.372  23.310 -0.3619  2.3551 -1.4041
 1475TIP3   OH225915   2.103   2.136   9.280  0.2014 -0.3852 -0.0790
 1475TIP3    H125916   2.074   2.213   9.328 -0.9334  0.5323 -2.0912
 1475TIP3    H225917   2.171   2.169   9.221  0.9296 -1.3015  0.2198
 1476TIP3   OH225918   2.051   1.406  74.663  0.2926 -0.1745 -0.4543
 1476TIP3    H125919   1.976   1.395  74.603  0.5978 -0.6823 -0.7558
 1476TIP3    H225920   2.109   1.334  74.640  0.4760 -0.2881  0.3735
 1477TIP3   OH225921   0.986   1.146  73.269 -0.0857  0.5832 -0.0831
 1477TIP3    H125922   0.893   1.153  73.249  0.1035  2.8952 -0.4854
 1477TIP3    H225923   0.998   1.200  73.347  0.2603 -3.2839  2.8281
 1478TIP3   OH225924   2.230   1.862  27.772 -0.3069  0.0330 -0.1270
 1478TIP3    H125925   2.205   1.788  27.827 -0.7317  1.2560  1.3862
 1478TIP3    H225926   2.152   1.877  27.718 -0.4063 -0.3029 -0.0836
 1479TIP3   OH225927   0.929   2.075  18.613 -0.4200 -0.7476  0.1366
 1479TIP3    H125928   0.870   2.064  18.688 -1.0014  0.0269 -0.1859
 1479TIP3    H225929   0.992   2.004  18.621 -0.1377 -0.3729  1.6692
 1480TIP3   OH225930   1.974   1.257   2.534 -0.1160 -0.5698  0.1068
 1480TIP3    H125931   2.001   1.166   2.545  0.3950 -0.4362 -0.0009
 1480TIP3    H225932   2.022   1.305   2.601  0.8338 -0.1621 -0.8339
 1481TIP3   OH225933   2.311   1.048  98.995 -0.2371 -0.1064 -0.0536
 1481TIP3    H125934   2.351   1.046  99.082 -0.5823 -1.8350  0.0895
 1481TIP3    H225935   2.358   0.983  98.945  0.7243  1.6558 -1.5696
 1482TIP3   OH225936   0.473   0.646  11.650  0.0962 -0.4721 -0.4502
 1482TIP3    H125937   0.411   0.573  11.656  0.3167 -0.7997 -1.8176
 1482TIP3    H225938   0.545   0.612  11.598  0.2105  0.7182 -1.1067
 1483TIP3   OH225939   0.797   2.421  20.583 -0.1008 -0.2666 -0.2305
 1483TIP3    H125940   0.712   2.402  20.545 -0.3776  0.5976 -0.0717
 1483TIP3    H225941   0.856   2.357  20.543 -0.6771 -0.3728 -0.9401
 1484TIP3   OH225942   2.464   2.514  28.188 -0.5457 -0.0363  0.1231
 1484TIP3    H125943   2.553   2.505  28.154 -0.2796 -1.2817  1.0558
 1484TIP3    H225944   2.408   2.509  28.110  0.1209 -1.3197 -0.3175
 1485TIP3   OH225945   0.856   0.010  84.553 -0.5928  0.3377 -0.3488
 1485TIP3    H125946   0.881   0.099  84.527  1.3791 -0.5313 -1.6271
 1485TIP3    H225947   0.887   0.002  84.643 -1.0686  1.0291 -0.1048
 1486TIP3   OH225948   0.670   2.426  91.935  0.3881  0.2062  0.2157
 1486TIP3    H125949   0.702   2.378  91.859  1.4282 -0.2216  0.8943
 1486TIP3    H225950   0.578   2.401  91.943  0.3067  0.1473 -0.8001
 1487TIP3   OH225951   2.185   0.440  95.678  0.2016  0.4340 -0.0413
 1487TIP3    H125952   2.109   0.410  95.727  0.6440  0.4874  0.6897
 1487TIP3    H225953   2.227   0.359  95.647  0.7315  0.3294  0.9220
 1488TIP3   OH225954   2.009   0.147  99.698 -0.5449  0.2096  0.7486
 1488TIP3    H125955   2.002   0.196  99.617 -0.9187 -0.8922  0.0996
 1488TIP3    H225956   2.098   0.110  99.696 -0.6363 -0.0090  0.7274
 1489TIP3   OH225957   1.448   0.780  99.979 -0.1057  0.6778  0.5333
 1489TIP3    H125958   1.362   0.821  99.975  0.1906  1.3303  0.8300
 1489TIP3    H225959   1.503   0.842 100.026  1.1037  1.2776 -1.5523
 1490TIP3   OH225960   2.445   1.918  34.378 -0.0802  0.2848  0.0514
 1490TIP3    H125961   2.435   1.992  34.437 -0.8445  2.2141 -2.3157
 1490TIP3    H225962   2.432   1.841  34.433 -1.6293  1.9679  2.2081
 1491TIP3   OH225963   1.979   2.591   8.496 -0.3794  0.6342 -0.3100
 1491TIP3    H125964   2.053   2.546   8.537 -0.2309  0.6093 -0.6075
 1491TIP3    H225965   2.016   2.671   8.460 -0.7804  1.3736  0.8638
 1492TIP3   OH225966   2.395   1.249 109.996 -0.0836  0.3060 -0.0705
 1492TIP3    H125967   2.411   1.182 109.930 -1.2833  0.1166 -0.1822
 1492TIP3    H225968   2.379   1.329 109.946 -1.5387  0.0492 -0.0612
 1493TIP3   OH225969   0.471   1.708  76.277  0.4520  0.1944  0.6015
 1493TIP3    H125970   0.559   1.690  76.243  0.3405  0.6222  0.0846
 1493TIP3    H225971   0.486   1.730  76.369  0.6107 -2.3504  1.2641
 1494TIP3   OH225972   0.810   0.621  53.169  0.2781  0.0921  0.1705
 1494TIP3    H125973   0.887   0.644  53.119  0.3326  0.9823  0.6497
 1494TIP3    H225974   0.737   0.628  53.106  0.3441  1.1984  0.2022
 1495TIP3   OH225975   0.099   1.503  36.172  0.1930  0.4323 -0.3876
 1495TIP3    H125976   0.117   1.585  36.125  1.1716 -1.2676 -3.2209
 1495TIP3    H225977   0.004   1.496  36.171  0.1070  1.4327 -0.3069
 1496TIP3   OH225978   2.527   2.600  67.270 -0.9583  0.2584 -0.4691
 1496TIP3    H125979   2.527   2.607  67.366  0.2685  0.8119 -0.4935
 1496TIP3    H225980   2.472   2.524  67.252  2.7511 -3.1683  0.9743
 1497TIP3   OH225981   2.059   0.260  16.194  0.7257 -0.0187 -0.0533
 1497TIP3    H125982   2.127   0.294  16.137  0.1257 -0.3918 -1.0305
 1497TIP3    H225983   2.024   0.336  16.240  0.5864  0.4255 -0.8931
 1498TIP3   OH225984   0.919   2.526  73.989  0.0512 -0.2441 -0.2638
 1498TIP3    H125985   0.873   2.610  73.997 -0.6942 -0.5459 -1.1885
 1498TIP3    H225986   1.004   2.550  73.951 -0.0318  0.1320 -0.2188
 1499TIP3   OH225987   1.157   0.207   6.142 -0.4686 -0.2789 -0.7134
 1499TIP3    H125988   1.218   0.257   6.087  1.6603 -0.6860  1.1641
 1499TIP3    H225989   1.195   0.120   6.147 -0.8367 -0.3747  1.0144
 1500TIP3   OH225990   1.538   0.215  13.622  0.0682 -0.4346 -0.3630
 1500TIP3    H125991   1.477   0.180  13.557 -1.4998  2.6747 -0.7626
 1500TIP3    H225992   1.571   0.296  13.582  1.8507 -0.2852  1.2812
 1501TIP3   OH225993   1.765   0.694  89.935 -0.1678  0.0563  0.3970
 1501TIP3    H125994   1.725   0.777  89.911 -1.1991  0.1815  2.3665
 1501TIP3    H225995   1.829   0.716  90.003  2.4532 -0.3149 -1.7685
 1502TIP3   OH225996   0.866   0.095  15.739 -0.0307 -0.0796 -0.7039
 1502TIP3    H125997   0.915   0.167  15.779 -1.7551  0.3255  0.8225
 1502TIP3    H225998   0.895   0.017  15.786 -1.0990  0.2169  0.4859
 1503TIP3   OH225999   1.116   1.187  98.129  0.7128 -0.4571 -0.1737
 1503TIP3    H126000   1.150   1.100  98.152  0.9305 -0.5881 -0.9601
 1503TIP3    H226001   1.083   1.177  98.040  2.8062  0.8261 -1.1569
 1504TIP3   OH226002   2.007   1.279  98.277  0.0863 -0.0953  0.0960
 1504TIP3    H126003   1.945   1.321  98.335  0.8697 -0.8512  1.5356
 1504TIP3    H226004   2.035   1.348  98.217 -0.9250  0.6344  0.4463
 1505TIP3   OH226005   1.691   0.653   8.625 -0.3125 -0.5169  0.6070
 1505TIP3    H126006   1.607   0.611   8.607 -0.3769 -0.5135  0.8953
 1505TIP3    H226007   1.696   0.725   8.563  0.6901 -2.1293 -1.3310
 1506TIP3   OH226008   2.399   1.015 103.752 -0.0435  0.0568 -0.0535
 1506TIP3    H126009   2.364   1.060 103.828  0.2982  0.3170 -0.0449
 1506TIP3    H226010   2.485   1.056 103.738  0.5748 -1.0400  0.3625
 1507TIP3   OH226011   1.421   0.237 100.149  0.1785  0.3980 -0.6970
 1507TIP3    H126012   1.331   0.266 100.164  0.5437  0.6023  1.3786
 1507TIP3    H226013   1.454   0.296 100.081 -0.3346  2.4006  0.6685
 1508TIP3   OH226014   0.758   1.048 106.169 -0.0213 -0.2903 -0.0665
 1508TIP3    H126015   0.802   1.079 106.248 -0.2035 -0.5962  0.1563
 1508TIP3    H226016   0.710   0.970 106.197 -2.7876  1.4242  0.3030
 1509TIP3   OH226017   2.556   1.328 101.850  0.0325 -0.7431  0.0877
 1509TIP3    H126018   2.492   1.257 101.857  0.9363 -1.7140 -1.1191
 1509TIP3    H226019   2.526   1.379 101.775 -0.8056  0.3802  1.1530
 1510TIP3   OH226020   1.973   0.399  91.559  0.2542 -0.4178  0.2364
 1510TIP3    H126021   2.035   0.455  91.606  1.3016 -2.1423  1.0074
 1510TIP3    H226022   1.914   0.460  91.515  0.7593  1.2756  1.7850
 1511TIP3   OH226023   0.849   2.145  14.424 -0.0618 -0.7430  0.3815
 1511TIP3    H126024   0.769   2.092  14.422  0.3086 -1.2992 -0.6726
 1511TIP3    H226025   0.822   2.230  14.389  0.0080 -1.2466 -0.9435
 1512TIP3   OH226026   0.279   0.731  98.587 -0.2177 -0.0164 -0.6639
 1512TIP3    H126027   0.201   0.782  98.610  0.5938  0.9159  0.0894
 1512TIP3    H226028   0.337   0.742  98.662 -0.3750 -2.8472 -0.0233
 1513TIP3   OH226029   1.493   0.948  96.606  0.8265  0.4147  0.0914
 1513TIP3    H126030   1.514   0.857  96.582  0.2904  0.9152 -2.6704
 1513TIP3    H226031   1.548   0.966  96.682  0.8268 -2.2593  0.8229
 1514TIP3   OH226032   0.068   0.238  98.474  0.6558  1.0389 -0.3768
 1514TIP3    H126033   0.053   0.332  98.472  0.7962  1.0526 -1.2749
 1514TIP3    H226034  -0.010   0.200  98.433  0.6907  0.7790 -0.2032
 1515TIP3   OH226035   1.392   2.452   5.506  0.6301  0.2319 -0.1486
 1515TIP3    H126036   1.473   2.465   5.554  0.4999  0.4117  0.0227
 1515TIP3    H226037   1.390   2.522   5.441 -0.0557  1.0740  0.7541
 1516TIP3   OH226038   1.927   0.140 103.602 -0.5141 -0.1284 -0.3262
 1516TIP3    H126039   2.008   0.189 103.587  0.0019 -1.0926 -0.8224
 1516TIP3    H226040   1.924   0.126 103.697 -1.4016  2.0404  0.0157
 1517TIP3   OH226041   1.591   1.897 108.694 -0.0050  0.0507 -0.3209
 1517TIP3    H126042   1.600   1.972 108.752 -0.2028  0.0084 -0.2306
 1517TIP3    H226043   1.563   1.826 108.751 -0.1944  0.0061 -0.4624
 1518TIP3   OH226044   1.927   1.735  87.802 -0.4713  0.0975 -0.9877
 1518TIP3    H126045   1.948   1.646  87.774  0.0682 -0.3994  0.8817
 1518TIP3    H226046   1.896   1.778  87.722 -2.0166 -2.1352 -1.6997
 1519TIP3   OH226047   2.648   2.213  95.817  0.0713  0.2118 -0.3600
 1519TIP3    H126048   2.728   2.222  95.764  0.1497 -0.5680 -0.3802
 1519TIP3    H226049   2.611   2.301  95.818 -0.3866  0.1038 -2.4075
 1520TIP3   OH226050   1.126   0.328  14.791  0.1987  0.5755  0.4522
 1520TIP3    H126051   1.085   0.313  14.875  0.7376  0.2774  0.6694
 1520TIP3    H226052   1.183   0.405  14.805  0.8282  0.0986  0.5609
 1521TIP3   OH226053   0.966   0.047  20.909 -0.0244 -0.4482 -0.0389
 1521TIP3    H126054   1.059   0.027  20.898 -0.2284 -1.5632  0.0968
 1521TIP3    H226055   0.948   0.025  21.001  0.1932  2.4782  0.8202
 1522TIP3   OH226056   0.047   1.808  36.041 -0.1030 -0.2048  0.5581
 1522TIP3    H126057   0.103   1.884  36.060  0.7830 -0.9908  1.1947
 1522TIP3    H226058  -0.042   1.838  36.058  0.3866  0.1036  2.8376
 1523TIP3   OH226059   2.243   1.098  27.261 -0.0799 -0.2848 -0.3816
 1523TIP3    H126060   2.320   1.046  27.241  0.2804  0.3512 -0.6796
 1523TIP3    H226061   2.258   1.133  27.349 -0.2320 -0.5131 -0.2623
 1524TIP3   OH226062   1.377   0.375  87.796  0.1847  0.0319 -0.1901
 1524TIP3    H126063   1.370   0.452  87.852 -0.5789  1.8993 -2.6752
 1524TIP3    H226064   1.298   0.325  87.814  0.4487  0.0251  1.0926
 1525TIP3   OH226065   0.128   1.477 109.342  0.5216  0.1339 -0.6062
 1525TIP3    H126066   0.065   1.439 109.281  3.3273  0.5833 -4.1696
 1525TIP3    H226067   0.143   1.408 109.407 -1.3560 -1.0925 -1.3810
 1526TIP3   OH226068   2.450   0.125  42.249 -0.0961  0.0748  0.2991
 1526TIP3    H126069   2.375   0.133  42.308 -0.2107  3.1277 -0.1018
 1526TIP3    H226070   2.434   0.190  42.181  1.7534 -0.8957 -1.1469
 1527TIP3   OH226071   0.573   0.437  12.219 -0.0302 -0.4102  0.1823
 1527TIP3    H126072   0.626   0.509  12.183 -1.0944  0.7409  0.8379
 1527TIP3    H226073   0.542   0.390  12.143  1.0485 -0.4638 -0.2493
 1528TIP3   OH226074   1.211   1.860  16.628  0.4970 -0.2327 -0.3715
 1528TIP3    H126075   1.118   1.847  16.609 -0.4453  1.8769  2.1499
 1528TIP3    H226076   1.236   1.781  16.677 -0.8971  0.4561  1.5936
 1529TIP3   OH226077   1.666   1.551  79.349 -0.1870 -0.2671  0.8251
 1529TIP3    H126078   1.707   1.567  79.264 -2.1672  2.1364  0.1732
 1529TIP3    H226079   1.601   1.483  79.331 -1.7661  1.3932 -0.1021
 1530TIP3   OH226080   2.223   0.468  97.198 -0.4504 -0.3506  0.0920
 1530TIP3    H126081   2.312   0.455  97.232 -0.5206 -2.1925 -0.3529
 1530TIP3    H226082   2.215   0.404  97.127 -2.6111 -1.2018  1.0359
 1531TIP3   OH226083   1.416   2.191  98.641  0.3485 -0.1098  0.1752
 1531TIP3    H126084   1.441   2.255  98.709  0.8568 -0.6060  0.4611
 1531TIP3    H226085   1.321   2.182  98.650  0.1199  1.3112 -0.4935
 1532TIP3   OH226086   0.564   1.652  94.003  0.0223 -0.6235  0.0010
 1532TIP3    H126087   0.508   1.603  93.942 -0.3249  1.3149 -1.3276
 1532TIP3    H226088   0.502   1.695  94.062  0.1837  0.1534 -0.3884
 1533TIP3   OH226089   0.006   2.649  78.423 -0.2220  0.5811  0.2203
 1533TIP3    H126090  -0.003   2.636  78.328 -0.5528 -1.0126  0.4501
 1533TIP3    H226091   0.067   2.582  78.451 -1.0169  0.2874  1.3195
 1534TIP3   OH226092   1.304   0.856  96.269  0.3863 -0.0544  0.2594
 1534TIP3    H126093   1.399   0.866  96.273  0.3372 -0.0155  1.7064
 1534TIP3    H226094   1.287   0.827  96.179  1.7432  0.0544 -0.0534
 1535TIP3   OH226095   2.101   1.671  34.821 -0.7461  0.4162 -0.2033
 1535TIP3    H126096   2.104   1.762  34.850 -0.5431 -0.2148  1.8889
 1535TIP3    H226097   2.043   1.627  34.884  0.5825 -1.2514 -0.0813
 1536TIP3   OH226098   1.857   0.709  81.693 -1.1289 -0.2424  0.1213
 1536TIP3    H126099   1.809   0.635  81.730  0.2823 -0.3412  1.8876
 1536TIP3    H226100   1.817   0.786  81.732 -1.1480 -0.2143  0.0488
 1537TIP3   OH226101   1.280   2.410   5.825 -0.3372 -0.0859 -0.0292
 1537TIP3    H126102   1.354   2.471   5.831 -0.3223 -0.1034 -0.0353
 1537TIP3    H226103   1.320   2.323   5.826 -0.4231 -0.1287  1.2016
 1538TIP3   OH226104   0.472   1.669   1.787  0.4344 -0.0552 -0.0514
 1538TIP3    H126105   0.483   1.584   1.744 -0.9709 -0.0554 -0.4625
 1538TIP3    H226106   0.444   1.649   1.876 -1.4132 -0.0562 -0.5915
 1539TIP3   OH226107   0.552   1.764  84.626 -0.4665 -0.3245  0.1222
 1539TIP3    H126108   0.546   1.689  84.566  0.5769 -0.3267  0.0053
 1539TIP3    H226109   0.628   1.813  84.597 -0.9174  0.5907  0.4370
 1540TIP3   OH226110   2.544   1.885   7.175 -0.0443  0.3409 -0.7349
 1540TIP3    H126111   2.615   1.937   7.214 -0.6008 -0.5598  1.6649
 1540TIP3    H226112   2.465   1.935   7.195 -0.5875 -1.3091  1.6041
 1541TIP3   OH226113   1.466   0.400  24.013 -0.4394  0.6479  0.3826
 1541TIP3    H126114   1.507   0.485  24.003  2.6543 -0.8457 -1.0343
 1541TIP3    H226115   1.521   0.340  23.962 -3.9908 -1.8015 -1.0537
 1542TIP3   OH226116   1.756   2.119  27.043 -0.4132  0.5188 -0.1588
 1542TIP3    H126117   1.703   2.084  27.115 -0.5753  1.1666  0.0433
 1542TIP3    H226118   1.755   2.214  27.056 -1.0165  0.7113 -1.3995
 1543TIP3   OH226119   2.446   1.051  48.651  0.2203 -0.0133  0.3334
 1543TIP3    H126120   2.464   0.987  48.720  0.9994  1.0002  1.1047
 1543TIP3    H226121   2.398   1.120  48.695 -0.9947 -0.2469 -0.5876
 1544TIP3   OH226122   1.847   1.030  20.434  0.2955  0.2252 -0.2624
 1544TIP3    H126123   1.841   1.099  20.368 -0.6957  0.6555  0.2444
 1544TIP3    H226124   1.756   1.013  20.459  0.6269 -0.1275  0.7759
 1545TIP3   OH226125   2.102   0.952   1.989  0.3339  0.2193  0.1432
 1545TIP3    H126126   2.177   1.000   1.955  0.1828  0.4692  0.1563
 1545TIP3    H226127   2.135   0.864   2.006  0.4519  0.1376 -0.4968
 1546TIP3   OH226128   1.588   1.995   8.832 -0.0343  0.0789 -0.7249
 1546TIP3    H126129   1.532   2.058   8.878  0.5839  1.1699 -1.4335
 1546TIP3    H226130   1.677   2.021   8.855  0.2333 -0.5651 -1.0081
 1547TIP3   OH226131   2.075   2.038  91.891 -0.2850 -0.4353  0.2961
 1547TIP3    H126132   2.058   1.988  91.811 -1.6773  1.1962 -0.5045
 1547TIP3    H226133   2.131   2.110  91.862  1.2151 -1.1541  1.3152
 1548TIP3   OH226134   2.544   1.155  24.187  0.1616 -0.0111 -0.0985
 1548TIP3    H126135   2.614   1.216  24.164 -0.6362  1.1144  0.3482
 1548TIP3    H226136   2.493   1.201  24.254 -0.5783 -1.1011  0.1182
 1549TIP3   OH226137   0.415   1.281  76.517 -0.0678  0.1418  1.1115
 1549TIP3    H126138   0.322   1.273  76.537 -0.0798 -0.2270  0.9243
 1549TIP3    H226139   0.441   1.194  76.488  0.2143  0.3717  0.6590
 1550TIP3   OH226140   1.390   2.197   0.568  0.2582 -0.2253 -0.3930
 1550TIP3    H126141   1.416   2.214   0.478  1.0108  1.2777  0.0783
 1550TIP3    H226142   1.464   2.148   0.606 -0.2886 -1.3334 -0.7151
 1551TIP3   OH226143   2.260   2.514   3.602  0.2729 -0.2087  0.2014
 1551TIP3    H126144   2.256   2.432   3.554 -0.0541 -1.4192  2.1776
 1551TIP3    H226145   2.169   2.542   3.610  0.4442  0.8811 -1.2569
 1552TIP3   OH226146   1.913   1.877  76.655  0.5182  0.0178  0.4050
 1552TIP3    H126147   1.867   1.794  76.665  0.5685 -0.4445 -2.4128
 1552TIP3    H226148   1.973   1.880  76.730 -0.4908 -1.7684  1.3664
 1553TIP3   OH226149   1.286   1.987  22.690 -0.5706  0.1112  0.2031
 1553TIP3    H126150   1.300   1.893  22.680  0.8694  0.3887 -0.7088
 1553TIP3    H226151   1.192   1.996  22.707 -1.0041 -1.3876 -1.1754
 1554TIP3   OH226152   1.686   0.026  89.642  0.2691  0.2218  0.1246
 1554TIP3    H126153   1.696  -0.054  89.693  1.3330  0.8662  0.9903
 1554TIP3    H226154   1.739   0.013  89.564  0.9572  0.3171  0.5712
 1555TIP3   OH226155   1.007   1.212  88.195  0.0474 -0.0015 -0.2396
 1555TIP3    H126156   1.098   1.198  88.222  0.1149  2.4457  1.1659
 1555TIP3    H226157   1.011   1.286  88.134 -1.1362  2.0126  1.9490
 1556TIP3   OH226158   2.686   0.800  87.513 -0.5023  0.2700 -0.3247
 1556TIP3    H126159   2.608   0.776  87.462 -2.0985  2.0294  1.1084
 1556TIP3    H226160   2.705   0.889  87.484 -0.4773  0.7069  0.9962
 1557TIP3   OH226161   1.791   1.433  30.420  0.3323  0.2585  0.3404
 1557TIP3    H126162   1.863   1.495  30.425 -0.2443  0.9901 -0.1871
 1557TIP3    H226163   1.763   1.422  30.511 -0.4239  1.8436  0.3379
 1558TIP3   OH226164   2.628   1.067  97.172 -0.2203 -0.3828 -0.2043
 1558TIP3    H126165   2.617   0.974  97.148 -2.4569 -0.1972 -0.1091
 1558TIP3    H226166   2.597   1.115  97.095 -0.2816  0.2785  0.2269
 1559TIP3   OH226167   1.050   2.055  93.334  0.2376  0.4351 -0.0836
 1559TIP3    H126168   1.109   2.125  93.360  0.8000  0.3723 -1.1398
 1559TIP3    H226169   1.103   1.997  93.281  0.0109 -1.3064  1.5212
 1560TIP3   OH226170   0.959   0.450  98.336 -0.1383  0.2166  0.2461
 1560TIP3    H126171   0.967   0.381  98.401  0.4230  0.0600  0.0149
 1560TIP3    H226172   1.040   0.446  98.285 -1.1758 -0.6814 -1.4509
 1561TIP3   OH226173   0.480   1.400  82.534  0.2164 -0.3528 -0.4798
 1561TIP3    H126174   0.435   1.316  82.539  1.1719 -0.8528  0.1641
 1561TIP3    H226175   0.432   1.456  82.595 -0.0251 -0.6299 -0.4152
 1562TIP3   OH226176   2.286   1.984  76.224  0.2086  0.3236 -0.0037
 1562TIP3    H126177   2.288   1.905  76.169 -1.5420  0.6285 -0.5659
 1562TIP3    H226178   2.338   1.962  76.301  1.1395 -0.7848 -0.9178
 1563TIP3   OH226179   1.870   0.595  96.334 -0.5247  0.4491  0.0582
 1563TIP3    H126180   1.841   0.535  96.266  0.5174 -1.4916  1.2196
 1563TIP3    H226181   1.923   0.660  96.288  0.0699 -0.7470 -1.0169
 1564TIP3   OH226182   1.577   2.579 103.447 -0.5469 -0.4202  0.0192
 1564TIP3    H126183   1.669   2.557 103.433 -0.4408  0.3750 -0.6392
 1564TIP3    H226184   1.578   2.640 103.521 -0.7948 -2.1821  1.5398
 1565TIP3   OH226185   1.034   0.184 109.150 -0.0784  0.0322 -0.5324
 1565TIP3    H126186   1.061   0.205 109.240 -2.0013  2.1872 -0.4084
 1565TIP3    H226187   0.971   0.113 109.160  0.4127 -0.3851 -0.3030
 1566TIP3   OH226188   2.143   2.408   0.988 -0.0581  0.2128 -0.3186
 1566TIP3    H126189   2.076   2.355   1.030 -0.0263 -0.0127 -0.5516
 1566TIP3    H226190   2.137   2.385   0.895  0.2223  0.3218 -0.3639
 1567TIP3   OH226191   2.147   2.240  25.829 -0.4791  0.0649 -0.0072
 1567TIP3    H126192   2.210   2.172  25.854 -0.2419 -0.1220 -1.0796
 1567TIP3    H226193   2.201   2.309  25.790 -0.9567 -0.2971 -1.3633
 1568TIP3   OH226194   2.105   0.565  81.385 -0.6028 -0.5211  0.2270
 1568TIP3    H126195   2.050   0.590  81.459 -1.1598 -1.6574  0.2296
 1568TIP3    H226196   2.175   0.512  81.424 -1.0057 -1.2870 -0.0533
 1569TIP3   OH226197   0.956   1.914   9.849 -0.0315 -0.1161 -0.1562
 1569TIP3    H126198   0.907   1.993   9.830  0.6604  0.2312 -0.5680
 1569TIP3    H226199   0.897   1.842   9.825 -0.6406  0.2745  0.1724
 1570TIP3   OH226200   1.713   0.809   9.530 -0.0016  0.2496 -0.1967
 1570TIP3    H126201   1.661   0.864   9.471 -0.0266  0.7712  0.3012
 1570TIP3    H226202   1.659   0.731   9.543 -0.2526  0.3858 -0.4120
 1571TIP3   OH226203   1.397   0.707  84.200  0.2407  0.2400 -1.4470
 1571TIP3    H126204   1.380   0.770  84.270  1.0608  1.5027 -2.3393
 1571TIP3    H226205   1.404   0.623  84.245  0.6063  0.9948 -0.0326
 1572TIP3   OH226206   2.421   2.422  15.096  0.2601 -0.3891 -0.6096
 1572TIP3    H126207   2.333   2.458  15.097  0.0210 -0.9452  0.7810
 1572TIP3    H226208   2.442   2.412  15.003 -0.3201  1.6719 -1.0035
 1573TIP3   OH226209   0.176   0.285  14.472  0.1683  0.2081  0.1106
 1573TIP3    H126210   0.203   0.230  14.545  0.7238 -0.2832 -0.4477
 1573TIP3    H226211   0.080   0.279  14.471  0.0705  1.2631  1.5801
 1574TIP3   OH226212   1.692   2.191  15.989  0.1912 -0.3884  0.2507
 1574TIP3    H126213   1.651   2.270  15.953  0.6727 -0.7069 -1.0559
 1574TIP3    H226214   1.641   2.171  16.068  0.2439  1.3812  0.7729
 1575TIP3   OH226215   1.142   2.312   7.476 -0.3956  0.8519 -0.3378
 1575TIP3    H126216   1.189   2.256   7.414 -0.2156  0.4817  0.1250
 1575TIP3    H226217   1.158   2.401   7.445 -0.9820  0.6362 -1.2956
 1576TIP3   OH226218   0.669   0.885  18.843  0.5296  0.2716  0.0082
 1576TIP3    H126219   0.587   0.903  18.797 -0.1197 -1.2593  0.4797
 1576TIP3    H226220   0.677   0.955  18.907  0.0909  0.9704 -0.6807
 1577TIP3   OH226221   2.388   0.895   0.524 -0.0811  0.2443 -0.1913
 1577TIP3    H126222   2.358   0.952   0.453 -3.0143  0.2489  0.8936
 1577TIP3    H226223   2.465   0.850   0.489  0.0894  2.0866 -2.4156
 1578TIP3   OH226224   2.159   1.285  83.463 -0.0917 -0.0352  0.0196
 1578TIP3    H126225   2.173   1.200  83.504 -0.4827 -0.0193  0.1884
 1578TIP3    H226226   2.248   1.318  83.446  0.0609 -1.0943 -1.3623
 1579TIP3   OH226227   1.789   1.713  74.364  0.0999 -0.0931  0.0330
 1579TIP3    H126228   1.843   1.655  74.417  1.0397  0.0739 -0.7130
 1579TIP3    H226229   1.806   1.800  74.398  1.1890  0.0893 -0.8935
 1580TIP3   OH226230   0.835   1.632 108.538 -0.4784 -0.0509  0.0515
 1580TIP3    H126231   0.808   1.709 108.487  0.0608  0.4365  0.4851
 1580TIP3    H226232   0.784   1.637 108.618 -0.3175 -0.0522  0.1514
 1581TIP3   OH226233   1.851   0.988  99.198 -0.7255  0.0936 -0.2101
 1581TIP3    H126234   1.922   0.936  99.158  0.7213  0.6593  1.4618
 1581TIP3    H226235   1.820   0.933  99.270 -0.4606  0.7513  0.4146
 1582TIP3   OH226236   1.428   1.817  78.689  0.1596 -0.1241 -0.0061
 1582TIP3    H126237   1.348   1.866  78.671 -0.1364 -0.4313  0.4646
 1582TIP3    H226238   1.496   1.884  78.694 -0.1618  0.1952  0.1629
 1583TIP3   OH226239   2.097   1.935   2.028 -0.2328 -0.1176 -0.1651
 1583TIP3    H126240   2.082   1.849   2.067  1.2812  0.2494  1.3669
 1583TIP3    H226241   2.025   1.989   2.059 -0.1466 -0.3540  0.4541
 1584TIP3   OH226242   0.391   1.028   0.204 -0.5622  0.0204  0.4474
 1584TIP3    H126243   0.412   1.073   0.286  1.4467  1.3993 -0.7130
 1584TIP3    H226244   0.416   0.937   0.219 -0.6076  0.1625  1.4679
 1585TIP3   OH226245   1.885   1.334   7.993 -0.6319 -0.4409 -0.2328
 1585TIP3    H126246   1.942   1.262   7.966 -0.4786 -0.7856  0.9332
 1585TIP3    H226247   1.881   1.327   8.089 -2.7009 -0.4995 -0.2614
 1586TIP3   OH226248   2.315   0.975  11.734  0.9955  0.1169  0.4745
 1586TIP3    H126249   2.274   0.892  11.759 -1.5460  1.0400 -0.3467
 1586TIP3    H226250   2.341   0.963  11.643 -0.3441  0.5300  0.0192
 1587TIP3   OH226251   2.566   1.915  83.084  0.5595 -0.2783  0.3430
 1587TIP3    H126252   2.580   1.880  82.996  1.9012 -1.8040  1.0915
 1587TIP3    H226253   2.523   1.844  83.131 -1.5894  1.0905  0.5612
 1588TIP3   OH226254   2.216   1.980  97.011  0.0823 -0.0200 -0.3570
 1588TIP3    H126255   2.263   1.966  96.929  0.0591 -1.6702 -0.1372
 1588TIP3    H226256   2.256   2.058  97.049  1.9978 -0.7952 -0.6454
 1589TIP3   OH226257   2.207   0.598  16.805  0.3082  0.4919  0.2393
 1589TIP3    H126258   2.193   0.692  16.819  0.0457  0.4104  0.5390
 1589TIP3    H226259   2.146   0.575  16.735  0.5097  0.5840  0.0339
 1590TIP3   OH226260   0.245   2.191  43.388  0.3555 -0.1273 -0.0759
 1590TIP3    H126261   0.168   2.244  43.411  1.5355  1.2505  0.8596
 1590TIP3    H226262   0.210   2.121  43.332 -1.2531  1.6669 -1.4296
 1591TIP3   OH226263   2.259   0.582  87.115  0.0847  0.1022 -0.0728
 1591TIP3    H126264   2.252   0.618  87.027  0.6936 -0.4003 -0.3322
 1591TIP3    H226265   2.201   0.636  87.168  0.6243  1.1561 -0.5410
 1592TIP3   OH226266   2.144   0.283  20.803 -0.1107  0.4047 -0.1143
 1592TIP3    H126267   2.162   0.192  20.780  0.5227  0.5862 -0.3869
 1592TIP3    H226268   2.209   0.333  20.753 -1.7095  1.1584 -1.5370
 1593TIP3   OH226269   2.069   2.001  74.730  0.3792  0.3712  0.5796
 1593TIP3    H126270   2.102   1.959  74.650  1.4445  3.2471 -0.6137
 1593TIP3    H226271   2.106   1.948  74.801  0.0818 -1.7914 -0.7598
 1594TIP3   OH226272   2.220   1.735  96.008 -0.3830 -0.3571 -0.1118
 1594TIP3    H126273   2.145   1.689  95.970 -0.1920  0.9432 -2.2543
 1594TIP3    H226274   2.296   1.692  95.967 -0.1842  1.3570 -1.6610
 1595TIP3   OH226275   0.755   0.670  73.123 -0.0932 -0.5200  0.2364
 1595TIP3    H126276   0.758   0.763  73.104 -0.2171 -0.5509  0.0699
 1595TIP3    H226277   0.840   0.651  73.164 -0.3805 -0.1693  1.0259
 1596TIP3   OH226278   2.621   1.082  84.123  0.2939  0.0087  0.1539
 1596TIP3    H126279   2.625   1.167  84.078  0.2685 -0.8423 -1.4975
 1596TIP3    H226280   2.595   1.020  84.056 -0.3365 -1.2326  1.4930
 1597TIP3   OH226281   0.157   1.704  83.787  0.4319 -0.3527  0.4700
 1597TIP3    H126282   0.169   1.798  83.798  1.2830 -0.5230  1.1723
 1597TIP3    H226283   0.062   1.692  83.786  0.3135  0.4992  0.4863
 1598TIP3   OH226284   1.881   0.929 106.852  0.0112  0.6461  0.3035
 1598TIP3    H126285   1.860   1.015 106.887 -1.2745  0.5943 -0.2925
 1598TIP3    H226286   1.973   0.936 106.824 -0.0403  1.7829  0.3694
 1599TIP3   OH226287   1.426   1.739  34.947 -0.1155 -0.0796  0.1376
 1599TIP3    H126288   1.478   1.770  35.021 -0.5777 -0.5432  0.6718
 1599TIP3    H226289   1.457   1.650  34.932  1.7116  0.8226 -1.8609
 1600TIP3   OH226290   1.304   2.636  83.942 -0.1738  0.5547  0.4124
 1600TIP3    H126291   1.306   2.549  83.902  0.7718  1.1520 -0.8961
 1600TIP3    H226292   1.233   2.682  83.896  0.9445  1.2562 -0.6705
 1601TIP3   OH226293   0.609   1.692  31.798 -0.6341  0.5087 -0.4215
 1601TIP3    H126294   0.617   1.782  31.768 -0.0602  0.7281  0.3705
 1601TIP3    H226295   0.632   1.694  31.891 -2.1272 -0.2134 -0.0115
 1602TIP3   OH226296   1.536   1.519  17.857  0.1638  0.1012 -0.1940
 1602TIP3    H126297   1.594   1.489  17.927  0.6235 -1.1946 -1.0847
 1602TIP3    H226298   1.448   1.499  17.888  0.2418  1.0510  0.6962
 1603TIP3   OH226299   0.487   1.421  87.862  0.1722 -0.3022 -0.3139
 1603TIP3    H126300   0.474   1.350  87.925  1.2898 -1.3978 -1.2546
 1603TIP3    H226301   0.408   1.419  87.807  0.8153 -1.8801 -1.2801
 1604TIP3   OH226302   2.604   0.270 111.725 -0.0541 -0.1874  0.3459
 1604TIP3    H126303   2.584   0.177 111.720  3.0184 -1.0591  2.0586
 1604TIP3    H226304   2.583   0.294 111.816 -1.8258  1.1412 -0.3529
 1605TIP3   OH226305   1.878   1.851  17.833  0.0957 -0.4344 -0.4358
 1605TIP3    H126306   1.867   1.758  17.849 -1.0598 -0.4087 -0.9690
 1605TIP3    H226307   1.820   1.870  17.759 -0.4956  0.8978  0.3278
 1606TIP3   OH226308   1.751   0.865   9.158  0.4222 -0.3197 -0.4500
 1606TIP3    H126309   1.828   0.849   9.104  0.8703 -1.6440  0.5361
 1606TIP3    H226310   1.733   0.781   9.201 -1.5370 -0.0392 -0.6004
 1607TIP3   OH226311   0.636   0.154  12.568 -0.1307 -0.2359  0.1428
 1607TIP3    H126312   0.728   0.162  12.545  0.0753 -0.4707  0.8392
 1607TIP3    H226313   0.596   0.236  12.540  0.5607  0.4302  1.0482
 1608TIP3   OH226314   2.182   0.348  87.038 -0.2417  0.2356  0.1373
 1608TIP3    H126315   2.100   0.382  87.000 -0.3936  0.7458  0.9050
 1608TIP3    H226316   2.214   0.420  87.092  1.1939  0.3768 -0.8577
 1609TIP3   OH226317   0.137   1.458  89.284 -0.7949  0.0335 -0.4501
 1609TIP3    H126318   0.075   1.434  89.215 -0.4685  0.8118 -1.0324
 1609TIP3    H226319   0.109   1.545  89.311 -1.1549 -0.4171  0.6889
 1610TIP3   OH226320   0.660   0.635 100.507 -0.1486 -0.1332 -0.6291
 1610TIP3    H126321   0.709   0.716 100.500  1.3185 -0.9183  0.1132
 1610TIP3    H226322   0.586   0.656 100.564 -0.0615  0.7951 -0.8514
 1611TIP3   OH226323   2.521   0.682  96.485  0.5742  0.3429  0.1110
 1611TIP3    H126324   2.555   0.750  96.544 -1.2095  0.7530  0.7095
 1611TIP3    H226325   2.588   0.675  96.416  1.5443  1.5645  0.8853
 1612TIP3   OH226326   1.132   0.409  17.235  0.2669 -0.3398 -0.1088
 1612TIP3    H126327   1.220   0.394  17.201  0.5443  0.9223 -0.0150
 1612TIP3    H226328   1.074   0.362  17.175  1.0215 -1.4897  0.0412
 1613TIP3   OH226329   0.105   0.588 110.838 -0.2683  0.2295  0.6921
 1613TIP3    H126330   0.067   0.503 110.814  0.7508 -0.2995  0.8848
 1613TIP3    H226331   0.079   0.647 110.767  0.9273 -0.7989 -0.6495
 1614TIP3   OH226332   0.038   1.490 108.300 -0.1891  0.3973  0.0380
 1614TIP3    H126333   0.049   1.504 108.206  0.8831 -0.1743  0.0659
 1614TIP3    H226334  -0.028   1.421 108.306 -1.2711  1.3901 -0.2383
 1615TIP3   OH226335   1.523   2.175   4.463  0.2639  0.2156 -0.2022
 1615TIP3    H126336   1.489   2.258   4.431  0.2979  0.3382  0.0796
 1615TIP3    H226337   1.590   2.199   4.527 -0.8626 -0.0077  1.1265
 1616TIP3   OH226338   0.688   0.221  68.419  0.0121  0.0995 -0.1792
 1616TIP3    H126339   0.637   0.170  68.482 -0.0910  0.9410  0.4376
 1616TIP3    H226340   0.763   0.166  68.398 -0.1714 -0.3597  0.3646
 1617TIP3   OH226341   0.911   1.834  93.078 -0.2818  0.4158  0.0133
 1617TIP3    H126342   0.938   1.743  93.065 -0.4852  0.6337 -2.4158
 1617TIP3    H226343   0.984   1.875  93.124  1.8063 -0.0033 -2.6554
 1618TIP3   OH226344   2.063   0.950 100.309  0.3323 -0.3024  0.3229
 1618TIP3    H126345   2.038   1.038 100.337 -1.0824 -0.6584  0.2626
 1618TIP3    H226346   2.095   0.961 100.220  1.2422  0.2954  0.7092
 1619TIP3   OH226347   1.598   1.455 105.311 -0.0322 -0.2512  0.0140
 1619TIP3    H126348   1.592   1.467 105.216  0.7979  0.1524  0.0087
 1619TIP3    H226349   1.584   1.542 105.347  1.2067 -0.1064  0.1802
 1620TIP3   OH226350   2.662   0.154  94.666 -0.2605  1.4530  0.0822
 1620TIP3    H126351   2.605   0.208  94.610  1.4215  3.0641 -0.1955
 1620TIP3    H226352   2.678   0.208  94.743  1.2016  1.2397 -0.0480
 1621TIP3   OH226353   1.470   2.664   7.568 -0.2682  0.5453  0.0725
 1621TIP3    H126354   1.384   2.626   7.586 -0.2027  0.6535  0.6549
 1621TIP3    H226355   1.486   2.722   7.643 -1.2799  3.4099 -1.7481
 1622TIP3   OH226356   0.800   2.351   2.328  0.8797 -0.3554 -0.5873
 1622TIP3    H126357   0.738   2.390   2.266 -0.1848 -0.7745  0.1763
 1622TIP3    H226358   0.764   2.372   2.414  0.9389 -1.9490 -0.1469
 1623TIP3   OH226359   2.175   2.534  15.179  0.3937  0.2068 -0.2674
 1623TIP3    H126360   2.091   2.491  15.168  1.0716 -0.7466 -2.0777
 1623TIP3    H226361   2.195   2.525  15.273 -1.5609  0.6236  0.2321
 1624TIP3   OH226362   2.263   2.505   9.274 -0.1411  0.2388  0.7308
 1624TIP3    H126363   2.260   2.539   9.363 -1.7699 -0.1596  0.8761
 1624TIP3    H226364   2.178   2.531   9.236  0.9801  1.4369 -1.1070
 1625TIP3   OH226365   2.238   1.807  74.356 -0.3001  0.6225  0.4135
 1625TIP3    H126366   2.221   1.770  74.443 -1.4735 -1.5470 -0.6440
 1625TIP3    H226367   2.289   1.740  74.311  0.2342  1.6901 -0.6092
 1626TIP3   OH226368   1.320   1.439  17.484  0.6691 -0.0648 -0.0608
 1626TIP3    H126369   1.256   1.376  17.518  0.9228 -0.0596  0.4344
 1626TIP3    H226370   1.314   1.514  17.543 -0.1208  0.6755 -1.0479
 1627TIP3   OH226371   1.946   0.711  97.942 -0.0930  0.4681 -0.5490
 1627TIP3    H126372   2.029   0.741  97.979 -1.0687  0.8634  1.4136
 1627TIP3    H226373   1.937   0.761  97.861  0.9738  1.3360 -0.1600
 1628TIP3   OH226374   0.929   2.415 104.083 -0.0567 -0.1878 -0.1510
 1628TIP3    H126375   0.889   2.493 104.046  0.6299 -0.4829 -1.5883
 1628TIP3    H226376   1.023   2.433 104.083 -0.0689  0.1504  2.3581
 1629TIP3   OH226377   1.566   1.543   2.377  0.5034  0.3400 -0.0268
 1629TIP3    H126378   1.548   1.449   2.380 -0.9470  0.5608 -0.6747
 1629TIP3    H226379   1.651   1.553   2.419 -0.2442 -1.0287  1.9648
 1630TIP3   OH226380   1.562   1.858   3.579 -0.3034  0.1729  0.4222
 1630TIP3    H126381   1.500   1.876   3.508 -0.9293  1.8148  1.3328
 1630TIP3    H226382   1.521   1.787   3.628 -0.1705 -0.5435 -0.4822
 1631TIP3   OH226383   0.368   0.820  13.000  1.0322  0.0051 -0.3701
 1631TIP3    H126384   0.434   0.888  13.017  0.5525  0.3737  0.0540
 1631TIP3    H226385   0.289   0.852  13.044  0.4581 -0.2471 -1.1909
 1632TIP3   OH226386   2.230   2.229  47.695  0.3651  0.1041 -0.0556
 1632TIP3    H126387   2.221   2.166  47.766  2.6267  0.3146  0.4712
 1632TIP3    H226388   2.294   2.189  47.636  0.9522  1.3755 -0.3040
 1633TIP3   OH226389   1.393   1.408   1.329  0.0102 -0.4705 -0.1207
 1633TIP3    H126390   1.310   1.363   1.338 -1.1135  1.6162  0.5176
 1633TIP3    H226391   1.370   1.499   1.312  2.1706 -0.1953 -2.0801
 1634TIP3   OH226392   1.086   0.891   8.140  0.4046 -0.1086  0.1228
 1634TIP3    H126393   1.147   0.934   8.080  0.4715 -0.1076  0.1910
 1634TIP3    H226394   1.049   0.819   8.089  1.5669 -1.0394  0.5353
 1635TIP3   OH226395   0.495   2.659  19.481 -0.0706 -0.1403  0.4242
 1635TIP3    H126396   0.542   2.677  19.400  0.7773  0.1775  0.9797
 1635TIP3    H226397   0.441   2.582  19.461 -1.2965  1.0284 -0.9918
 1636TIP3   OH226398   1.429   0.606  74.267  0.5883  0.2721 -0.2928
 1636TIP3    H126399   1.496   0.570  74.210  0.5005 -1.6050  0.6986
 1636TIP3    H226400   1.346   0.575  74.230  0.5448 -1.1660  0.9345
 1637TIP3   OH226401   0.636   0.247 111.607 -0.2036  0.2036  0.1990
 1637TIP3    H126402   0.599   0.177 111.552  1.2858 -1.4848  1.2382
 1637TIP3    H226403   0.730   0.233 111.603  0.1635  2.3429  0.2909
 1638TIP3   OH226404   1.618   0.048   7.073  0.7626  0.0097  0.2846
 1638TIP3    H126405   1.648   0.007   6.992  0.2713 -0.5677  0.3950
 1638TIP3    H226406   1.698   0.062   7.123  1.0683  0.3417 -0.2840
 1639TIP3   OH226407   1.799   0.546  21.762 -0.0150  0.1720 -0.4381
 1639TIP3    H126408   1.877   0.553  21.816  0.3627 -0.2379 -0.9326
 1639TIP3    H226409   1.732   0.512  21.822 -0.3927  2.4683  0.5417
 1640TIP3   OH226410   0.933   1.304   7.915  0.0547  0.1217 -0.1477
 1640TIP3    H126411   0.861   1.320   7.975 -0.2324  1.0077 -0.7130
 1640TIP3    H226412   1.002   1.363   7.944 -0.1330  0.6511 -0.7560
 1641TIP3   OH226413   1.321   0.325   9.583  0.1835  0.7254 -0.7671
 1641TIP3    H126414   1.350   0.299   9.670  0.1966 -1.9384 -1.4919
 1641TIP3    H226415   1.401   0.354   9.539  0.7040 -0.6222 -0.7551
 1642TIP3   OH226416   1.762   1.256  62.797 -0.2764  0.7091  0.0630
 1642TIP3    H126417   1.839   1.279  62.850  0.1358  0.6203 -0.4883
 1642TIP3    H226418   1.711   1.337  62.794  0.4377  1.1440 -0.6383
 1643TIP3   OH226419   0.687   0.421  24.935  0.0712 -0.2468 -0.5313
 1643TIP3    H126420   0.704   0.479  24.861 -1.3723  0.7208 -0.1362
 1643TIP3    H226421   0.761   0.360  24.935  0.3275  0.0134 -2.4770
 1644TIP3   OH226422   0.809   2.011  89.468  0.2626  0.1411 -0.3812
 1644TIP3    H126423   0.866   2.079  89.432 -0.5902  0.8203 -0.4950
 1644TIP3    H226424   0.783   1.959  89.392 -0.0708  0.4537 -0.4865
 1645TIP3   OH226425   1.530   2.356  86.478 -0.4033 -0.2901 -0.1571
 1645TIP3    H126426   1.507   2.269  86.511  0.1624 -0.2342  0.3901
 1645TIP3    H226427   1.589   2.392  86.544 -0.9068  0.6497 -0.2033
 1646TIP3   OH226428   0.103   0.142  92.479  0.2267 -0.3555  0.2714
 1646TIP3    H126429   0.065   0.082  92.414  1.0548 -1.4002  0.7333
 1646TIP3    H226430   0.194   0.116  92.486  0.6386  1.0499  0.4117
 1647TIP3   OH226431   1.091   1.994  10.308  0.9424 -0.2029 -0.0857
 1647TIP3    H126432   1.118   2.012  10.398  1.3255  1.0926 -0.4420
 1647TIP3    H226433   1.164   2.026  10.254 -1.2532  3.7032 -1.0997
 1648TIP3   OH226434   0.644   1.444  29.711 -0.7026  0.5083  0.5774
 1648TIP3    H126435   0.554   1.466  29.685 -0.1678  0.9350 -1.0142
 1648TIP3    H226436   0.690   1.430  29.628  0.8560  0.8752  1.3534
 1649TIP3   OH226437   1.797   2.153  96.182  0.0912  0.0994 -0.4611
 1649TIP3    H126438   1.893   2.149  96.181  0.1965  1.8805  0.3076
 1649TIP3    H226439   1.775   2.177  96.272 -1.1354 -1.0457 -0.4239
 1650TIP3   OH226440   0.277   1.660  83.544  0.5621  0.0899  0.0066
 1650TIP3    H126441   0.275   1.649  83.639  0.5165 -0.2178 -0.0259
 1650TIP3    H226442   0.206   1.603  83.512  0.8208 -0.1003 -0.2378
 1651TIP3   OH226443   0.342   1.885  98.278  0.4512 -0.3396 -0.1062
 1651TIP3    H126444   0.290   1.812  98.245  0.6163  0.4651 -2.3376
 1651TIP3    H226445   0.425   1.845  98.305 -0.8321 -1.4764  2.4546
 1652TIP3   OH226446   0.186   0.320  19.497 -0.2129  0.1951 -0.1255
 1652TIP3    H126447   0.278   0.323  19.471  0.1932 -1.7315  0.8907
 1652TIP3    H226448   0.142   0.273  19.425 -0.2263  0.2613 -0.1606
 1653TIP3   OH226449   2.022   2.056 100.163 -0.0995 -0.1295  0.2618
 1653TIP3    H126450   2.072   2.105 100.097 -1.1554  0.7261  0.0707
 1653TIP3    H226451   2.073   1.976 100.177  0.8735  0.3217 -0.5448
 1654TIP3   OH226452   0.018   0.960  80.549  0.3322  0.6608 -0.1651
 1654TIP3    H126453  -0.067   1.002  80.554  0.2778  0.5518 -0.1580
 1654TIP3    H226454   0.076   1.016  80.600 -0.0311 -0.0007  1.0131
 1655TIP3   OH226455   0.731   0.506  95.356  0.0497  0.4435 -0.0548
 1655TIP3    H126456   0.731   0.502  95.260  2.1247 -0.4706 -0.0872
 1655TIP3    H226457   0.713   0.416  95.384 -0.3315  0.6613  0.4174
 1656TIP3   OH226458   0.120   0.289 106.834  0.4900  0.1264 -0.0639
 1656TIP3    H126459   0.026   0.299 106.817  0.7336  0.0781 -1.5300
 1656TIP3    H226460   0.124   0.240 106.916 -0.7898 -1.3072 -0.8125
 1657TIP3   OH226461   0.159   2.261   8.410 -0.1019 -0.1693  0.5541
 1657TIP3    H126462   0.139   2.339   8.461  1.5668  0.1974  0.7073
 1657TIP3    H226463   0.201   2.295   8.331  0.0820 -0.8756  0.3454
 1658TIP3   OH226464   2.416   2.606 104.022  0.7208  0.0449  0.4996
 1658TIP3    H126465   2.442   2.519 104.053  0.6064 -0.1316  0.1123
 1658TIP3    H226466   2.499   2.649 103.998  0.7235 -0.2426 -0.0349
 1659TIP3   OH226467   2.569   0.574  11.661 -0.1857 -0.3528 -0.0607
 1659TIP3    H126468   2.594   0.497  11.714  1.5406 -1.6448 -2.5564
 1659TIP3    H226469   2.532   0.537  11.581 -2.5507  1.5534  0.0346
 1660TIP3   OH226470   2.513   0.222  10.547  0.0197 -0.4448 -0.1068
 1660TIP3    H126471   2.551   0.234  10.459 -1.8136  0.9812 -0.7640
 1660TIP3    H226472   2.472   0.135  10.543  0.5151 -0.6753 -0.4160
 1661TIP3   OH226473   2.376   2.663  98.814  0.1988 -0.3370  0.2063
 1661TIP3    H126474   2.292   2.709  98.811 -0.1242 -0.9358 -0.1325
 1661TIP3    H226475   2.358   2.579  98.772  1.0036 -0.4180  0.0241
 1662TIP3   OH226476   1.893   0.896  98.878  0.1309  0.0591 -0.4023
 1662TIP3    H126477   1.849   0.980  98.892  0.9680  0.3309  0.6901
 1662TIP3    H226478   1.964   0.895  98.941  0.6054 -1.1555 -0.9251
 1663TIP3   OH226479   2.201   0.255  88.087 -0.0845  0.2816 -0.3835
 1663TIP3    H126480   2.219   0.270  88.180 -0.7073 -1.0055 -0.0211
 1663TIP3    H226481   2.198   0.342  88.048 -1.7492  1.0024  1.1890
 1664TIP3   OH226482   0.878   1.244   1.746  0.0141 -0.0476 -0.6627
 1664TIP3    H126483   0.882   1.211   1.836  0.5013 -0.2955 -0.7670
 1664TIP3    H226484   0.875   1.339   1.755  0.0037 -0.0737 -0.3838
 1665TIP3   OH226485   1.336   2.181  17.074 -0.2203  0.0570  0.3873
 1665TIP3    H126486   1.337   2.093  17.037  1.1345  0.1652  0.1205
 1665TIP3    H226487   1.258   2.222  17.037 -0.4876 -0.8078 -0.0227
 1666TIP3   OH226488   2.010   1.431  81.056  0.0009 -0.2147  0.0457
 1666TIP3    H126489   1.977   1.341  81.057  1.1053 -0.6597 -1.3986
 1666TIP3    H226490   2.020   1.452  80.963 -0.4886  1.5106  0.3408
 1667TIP3   OH226491   0.324   1.012 107.399 -0.0111  0.4482  0.2318
 1667TIP3    H126492   0.367   1.090 107.364 -0.4409 -0.2958 -2.1322
 1667TIP3    H226493   0.238   1.043 107.429 -0.6200  0.7671 -1.6977
 1668TIP3   OH226494   0.196   0.963  17.650  0.0626 -0.2506  0.2430
 1668TIP3    H126495   0.121   0.961  17.591  0.3656 -0.5322 -0.1395
 1668TIP3    H226496   0.171   1.025  17.719  0.3813  1.4612 -1.1022
 1669TIP3   OH226497   1.710   1.417  15.398 -0.2020 -0.2192  0.0476
 1669TIP3    H126498   1.671   1.468  15.469  1.5707  0.3553  0.6500
 1669TIP3    H226499   1.694   1.469  15.319  0.2060  0.5064  0.4335
 1670TIP3   OH226500   0.286   0.413  75.780  0.1140 -0.2266 -0.5965
 1670TIP3    H126501   0.251   0.461  75.856  0.5975  0.3825 -0.7514
 1670TIP3    H226502   0.252   0.324  75.790 -0.9015  0.1724 -0.3603
 1671TIP3   OH226503   0.281   1.624  23.678 -0.0169  0.2926 -0.7113
 1671TIP3    H126504   0.312   1.689  23.741  0.7465 -0.5593 -0.1790
 1671TIP3    H226505   0.307   1.659  23.592 -1.2946  1.5887 -0.6089
 1672TIP3   OH226506   1.550   1.215  35.529  0.0707 -0.4203 -0.1717
 1672TIP3    H126507   1.489   1.201  35.457  0.7151 -0.0015 -0.8066
 1672TIP3    H226508   1.623   1.263  35.490  0.3210  0.0204  0.8070
 1673TIP3   OH226509   0.829   1.753  21.439 -0.2324 -0.2697  0.1994
 1673TIP3    H126510   0.881   1.688  21.485  0.2472  0.0887  0.1812
 1673TIP3    H226511   0.786   1.705  21.369  0.7237 -0.4373 -0.2875
 1674TIP3   OH226512   1.640   1.363   5.418 -0.1578 -0.0339  0.1728
 1674TIP3    H126513   1.576   1.294   5.432  1.7831 -1.8400  0.6068
 1674TIP3    H226514   1.638   1.380   5.324 -1.1259 -0.1794  0.1642
 1675TIP3   OH226515   2.016   1.989   6.458  0.1120  0.1394  0.4871
 1675TIP3    H126516   1.929   2.023   6.478 -0.6556 -1.5465  0.1950
 1675TIP3    H226517   2.064   2.064   6.423 -1.9702  0.6097 -1.5818
 1676TIP3   OH226518   0.703   2.575  74.918  1.0475  0.7785 -0.4931
 1676TIP3    H126519   0.676   2.597  74.829 -1.6729 -0.5862 -0.0925
 1676TIP3    H226520   0.652   2.632  74.974  1.1528  0.1571  0.2509
 1677TIP3   OH226521   1.495   1.613   7.794 -0.0011  0.0839  0.3296
 1677TIP3    H126522   1.415   1.642   7.838 -0.9942 -2.7202  0.5938
 1677TIP3    H226523   1.552   1.585   7.866  0.7918  0.9973  0.0764
 1678TIP3   OH226524   0.004   1.019  10.084 -0.1620 -0.7707  0.1845
 1678TIP3    H126525   0.047   0.934  10.095 -1.0826 -1.3026 -0.2079
 1678TIP3    H226526  -0.071   1.016  10.144  0.0397 -0.0628  0.4816
 1679TIP3   OH226527   0.123   2.018 107.435  0.1014 -0.4289  0.2148
 1679TIP3    H126528   0.099   1.939 107.483  0.8847 -0.2230  0.9734
 1679TIP3    H226529   0.218   2.023 107.443  0.1264  0.2527 -0.3666
 1680TIP3   OH226530   2.488   0.880  89.550 -0.0282  0.1618  0.8037
 1680TIP3    H126531   2.442   0.884  89.466 -1.0362 -1.6364  1.2171
 1680TIP3    H226532   2.569   0.930  89.536 -1.3406  2.0907 -0.4196
 1681TIP3   OH226533   0.083   0.589  95.723 -0.1018 -0.0707 -0.4032
 1681TIP3    H126534  -0.008   0.574  95.746  0.0309 -0.6236 -0.2407
 1681TIP3    H226535   0.126   0.607  95.807 -0.0708  0.2611 -0.4873
 1682TIP3   OH226536   2.511   0.312 104.147  0.1417 -0.0504 -0.1066
 1682TIP3    H126537   2.586   0.342 104.095  1.2716 -0.4261  1.2449
 1682TIP3    H226538   2.436   0.359 104.110  0.9739  0.0453 -1.7404
 1683TIP3   OH226539   1.879   0.110  73.701  0.1674 -0.1993 -0.3544
 1683TIP3    H126540   1.801   0.159  73.726 -0.8897 -2.0719  0.2179
 1683TIP3    H226541   1.944   0.132  73.768 -0.2320  0.5473 -0.2069
 1684TIP3   OH226542   1.709   0.300  29.460 -0.0553  0.3466 -0.2851
 1684TIP3    H126543   1.659   0.317  29.540  1.8631 -0.5170  1.2058
 1684TIP3    H226544   1.696   0.378  29.407 -1.8951  0.6865  0.5919
 1685TIP3   OH226545   2.058   1.979  31.826 -0.1872 -0.2361 -0.3530
 1685TIP3    H126546   2.053   1.883  31.828 -1.0591 -0.1920 -0.2756
 1685TIP3    H226547   2.024   2.004  31.740 -0.9211  0.0500  0.0086
 1686TIP3   OH226548   1.508   1.785 104.499  0.1327 -0.2549 -0.2490
 1686TIP3    H126549   1.573   1.818 104.561  1.5258 -0.8355 -1.3675
 1686TIP3    H226550   1.488   1.859 104.442 -1.2981  0.3391  0.9473
 1687TIP3   OH226551   0.384   1.147  34.831  0.4538  0.4590 -0.0031
 1687TIP3    H126552   0.390   1.054  34.808  0.4731  0.6150 -0.6467
 1687TIP3    H226553   0.446   1.190  34.771 -0.2100  0.9917 -0.3132
 1688TIP3   OH226554   2.684   1.619  30.477 -0.5575 -0.2650  0.6158
 1688TIP3    H126555   2.640   1.666  30.548  0.5315  0.4337  0.8633
 1688TIP3    H226556   2.761   1.580  30.518 -1.0733 -1.7156  0.2565
 1689TIP3   OH226557   0.537   0.043  12.265  0.4635 -0.2020  0.1141
 1689TIP3    H126558   0.498   0.116  12.313 -0.3116 -0.6408  0.1739
 1689TIP3    H226559   0.474   0.024  12.196  0.4584 -1.0692  0.3480
 1690TIP3   OH226560   0.420   1.182  78.566  0.3227  0.2617 -0.2405
 1690TIP3    H126561   0.441   1.091  78.545 -0.6708  0.1980 -1.0599
 1690TIP3    H226562   0.417   1.226  78.481  0.0648  0.9057  0.0947
 1691TIP3   OH226563   0.238   1.352  97.565  0.1846  0.0243 -0.5532
 1691TIP3    H126564   0.295   1.428  97.551 -0.8259  1.0525  0.6858
 1691TIP3    H226565   0.151   1.383  97.538 -0.6375  0.0494  1.8936
 1692TIP3   OH226566   0.563   2.087   9.828  0.1013  0.2085  0.4115
 1692TIP3    H126567   0.563   2.014   9.766 -0.4060  0.7443 -0.2208
 1692TIP3    H226568   0.652   2.123   9.822 -0.3527  1.1553 -1.0872
 1693TIP3   OH226569   0.460   0.492  35.311 -0.2268 -1.0235 -0.4345
 1693TIP3    H126570   0.455   0.463  35.402 -2.4275  1.6994  0.4710
 1693TIP3    H226571   0.375   0.470  35.274 -0.1217 -0.2660 -1.1748
 1694TIP3   OH226572   1.057   2.340 109.986 -0.0817 -0.3154  0.3043
 1694TIP3    H126573   1.045   2.282 110.061  0.4977  1.7663  2.0975
 1694TIP3    H226574   1.149   2.326 109.960 -0.1651 -0.7372  0.2234
 1695TIP3   OH226575   0.149   1.848 111.661 -0.2566 -0.8049  0.0506
 1695TIP3    H126576   0.113   1.902 111.590  0.2060  0.6287  0.8531
 1695TIP3    H226577   0.181   1.912 111.725  1.4697 -2.0237  0.4813
 1696TIP3   OH226578   2.679   2.574  80.076 -0.2968  0.3950 -0.1069
 1696TIP3    H126579   2.672   2.544  80.167  0.7318  1.6445  0.4125
 1696TIP3    H226580   2.739   2.512  80.035 -0.6834 -0.1158  0.0818
 1697TIP3   OH226581   2.340   1.164   7.758 -0.2326 -0.3601  0.0984
 1697TIP3    H126582   2.302   1.144   7.673  0.5358  2.6967 -1.0748
 1697TIP3    H226583   2.272   1.139   7.821 -2.0443  0.0980 -1.5860
 1698TIP3   OH226584   0.334   0.171  21.308 -0.2822 -0.1664 -0.5494
 1698TIP3    H126585   0.319   0.081  21.337  0.3546 -0.3402 -0.7380
 1698TIP3    H226586   0.255   0.195  21.261  0.1066 -1.1436 -1.7451
 1699TIP3   OH226587   1.342   1.581  91.234  0.3979  0.3758  0.5298
 1699TIP3    H126588   1.380   1.604  91.150 -2.8877 -0.3298 -1.3347
 1699TIP3    H226589   1.409   1.603  91.299  3.4556  0.0328 -2.2934
 1700TIP3   OH226590   1.837   1.062  24.506  0.0890 -0.9242  0.3418
 1700TIP3    H126591   1.918   1.061  24.455  0.5729 -2.7213  1.0581
 1700TIP3    H226592   1.866   1.057  24.597 -0.8041 -0.9754  0.6316
 1701TIP3   OH226593   1.888   1.105  92.281  0.1481  0.4271 -0.2646
 1701TIP3    H126594   1.855   1.022  92.314 -0.1129  0.3324 -0.7590
 1701TIP3    H226595   1.899   1.091  92.187  0.1791  0.9226 -0.3374
 1702TIP3   OH226596   1.442   0.943  74.310 -0.4962  0.2740 -0.4281
 1702TIP3    H126597   1.453   0.959  74.217  0.1654 -1.9354 -0.8021
 1702TIP3    H226598   1.417   0.851  74.315 -0.9263  0.4582  1.5591
 1703TIP3   OH226599   1.427   1.236 103.198 -0.3438  0.0921 -0.9772
 1703TIP3    H126600   1.409   1.170 103.265 -3.1282  0.4228 -1.3089
 1703TIP3    H226601   1.482   1.191 103.134 -0.8485 -1.3903 -0.3911
 1704TIP3   OH226602   1.196   0.570  77.826 -0.0555 -0.2469  0.5262
 1704TIP3    H126603   1.199   0.527  77.912  0.0929 -0.2011  0.5445
 1704TIP3    H226604   1.150   0.652  77.842 -2.4331 -1.3892  0.0522
 1705TIP3   OH226605   1.030   1.353 110.900 -0.5871  0.1281 -0.0611
 1705TIP3    H126606   1.066   1.273 110.938 -1.2818 -1.1040 -1.8498
 1705TIP3    H226607   1.063   1.424 110.956 -1.1891 -1.4937  2.5165
 1706TIP3   OH226608   0.201   0.283  28.998 -0.2810 -0.3822  0.3654
 1706TIP3    H126609   0.211   0.334  29.078  1.8578  0.6566 -0.4609
 1706TIP3    H226610   0.276   0.223  28.998 -0.0910 -0.1769 -0.9430
 1707TIP3   OH226611   0.467   0.888  14.082 -0.1236  0.6483  0.1940
 1707TIP3    H126612   0.510   0.945  14.019  0.1448  0.0955 -0.1335
 1707TIP3    H226613   0.516   0.899  14.163  1.6151 -1.0726 -0.5435
 1708TIP3   OH226614   1.905   1.870 103.256 -0.3078  0.0756 -0.4897
 1708TIP3    H126615   1.822   1.831 103.227 -0.5812  0.2166  0.0827
 1708TIP3    H226616   1.879   1.953 103.297 -0.0147 -0.4083  0.7261
 1709TIP3   OH226617   1.926   0.747 100.672 -0.0687 -0.0864  0.3490
 1709TIP3    H126618   1.871   0.675 100.641 -0.7537  0.7802 -0.4966
 1709TIP3    H226619   1.865   0.820 100.684  0.6457  0.4078  1.0236
 1710TIP3   OH226620   1.539   1.101  82.541 -0.1431 -0.5680  0.3402
 1710TIP3    H126621   1.550   1.139  82.629  1.4135 -2.1035  0.8602
 1710TIP3    H226622   1.528   1.007  82.557 -3.1779 -0.5645 -0.9597
 1711TIP3   OH226623   2.036   2.359  92.824 -0.2925 -0.3446  0.1905
 1711TIP3    H126624   1.992   2.288  92.871  0.2224 -0.8949 -0.1381
 1711TIP3    H226625   2.079   2.409  92.893 -3.0113  1.4211  0.7608
 1712TIP3   OH226626   0.662   1.430  29.991 -0.0925  0.2227  0.4377
 1712TIP3    H126627   0.603   1.355  29.986 -0.1049  0.1728  1.2340
 1712TIP3    H226628   0.661   1.467  29.902 -0.2619 -0.5754  0.1009
 1713TIP3   OH226629   0.117   1.932  91.548  0.1463  0.8456 -0.0675
 1713TIP3    H126630   0.164   1.934  91.464 -0.5042 -1.0176 -0.5180
 1713TIP3    H226631   0.025   1.920  91.524 -0.2451  1.8134  0.8848
 1714TIP3   OH226632   0.300   0.889  24.564  0.5081 -0.4227  0.1435
 1714TIP3    H126633   0.316   0.858  24.475 -1.5188  1.1986 -0.8617
 1714TIP3    H226634   0.380   0.936  24.587 -0.2020  2.3380 -2.3609
 1715TIP3   OH226635   1.457   2.252  27.884  0.1205  0.1119 -0.0256
 1715TIP3    H126636   1.373   2.274  27.843 -0.1130 -2.5665 -1.1598
 1715TIP3    H226637   1.443   2.166  27.924  2.0890 -0.0019  0.5319
 1716TIP3   OH226638   0.117   1.729 101.472  0.3971 -0.0320 -0.3717
 1716TIP3    H126639   0.036   1.708 101.426 -0.0525  0.3355  0.2335
 1716TIP3    H226640   0.124   1.662 101.540  0.1879  0.3922  0.0747
 1717TIP3   OH226641   0.614   0.608 106.103  0.0649  0.1153 -0.2212
 1717TIP3    H126642   0.700   0.580 106.133 -0.5066 -0.4303  0.9450
 1717TIP3    H226643   0.574   0.529 106.068 -0.1320  0.2825 -0.3731
 1718TIP3   OH226644   0.344   2.468  29.034 -0.3632 -0.0414 -0.5547
 1718TIP3    H126645   0.318   2.560  29.043 -0.4967 -0.1646  0.4456
 1718TIP3    H226646   0.318   2.428  29.117  2.5384 -0.2886  0.3410
 1719TIP3   OH226647   0.356   1.827 104.423 -0.0737  0.7759  0.4380
 1719TIP3    H126648   0.431   1.770 104.407 -0.3829  0.5765 -0.3605
 1719TIP3    H226649   0.394   1.911 104.446  0.3974  0.5742  0.4135
 1720TIP3   OH226650   1.597   0.572 101.549  0.0902  0.4879 -0.5291
 1720TIP3    H126651   1.629   0.484 101.527 -1.9063 -0.5497  0.4770
 1720TIP3    H226652   1.507   0.573 101.517 -0.4866  1.5364  1.0334
 1721TIP3   OH226653   0.886   2.584   0.392 -0.5378  0.3587 -0.5952
 1721TIP3    H126654   0.819   2.566   0.326  0.6561 -0.0414 -1.7429
 1721TIP3    H226655   0.959   2.622   0.342  0.5382 -0.2970  0.4271
 1722TIP3   OH226656   0.507   0.877  26.191  0.0177 -0.0990  0.2419
 1722TIP3    H126657   0.471   0.908  26.108 -0.0189 -0.7603  0.0091
 1722TIP3    H226658   0.580   0.937  26.209 -0.8732  0.9460  0.4801
 1723TIP3   OH226659   0.862   2.194  32.002  0.0383  0.0155  0.5140
 1723TIP3    H126660   0.820   2.272  32.039 -0.4735  0.5413 -1.1098
 1723TIP3    H226661   0.815   2.178  31.920  0.0872 -2.0519  0.8323
 1724TIP3   OH226662   0.039   1.907  68.346  0.8904 -0.4343 -0.2268
 1724TIP3    H126663  -0.016   1.842  68.303 -1.3537  0.5387  0.9931
 1724TIP3    H226664   0.069   1.963  68.274  1.9831 -2.1166 -1.1507
 1725TIP3   OH226665   0.068   0.476  70.071  0.1093 -0.8094 -0.2976
 1725TIP3    H126666   0.019   0.468  70.154 -1.1446  1.7919 -0.6717
 1725TIP3    H226667   0.147   0.424  70.085 -1.2557 -2.5700  1.5565
 1726TIP3   OH226668   0.152   1.307  68.731 -0.2170  0.1891 -0.4760
 1726TIP3    H126669   0.206   1.229  68.739 -2.2837 -1.2086  0.7516
 1726TIP3    H226670   0.147   1.323  68.636  2.8161  0.8226 -0.6192
 1727TIP3   OH226671   0.040   0.192  87.206  0.1808  0.1616 -0.2467
 1727TIP3    H126672   0.038   0.123  87.273 -0.8114  0.7524  0.3367
 1727TIP3    H226673  -0.051   0.216  87.192  0.2193 -0.7918 -2.7284
 1728TIP3   OH226674   1.423   0.131  90.040 -0.4328 -0.4866  0.3950
 1728TIP3    H126675   1.362   0.082  89.984  0.7696 -1.6434  0.0439
 1728TIP3    H226676   1.464   0.063  90.094  0.3669  0.2969  0.7869
 1729TIP3   OH226677   1.908   2.172  26.815  0.0945 -0.1054  0.6078
 1729TIP3    H126678   1.886   2.154  26.906 -0.4272 -0.4009  0.4284
 1729TIP3    H226679   1.867   2.101  26.766  1.7937 -0.9096  0.2828
 1730TIP3   OH226680   1.784   0.798  76.364 -0.7366 -0.2781  0.0002
 1730TIP3    H126681   1.807   0.737  76.434 -2.0582 -0.7341  0.0786
 1730TIP3    H226682   1.737   0.868  76.409  0.4959  0.6533 -0.1325
 1731TIP3   OH226683   0.645   2.260  81.627 -0.0955  0.6049  0.1506
 1731TIP3    H126684   0.622   2.353  81.624  1.3942  0.9912 -0.1886
 1731TIP3    H226685   0.632   2.236  81.719 -0.8632  1.0392  0.1704
 1732TIP3   OH226686   0.766   0.512  13.267 -0.3240 -0.0546  0.5728
 1732TIP3    H126687   0.834   0.478  13.208 -0.4627  0.0748  0.3397
 1732TIP3    H226688   0.743   0.597  13.231 -1.1998 -0.4506  0.1735
 1733TIP3   OH226689   1.214   0.344   0.428 -0.1499 -0.0662  0.2103
 1733TIP3    H126690   1.121   0.352   0.406 -0.6408 -1.1636  1.6596
 1733TIP3    H226691   1.240   0.259   0.391  0.8484  1.0599 -1.8605
 1734TIP3   OH226692   1.825   1.004 105.214 -0.5684  0.2543  0.5684
 1734TIP3    H126693   1.759   1.017 105.282 -0.4702  1.0833  0.5157
 1734TIP3    H226694   1.877   0.930 105.245 -2.0810 -1.0352  0.1478
 1735TIP3   OH226695   2.126   0.376  85.001  0.1781  0.2594  0.0467
 1735TIP3    H126696   2.196   0.339  85.054 -0.6489 -2.2156 -0.4803
 1735TIP3    H226697   2.055   0.395  85.062  0.6451  1.1584  0.3324
 1736TIP3   OH226698   0.679   0.348  94.926  0.2613  0.2369  0.0466
 1736TIP3    H126699   0.655   0.314  94.840 -0.2327  0.4589  0.0926
 1736TIP3    H226700   0.603   0.330  94.981 -0.2912  1.9858 -0.0906
 1737TIP3   OH226701   2.004   1.092   9.155  0.0761 -0.2048 -0.2723
 1737TIP3    H126702   2.025   1.010   9.111  0.0346 -0.6614  0.5429
 1737TIP3    H226703   1.964   1.065   9.238 -1.7789  0.6204 -0.8468
 1738TIP3   OH226704   0.921   1.068   7.263 -0.4903 -0.3361  0.3115
 1738TIP3    H126705   0.913   1.005   7.192  0.2782  0.8213 -0.8539
 1738TIP3    H226706   0.832   1.103   7.274 -0.3775  0.4438 -1.0388
 1739TIP3   OH226707   2.305   1.773  33.023 -0.4375 -0.2215  0.2929
 1739TIP3    H126708   2.300   1.694  32.970  0.2306  0.3648 -0.6664
 1739TIP3    H226709   2.216   1.784  33.058 -0.3066 -1.9105  1.2459
 1740TIP3   OH226710   1.769   0.596  19.393 -0.3331  0.3810 -0.0730
 1740TIP3    H126711   1.860   0.597  19.363 -0.6380  0.6427 -1.0342
 1740TIP3    H226712   1.733   0.679  19.362 -1.3781 -0.4828 -1.2928
 1741TIP3   OH226713   1.408   0.598  90.139  0.6657 -0.5226  0.0386
 1741TIP3    H126714   1.423   0.639  90.053 -1.4992  0.8396  0.2359
 1741TIP3    H226715   1.411   0.671  90.201  0.5648 -1.2509  0.9152
 1742TIP3   OH226716   1.378   0.062  93.905  0.0380 -0.1544  0.0617
 1742TIP3    H126717   1.359  -0.002  93.837 -0.2679  0.4373 -0.4063
 1742TIP3    H226718   1.365   0.013  93.987  0.7086 -0.9528 -0.2924
 1743TIP3   OH226719   0.867   0.504  17.394 -0.2839  0.1672  0.3763
 1743TIP3    H126720   0.928   0.476  17.463 -0.7551 -1.4659  0.1799
 1743TIP3    H226721   0.882   0.442  17.322 -0.6901  1.0641 -0.4988
 1744TIP3   OH226722   0.251   1.804  29.948 -0.6125 -0.5920 -0.1815
 1744TIP3    H126723   0.208   1.751  30.016 -0.7162 -0.3516 -0.0602
 1744TIP3    H226724   0.344   1.797  29.967 -0.6387 -0.5581 -0.0396
 1745TIP3   OH226725   1.897   0.991  91.498  0.4808 -0.0949 -0.1613
 1745TIP3    H126726   1.857   1.012  91.583 -0.3183 -0.7529 -0.3585
 1745TIP3    H226727   1.834   1.024  91.434  0.1468 -1.2956 -0.4792
 1746TIP3   OH226728   2.138   1.244  17.336 -0.0010 -0.1162 -0.0847
 1746TIP3    H126729   2.091   1.242  17.419 -0.4937 -1.4666 -0.3751
 1746TIP3    H226730   2.075   1.213  17.271  0.4041  0.8314 -0.9730
 1747TIP3   OH226731   0.793   1.658  80.205 -0.7951  0.5872  0.0130
 1747TIP3    H126732   0.829   1.730  80.152  2.3513 -2.1874 -1.9794
 1747TIP3    H226733   0.714   1.632  80.159  0.3579  0.0922 -1.7929
 1748TIP3   OH226734   2.651   2.221   0.996 -0.0492  0.0489  0.0252
 1748TIP3    H126735   2.689   2.288   0.938  1.0326 -2.1873 -2.0259
 1748TIP3    H226736   2.707   2.223   1.074  0.0338  1.4213 -0.0433
 1749TIP3   OH226737   2.298   2.017 106.100 -0.0141 -0.0060 -0.2456
 1749TIP3    H126738   2.364   2.003 106.031 -1.7462  0.8202 -2.1756
 1749TIP3    H226739   2.317   2.105 106.133 -0.4726  0.4975 -1.2511
 1750TIP3   OH226740   0.761   0.088 109.073 -0.0036 -0.2024  0.0575
 1750TIP3    H126741   0.734   0.014 109.127 -0.0295 -0.1842  0.0700
 1750TIP3    H226742   0.706   0.161 109.103  0.4833 -0.0163  0.4953
 1751TIP3   OH226743   0.950   2.349  82.345 -0.2403 -0.1276 -0.0840
 1751TIP3    H126744   0.975   2.346  82.438 -0.7504  1.0504  0.1184
 1751TIP3    H226745   0.954   2.442  82.322 -2.8864 -0.0126 -0.4264
 1752TIP3   OH226746   0.615   0.186 109.395  0.1455  0.1955  0.1838
 1752TIP3    H126747   0.520   0.182 109.405  0.1780 -2.1423  0.1781
 1752TIP3    H226748   0.630   0.255 109.330 -1.7021 -0.7713 -1.3731
 1753TIP3   OH226749   1.994   0.178  23.817  0.2091  0.8856 -0.0517
 1753TIP3    H126750   2.010   0.084  23.824 -0.3781  0.6382 -1.7328
 1753TIP3    H226751   2.047   0.216  23.888  2.3482 -0.5000 -0.8025
 1754TIP3   OH226752   1.650   1.826  16.735 -0.3643  0.2225  0.4129
 1754TIP3    H126753   1.581   1.763  16.759  0.0466 -0.0238  0.9622
 1754TIP3    H226754   1.695   1.785  16.662  0.7100 -0.7372  1.5614
 1755TIP3   OH226755   2.561   1.369  52.151  0.6558 -0.0021 -0.2225
 1755TIP3    H126756   2.471   1.346  52.127  0.9291 -0.7121 -0.6139
 1755TIP3    H226757   2.554   1.409  52.238 -0.2881  2.0682 -1.1884
 1756TIP3   OH226758   0.973   1.504  93.322 -0.3386  0.1102  0.1474
 1756TIP3    H126759   0.881   1.530  93.334 -1.2593 -2.4942 -0.6028
 1756TIP3    H226760   0.974   1.411  93.344  1.2097 -1.0016 -3.8058
 1757TIP3   OH226761   1.825   1.763 109.465 -0.2827  0.4153  0.3589
 1757TIP3    H126762   1.868   1.783 109.382 -0.0821 -0.4733  0.2394
 1757TIP3    H226763   1.775   1.842 109.486 -0.8846  0.4004 -0.9414
 1758TIP3   OH226764   2.388   2.261  11.090 -0.2178  0.5993  0.1968
 1758TIP3    H126765   2.339   2.325  11.143 -1.5346 -1.3058  1.3918
 1758TIP3    H226766   2.339   2.180  11.100  2.0045 -0.8849 -0.4241
 1759TIP3   OH226767   2.664   2.243  17.310 -0.2160  0.3960 -0.1229
 1759TIP3    H126768   2.632   2.163  17.267  1.3185 -0.1159 -0.3884
 1759TIP3    H226769   2.713   2.289  17.242  0.0042  0.9192  0.3802
 1760TIP3   OH226770   0.162   2.338 107.812 -0.0531  0.1392  0.3197
 1760TIP3    H126771   0.223   2.409 107.789 -1.5740  1.2453 -0.4273
 1760TIP3    H226772   0.162   2.338 107.908  0.3611  0.7916  0.3337
 1761TIP3   OH226773   0.081   2.108 104.850  0.2075  0.6017  0.7000
 1761TIP3    H126774   0.076   2.179 104.786 -0.5241  0.3086  0.4219
 1761TIP3    H226775   0.135   2.041 104.807 -0.0449  0.5228  0.5010
 1762TIP3   OH226776   2.410   0.826  58.194 -0.6283  0.0567 -0.4502
 1762TIP3    H126777   2.433   0.796  58.282 -0.4377  0.2657 -0.4290
 1762TIP3    H226778   2.493   0.825  58.146 -0.6452  0.4229 -0.4872
 1763TIP3   OH226779   2.628   1.219  19.073  0.4648  0.0497 -0.5019
 1763TIP3    H126780   2.651   1.126  19.081  1.3786  0.2802 -0.3233
 1763TIP3    H226781   2.536   1.223  19.098  0.4149 -0.8106 -0.5060
 1764TIP3   OH226782   1.492   2.273  87.272  0.0092  0.1809  0.3184
 1764TIP3    H126783   1.539   2.251  87.191 -1.6644  1.3662 -1.0516
 1764TIP3    H226784   1.416   2.215  87.272 -0.7407  1.1277  0.2685
 1765TIP3   OH226785   0.196   1.705   6.558 -0.1651  0.2489  0.3104
 1765TIP3    H126786   0.125   1.641   6.549  0.2084 -0.3338  1.3609
 1765TIP3    H226787   0.178   1.749   6.640 -0.5350  1.6839 -0.5043
 1766TIP3   OH226788   2.084   1.290  88.449 -0.0489  0.1918 -0.6204
 1766TIP3    H126789   2.095   1.238  88.369 -0.5756  0.0260 -0.5885
 1766TIP3    H226790   2.093   1.226  88.520 -3.8848 -0.5622 -0.6145
 1767TIP3   OH226791   0.379   2.182 108.209 -0.0056 -0.0065 -0.4777
 1767TIP3    H126792   0.397   2.244 108.138  0.3902  0.0034 -0.3788
 1767TIP3    H226793   0.322   2.230 108.269  0.3787  0.2967 -0.3490
 1768TIP3   OH226794   2.213   0.979  28.946  0.3696  0.3654 -0.0557
 1768TIP3    H126795   2.244   1.041  28.880  1.3578 -0.3711 -0.3025
 1768TIP3    H226796   2.290   0.962  29.000  0.2979 -1.1762 -0.4171
 1769TIP3   OH226797   0.949   2.543  29.739 -0.2767  0.1319  0.0112
 1769TIP3    H126798   0.989   2.584  29.662  1.5271 -1.7603 -0.1420
 1769TIP3    H226799   0.957   2.610  29.808 -1.7667  1.7889 -1.3264
 1770TIP3   OH226800   1.896   2.264  28.540 -0.4621 -0.0343  0.0134
 1770TIP3    H126801   1.983   2.248  28.503 -0.2141 -0.1829  0.6530
 1770TIP3    H226802   1.841   2.195  28.502 -0.3291  0.1211 -0.4721
 1771TIP3   OH226803   1.637   2.684   8.098  0.4177  0.2735 -0.1461
 1771TIP3    H126804   1.719   2.649   8.133  0.1267  1.6364  2.0931
 1771TIP3    H226805   1.585   2.706   8.175 -2.3196 -0.9871 -1.4914
 1772TIP3   OH226806   0.151   0.058  91.510  0.9531 -0.1335  0.3649
 1772TIP3    H126807   0.203   0.131  91.477  2.1286 -1.5065 -0.9715
 1772TIP3    H226808   0.215  -0.002  91.548  0.0984 -0.8218  0.7548
 1773TIP3   OH226809   1.994   2.013  28.265 -0.0508 -0.2196  0.2532
 1773TIP3    H126810   2.020   2.089  28.214  1.2577 -1.1825 -0.6047
 1773TIP3    H226811   1.914   1.982  28.223 -0.8729  0.9388  0.9189
 1774TIP3   OH226812   0.676   0.788  28.445  0.0188  0.1127  0.1362
 1774TIP3    H126813   0.755   0.778  28.392 -0.2885 -0.3378 -0.2492
 1774TIP3    H226814   0.644   0.876  28.425  0.2750  0.1963  0.0885
 1775TIP3   OH226815   2.615   1.186  29.164 -0.3372 -0.2452 -0.1967
 1775TIP3    H126816   2.607   1.281  29.152 -0.2816 -0.0940  0.9029
 1775TIP3    H226817   2.585   1.149  29.081 -2.3881  0.6762  0.0793
 1776TIP3   OH226818   2.449   0.756   1.766  0.1011 -0.0040  0.5947
 1776TIP3    H126819   2.534   0.719   1.744 -0.1789  0.1989 -0.9203
 1776TIP3    H226820   2.429   0.720   1.852  0.9827 -1.3586  0.2632
 1777TIP3   OH226821   1.431   2.203  12.621 -0.2264 -0.3240  0.2939
 1777TIP3    H126822   1.388   2.279  12.661 -2.0495 -1.4723  0.5917
 1777TIP3    H226823   1.488   2.241  12.554  0.1969  1.4073  1.5326
 1778TIP3   OH226824   2.214   0.465  78.050 -0.0335  0.6084 -0.3852
 1778TIP3    H126825   2.133   0.467  77.998  0.2540  1.7336 -0.8261
 1778TIP3    H226826   2.283   0.490  77.987  0.6919 -0.5340 -0.0753
 1779TIP3   OH226827   2.326   2.201  10.390  0.0671  0.8113 -0.1487
 1779TIP3    H126828   2.323   2.297  10.394  0.3975  0.8146  0.1659
 1779TIP3    H226829   2.263   2.177  10.323  1.3199  1.3482 -1.5758
 1780TIP3   OH226830   2.681   2.256  11.061 -0.1616 -0.1943  0.0936
 1780TIP3    H126831   2.591   2.289  11.061  0.7265  2.5384  1.7800
 1780TIP3    H226832   2.679   2.181  11.121 -0.9745  1.1431  1.8304
 1781TIP3   OH226833   1.185   2.674  21.827  0.1275  0.0834 -0.4731
 1781TIP3    H126834   1.198   2.581  21.810  0.7427 -0.1662  1.1318
 1781TIP3    H226835   1.191   2.716  21.741  0.5793 -1.2725 -1.1291
 1782TIP3   OH226836   1.417   1.538  83.883 -0.3553 -0.0350  0.2124
 1782TIP3    H126837   1.347   1.487  83.924  0.0297  0.2803  1.2885
 1782TIP3    H226838   1.476   1.561  83.955 -0.4714  1.8365 -0.2268
 1783TIP3   OH226839   1.997   1.151  93.266 -0.3671 -0.2005  0.4313
 1783TIP3    H126840   1.976   1.175  93.176  3.1851  2.2117  0.0444
 1783TIP3    H226841   1.937   1.203  93.320 -1.8585 -0.9261 -0.4832
 1784TIP3   OH226842   1.486   0.310  33.303  0.2106  0.1217 -0.0691
 1784TIP3    H126843   1.545   0.384  33.319  2.1252 -1.0703 -1.2979
 1784TIP3    H226844   1.478   0.267  33.388  0.8632  0.4756  0.1756
 1785TIP3   OH226845   0.526   0.052  93.585 -0.3488  0.3620 -0.7092
 1785TIP3    H126846   0.606   0.033  93.634 -0.1184  0.8353 -0.8968
 1785TIP3    H226847   0.504  -0.031  93.542 -2.5050 -1.1785  2.9019
 1786TIP3   OH226848   1.104   2.460  81.418  0.1706  0.2147  0.3524
 1786TIP3    H126849   1.017   2.495  81.400 -1.3451 -2.2015  2.3511
 1786TIP3    H226850   1.120   2.397  81.348 -0.1019  0.0196  0.4603
 1787TIP3   OH226851   1.018   0.419   8.124  0.1161  0.1682 -0.2920
 1787TIP3    H126852   0.973   0.481   8.180  1.4413 -1.3147  2.6718
 1787TIP3    H226853   1.109   0.422   8.154  0.7236 -1.3219 -1.8245
 1788TIP3   OH226854   2.398   1.890  25.393 -0.2185  0.2633  0.2791
 1788TIP3    H126855   2.362   1.880  25.481 -0.0859  0.2517  0.3321
 1788TIP3    H226856   2.327   1.863  25.335 -0.4546  0.6838  0.3665
 1789TIP3   OH226857   1.617   1.181 108.624 -0.4631 -0.2874  0.3155
 1789TIP3    H126858   1.699   1.137 108.647  0.4357  1.3124  0.3139
 1789TIP3    H226859   1.581   1.212 108.707  0.1813  1.0768  0.1091
 1790TIP3   OH226860   2.671   1.234  32.137 -0.3802  0.3448  0.3580
 1790TIP3    H126861   2.661   1.221  32.042 -0.8357  1.3579  0.2564
 1790TIP3    H226862   2.719   1.157  32.166  1.5344  0.9356 -1.0276
 1791TIP3   OH226863   2.530   0.072  37.220 -0.0932 -0.2791  0.5141
 1791TIP3    H126864   2.468   0.023  37.166 -1.6797  0.0601  1.9288
 1791TIP3    H226865   2.593   0.007  37.250  0.1292 -0.6853 -0.7614
 1792TIP3   OH226866   1.248   0.820  97.904  0.5221  0.3689 -0.0548
 1792TIP3    H126867   1.340   0.835  97.886  0.3780  0.5292 -0.6589
 1792TIP3    H226868   1.213   0.779  97.825  0.0983  0.2028  0.2126
 1793TIP3   OH226869   2.383   0.848  20.599 -0.1106  0.0209  0.2308
 1793TIP3    H126870   2.455   0.788  20.586 -0.9426 -0.5904 -2.0399
 1793TIP3    H226871   2.306   0.792  20.612 -0.3066  0.6528  2.1704
 1794TIP3   OH226872   1.350   2.567  23.415  0.3281  0.1625  0.3135
 1794TIP3    H126873   1.344   2.482  23.459 -0.2716 -0.5286 -1.0368
 1794TIP3    H226874   1.435   2.566  23.372 -0.1872 -0.3003 -0.7305
 1795TIP3   OH226875   0.671   0.959  73.167 -0.1942  0.5350 -0.5415
 1795TIP3    H126876   0.678   1.054  73.179  0.2426  0.4564 -0.1360
 1795TIP3    H226877   0.621   0.929  73.242  0.6444  0.3116 -0.0604
 1796TIP3   OH226878   1.408   0.942  27.901  0.1136  0.0235 -0.1152
 1796TIP3    H126879   1.499   0.931  27.929  0.4049  0.3396 -0.8874
 1796TIP3    H226880   1.405   0.902  27.814 -0.8354 -1.2176  0.4523
 1797TIP3   OH226881   1.187   1.547  22.808  0.2335  0.0459  0.3338
 1797TIP3    H126882   1.269   1.513  22.843 -0.5365 -2.4191 -0.0468
 1797TIP3    H226883   1.145   1.471  22.767 -1.8527  1.4082 -0.2239
 1798TIP3   OH226884   2.041   0.489  22.258 -0.1125 -0.0191 -0.7285
 1798TIP3    H126885   2.090   0.540  22.322  1.3425 -0.6978 -1.2689
 1798TIP3    H226886   1.989   0.428  22.310  1.5237 -0.9963 -0.1604
 1799TIP3   OH226887   2.199   0.742  16.413 -0.3996  0.0223  0.4342
 1799TIP3    H126888   2.259   0.744  16.488 -0.8435  1.9159  0.7830
 1799TIP3    H226889   2.143   0.819  16.425  0.3075  1.1125 -2.5246
 1800TIP3   OH226890   0.682   2.578  78.878 -0.0895 -0.5742  0.3796
 1800TIP3    H126891   0.655   2.506  78.935  1.7689  0.6596  3.0701
 1800TIP3    H226892   0.608   2.638  78.878 -0.6405 -1.2472  0.3529
 1801TIP3   OH226893   1.488   1.683  75.530 -0.5133  0.2577  0.3148
 1801TIP3    H126894   1.518   1.676  75.621  0.1957 -0.4295  0.0366
 1801TIP3    H226895   1.533   1.612  75.484 -0.4288  0.9422 -0.6909
 1802TIP3   OH226896   2.239   0.416  31.389  0.0932 -0.6187  0.5154
 1802TIP3    H126897   2.294   0.362  31.446  0.2530 -0.0159  0.9461
 1802TIP3    H226898   2.166   0.443  31.446  0.4090  0.2314  0.5269
 1803TIP3   OH226899   0.594   2.416  79.081  1.0032 -0.2192  0.1149
 1803TIP3    H126900   0.603   2.323  79.059  2.5988  0.1027 -0.7265
 1803TIP3    H226901   0.586   2.417  79.176 -1.1081 -1.3222  0.0189
 1804TIP3   OH226902   0.445   2.564  53.262  0.5879  0.1045 -0.7864
 1804TIP3    H126903   0.393   2.601  53.191 -0.4873  0.5619  0.2031
 1804TIP3    H226904   0.455   2.636  53.325  0.7079 -0.5442 -0.0403
 1805TIP3   OH226905   0.850   1.715  76.578 -0.0486  0.2699 -0.0966
 1805TIP3    H126906   0.898   1.756  76.651  1.9977 -0.9895 -0.6405
 1805TIP3    H226907   0.865   1.621  76.590 -2.9155 -0.2712 -0.0369
 1806TIP3   OH226908   2.275   0.939  38.145 -0.0505 -0.2156 -0.1103
 1806TIP3    H126909   2.341   0.977  38.202  0.1865 -0.3844 -0.2731
 1806TIP3    H226910   2.236   0.869  38.197  0.3838 -0.5778 -0.2686
 1807TIP3   OH226911   2.514   1.863  11.945  0.5699 -0.0059 -0.0523
 1807TIP3    H126912   2.570   1.941  11.940 -0.7891  1.0511  0.3820
 1807TIP3    H226913   2.452   1.884  12.015  0.5373 -1.7473  0.4737
 1808TIP3   OH226914   0.726   1.230  31.275  0.2929  0.2687 -0.2789
 1808TIP3    H126915   0.670   1.154  31.257  0.5644 -0.1225  0.4984
 1808TIP3    H226916   0.734   1.274  31.190 -0.9552  0.1728 -0.4748
 1809TIP3   OH226917   0.918   2.017  75.431 -0.4057 -0.6625 -0.2031
 1809TIP3    H126918   0.907   1.932  75.390  2.3587 -2.2583  1.9720
 1809TIP3    H226919   0.902   2.001  75.524 -1.7979  1.7324  0.0826
 1810TIP3   OH226920   1.104   2.295   2.532  0.7926  0.1751  0.5427
 1810TIP3    H126921   1.096   2.383   2.569 -0.9105  0.2210  0.1406
 1810TIP3    H226922   1.124   2.309   2.440  0.4158  0.1320  0.4567
 1811TIP3   OH226923   0.619   2.606   1.165 -0.6560  0.3226 -0.5365
 1811TIP3    H126924   0.670   2.629   1.243 -0.8107  1.1786 -0.6825
 1811TIP3    H226925   0.528   2.622   1.189 -0.8328 -0.7415 -0.4408
 1812TIP3   OH226926   0.180   1.198  14.409  0.4847  0.2364 -0.1449
 1812TIP3    H126927   0.170   1.293  14.417 -1.1734  0.0331  0.6049
 1812TIP3    H226928   0.224   1.185  14.325  1.1593  1.6822 -0.0343
 1813TIP3   OH226929   1.231   1.010  27.219  0.1052  0.3975  0.0752
 1813TIP3    H126930   1.237   1.057  27.137 -1.6098  0.1210 -0.2628
 1813TIP3    H226931   1.148   0.962  27.213  0.7848 -1.0248  1.2435
 1814TIP3   OH226932   2.584   2.487  81.426 -0.1386  0.3385  0.2631
 1814TIP3    H126933   2.513   2.551  81.434 -0.8667 -0.6389  2.0404
 1814TIP3    H226934   2.541   2.405  81.405  0.5050 -0.1919  0.9862
 1815TIP3   OH226935   1.241   0.541 106.374  0.0607  0.3492 -0.4348
 1815TIP3    H126936   1.267   0.458 106.415 -0.8818  0.5869  0.6948
 1815TIP3    H226937   1.298   0.607 106.413 -0.8031  0.5687  0.4842
 1816TIP3   OH226938   2.625   0.035 102.733  0.0767 -0.2713  0.6762
 1816TIP3    H126939   2.699   0.034 102.793 -0.0368 -0.5973  0.8061
 1816TIP3    H226940   2.574   0.112 102.760  0.8642  0.5123 -0.0321
 1817TIP3   OH226941   0.777   1.784  13.683  0.6594  0.0290 -0.1609
 1817TIP3    H126942   0.776   1.798  13.588  3.4152  0.4491 -0.1914
 1817TIP3    H226943   0.869   1.776  13.706  0.0378 -0.7565  2.4250
 1818TIP3   OH226944   0.303   1.827   5.373 -0.2931  0.2613  0.4068
 1818TIP3    H126945   0.313   1.734   5.394 -1.5726  0.2374  1.0421
 1818TIP3    H226946   0.373   1.870   5.421  0.5152 -0.4065 -0.1558
 1819TIP3   OH226947   0.416   0.960  75.160  0.7626 -0.3347  0.1345
 1819TIP3    H126948   0.494   0.980  75.108  0.8165  0.9250  0.6626
 1819TIP3    H226949   0.413   1.029  75.226  0.7435 -1.9432  1.8947
 1820TIP3   OH226950   2.397   1.071  27.939 -0.3785  0.3454  0.0818
 1820TIP3    H126951   2.423   1.068  27.847  0.0996 -0.4153  0.2335
 1820TIP3    H226952   2.420   0.985  27.974  1.1556  1.2221  1.3721
 1821TIP3   OH226953   2.151   0.233  40.231  0.5655 -0.0668  0.5484
 1821TIP3    H126954   2.132   0.140  40.224  0.1385 -0.0065  0.8606
 1821TIP3    H226955   2.203   0.253  40.153  2.1986 -0.9334  1.3494
 1822TIP3   OH226956   2.646   1.660 112.147  0.1963  0.1439  0.3575
 1822TIP3    H126957   2.725   1.609 112.166  0.8126  1.5602  1.8252
 1822TIP3    H226958   2.676   1.729 112.088 -0.1496  0.1130  0.1421
 1823TIP3   OH226959   1.056   2.030  51.474  0.1980  0.2918 -0.3153
 1823TIP3    H126960   1.018   1.955  51.521 -0.8713  1.4978  0.8300
 1823TIP3    H226961   1.135   1.995  51.433 -0.4752 -1.5533 -0.1529
 1824TIP3   OH226962   0.620   2.070  23.593 -0.3289 -0.5315  0.0274
 1824TIP3    H126963   0.689   2.113  23.542 -1.9697  1.8172 -0.3503
 1824TIP3    H226964   0.545   2.066  23.534 -1.4102 -0.3219  1.3272
 1825TIP3   OH226965   2.001   1.565  37.168  0.0166  0.2534  0.0591
 1825TIP3    H126966   1.923   1.614  37.193 -1.1629 -1.7760  0.5722
 1825TIP3    H226967   2.027   1.518  37.247  1.4609  0.4805 -0.2516
 1826TIP3   OH226968   0.841   2.561  21.966 -0.1947  0.5931 -0.5909
 1826TIP3    H126969   0.766   2.609  21.930 -0.6317 -0.3236 -0.9482
 1826TIP3    H226970   0.852   2.596  22.055 -2.5256 -0.7914  0.3462
 1827TIP3   OH226971   1.619   2.035  21.081 -0.2445 -0.0740 -0.7305
 1827TIP3    H126972   1.621   2.129  21.063  1.6397  0.0580 -0.0826
 1827TIP3    H226973   1.649   2.027  21.171 -2.2643 -1.2000 -0.1056
 1828TIP3   OH226974   0.320   0.647  25.810 -0.0335 -0.1690  0.0907
 1828TIP3    H126975   0.227   0.655  25.792 -0.2382 -0.6227  0.9159
 1828TIP3    H226976   0.352   0.738  25.814 -0.2393 -0.0251 -1.1100
 1829TIP3   OH226977   2.465   0.471  92.636  0.0182 -0.1547  0.1451
 1829TIP3    H126978   2.533   0.407  92.657 -0.5714 -0.7800  0.1820
 1829TIP3    H226979   2.396   0.420  92.592 -0.5426  0.4219  0.3332
 1830TIP3   OH226980   0.490   2.041   7.146  0.0287 -0.2308  0.0378
 1830TIP3    H126981   0.535   2.062   7.228 -0.1369  0.5852 -0.0746
 1830TIP3    H226982   0.554   2.062   7.078  0.0120 -0.5017 -0.0636
 1831TIP3   OH226983   0.083   1.003   8.974  0.5171 -0.2460  0.6243
 1831TIP3    H126984   0.073   1.000   8.879 -0.5983 -2.4123  0.7491
 1831TIP3    H226985   0.163   0.953   8.991 -0.0532 -1.0836  0.8879
 1832TIP3   OH226986   0.782   0.216 104.341  0.5768 -0.4799 -0.0836
 1832TIP3    H126987   0.691   0.244 104.325  0.6147 -0.8154 -0.9418
 1832TIP3    H226988   0.823   0.292 104.383  0.4704  0.5226 -1.6758
 1833TIP3   OH226989   0.124   0.642  99.588 -0.7363 -0.0947  0.0234
 1833TIP3    H126990   0.179   0.568  99.563 -0.1964 -0.0566  1.0387
 1833TIP3    H226991   0.071   0.610  99.660 -0.7437  0.3977  0.2465
 1834TIP3   OH226992   0.250   1.067  27.154  0.0812  0.1753 -0.0858
 1834TIP3    H126993   0.236   1.142  27.096  0.4876 -0.3179 -0.8411
 1834TIP3    H226994   0.345   1.055  27.154 -0.0426 -0.9194 -0.7334
 1835TIP3   OH226995   0.993   0.793  95.581 -0.1416 -0.4890  0.0980
 1835TIP3    H126996   0.957   0.714  95.540  0.7603  0.2854 -2.3304
 1835TIP3    H226997   1.087   0.788  95.565  0.2612 -0.0953  2.0991
 1836TIP3   OH226998   0.329   0.434  67.000 -0.2340  0.1048  0.6359
 1836TIP3    H126999   0.238   0.435  66.972 -0.2226 -1.3903  0.4658
 1836TIP3    H227000   0.362   0.522  66.979 -1.1755  0.1418 -0.7908
 1837TIP3   OH227001   2.600   2.426  74.366  0.1881 -0.1406  0.5360
 1837TIP3    H127002   2.679   2.423  74.421 -0.0221 -2.3418  0.7908
 1837TIP3    H227003   2.549   2.498  74.402  1.8715  1.0847  0.6190
 1838TIP3   OH227004   1.615   0.369  95.696  0.1344 -0.0935 -0.5345
 1838TIP3    H127005   1.571   0.336  95.774  0.1730 -1.1837 -0.9585
 1838TIP3    H227006   1.544   0.389  95.634  0.1030  0.7796 -0.2310
 1839TIP3   OH227007   0.303   1.529 101.884 -0.1044  0.0054 -0.3004
 1839TIP3    H127008   0.393   1.514 101.911  0.4902  1.2508 -1.4614
 1839TIP3    H227009   0.250   1.478 101.945  1.3214  0.1537  1.1115
 1840TIP3   OH227010   2.338   0.039  13.231 -0.0676  0.8421 -0.6618
 1840TIP3    H127011   2.299   0.041  13.144  0.1513  0.4476 -0.7719
 1840TIP3    H227012   2.293  -0.032  13.277  0.8160  0.0805 -0.9403
 1841TIP3   OH227013   2.317   1.138  32.581  0.0976 -0.4604  0.0817
 1841TIP3    H127014   2.365   1.086  32.645 -1.1555 -1.9153 -0.0964
 1841TIP3    H227015   2.383   1.196  32.544  1.1769 -0.6610  1.5723
 1842TIP3   OH227016   2.625   0.852  95.720 -0.3805  0.4244 -0.2278
 1842TIP3    H127017   2.671   0.919  95.670  0.2535  0.1634 -0.0000
 1842TIP3    H227018   2.581   0.799  95.653 -0.0188  0.4278 -0.4704
 1843TIP3   OH227019   2.585   1.203   4.475 -0.3739  0.2627 -0.1470
 1843TIP3    H127020   2.597   1.133   4.411 -1.5174  2.2540 -2.7312
 1843TIP3    H227021   2.673   1.235   4.492  0.1172 -1.4140  0.7238
 1844TIP3   OH227022   0.655   0.819  91.962  0.4364 -0.3539 -0.1634
 1844TIP3    H127023   0.692   0.762  91.894  0.5040 -1.2901  0.6441
 1844TIP3    H227024   0.562   0.827  91.938  0.9141  1.2503 -1.6683
 1845TIP3   OH227025   0.273   2.585   1.503  0.2985  0.3108 -0.1670
 1845TIP3    H127026   0.193   2.631   1.528 -0.4469 -0.8965 -0.2213
 1845TIP3    H227027   0.344   2.639   1.538 -0.5376  1.3815 -0.0777
 1846TIP3   OH227028   2.169   2.194  26.395 -0.2425  0.5249  0.6640
 1846TIP3    H127029   2.099   2.144  26.354  0.3783 -0.8665  1.2500
 1846TIP3    H227030   2.130   2.230  26.475  0.3534 -2.5113  2.4584
 1847TIP3   OH227031   1.251   0.448  16.927  0.3024  0.9593 -0.8858
 1847TIP3    H127032   1.294   0.433  17.011 -1.1202 -0.2032 -0.3277
 1847TIP3    H227033   1.322   0.446  16.863  1.5337  2.7767  0.3406
 1848TIP3   OH227034   1.114   0.636  97.241 -0.0988  0.1297  0.0319
 1848TIP3    H127035   1.151   0.720  97.215  1.1954 -0.5373 -0.3608
 1848TIP3    H227036   1.105   0.588  97.159 -2.0762  0.3285  0.0796
 1849TIP3   OH227037   2.535   1.726  24.856 -0.3816 -0.1246 -0.3000
 1849TIP3    H127038   2.446   1.694  24.838  0.2036 -1.3134 -1.2449
 1849TIP3    H227039   2.551   1.792  24.788 -0.0384 -0.9442 -1.0355
 1850TIP3   OH227040   1.368   0.929  94.645 -0.6331  0.6224  0.2782
 1850TIP3    H127041   1.300   0.931  94.713  0.0241  0.0886  0.9589
 1850TIP3    H227042   1.363   0.840  94.609 -1.5562  1.1441 -0.9993
 1851TIP3   OH227043   1.461   0.459 112.220 -0.0070 -0.0386  0.2267
 1851TIP3    H127044   1.370   0.432 112.232  0.1403 -0.2797  0.8511
 1851TIP3    H227045   1.490   0.485 112.307  1.0134 -1.5227  0.3792
 1852TIP3   OH227046   0.283   0.096  36.920  0.5189 -0.6415 -0.7450
 1852TIP3    H127047   0.342   0.122  36.850  0.6810 -0.0402 -0.3932
 1852TIP3    H227048   0.339   0.087  36.997 -0.1054  2.0637  0.1261
 1853TIP3   OH227049   2.346   2.074 102.894  0.0794 -0.1092  0.3968
 1853TIP3    H127050   2.271   2.015 102.893 -1.1449  1.2673  2.6086
 1853TIP3    H227051   2.317   2.149 102.947  2.5708  1.0894  0.2085
 1854TIP3   OH227052   1.975   0.889  29.766 -0.1086 -0.6395 -0.0177
 1854TIP3    H127053   1.885   0.864  29.788 -0.2543  0.7462  1.0743
 1854TIP3    H227054   2.008   0.933  29.844  1.5323 -1.0882 -0.4067
 1855TIP3   OH227055   0.733   2.062 110.152 -0.3783 -0.5429 -0.0685
 1855TIP3    H127056   0.639   2.048 110.141 -0.1217 -1.9934 -0.7220
 1855TIP3    H227057   0.744   2.157 110.154 -1.8768 -0.3649  0.2870
 1856TIP3   OH227058   1.732   2.344  93.339  0.6949 -0.0045 -0.1657
 1856TIP3    H127059   1.796   2.322  93.406  0.7562 -0.1259 -0.2637
 1856TIP3    H227060   1.777   2.409  93.284 -0.1357  1.8275  1.2132
 1857TIP3   OH227061   0.316   1.362  85.214  0.2912  0.1011 -0.1904
 1857TIP3    H127062   0.267   1.407  85.145 -0.5330  0.6880  0.7444
 1857TIP3    H227063   0.314   1.422  85.288 -2.6401 -2.1732  1.8403
 1858TIP3   OH227064   1.347   0.809  81.302  0.5911 -0.0696 -0.1635
 1858TIP3    H127065   1.287   0.735  81.295  1.3890 -0.6021 -3.2969
 1858TIP3    H227066   1.313   0.873  81.239  1.1191  1.3241  0.9183
 1859TIP3   OH227067   0.724   0.980 105.124 -0.1739  0.4528 -0.0983
 1859TIP3    H127068   0.774   0.913 105.170 -1.7130  0.5650  1.8744
 1859TIP3    H227069   0.741   1.060 105.173 -1.0236  0.8042 -0.3549
 1860TIP3   OH227070   2.517   0.735  77.341 -0.1313 -0.0488  0.0953
 1860TIP3    H127071   2.441   0.722  77.283  1.3329 -2.8699 -1.3870
 1860TIP3    H227072   2.493   0.691  77.422 -1.6113  2.6747  1.2861
 1861TIP3   OH227073   1.730   2.421 110.374  0.3135  0.1603 -0.0042
 1861TIP3    H127074   1.783   2.373 110.311  1.7050  0.7897  0.6415
 1861TIP3    H227075   1.701   2.499 110.327 -0.2138 -0.2668 -0.4073
 1862TIP3   OH227076   0.063   0.457  81.511  0.3782  0.4065 -0.5312
 1862TIP3    H127077   0.046   0.373  81.469 -0.1339  0.8044 -1.1367
 1862TIP3    H227078   0.149   0.446  81.553  0.3037 -0.4169 -0.5838
 1863TIP3   OH227079   1.697   2.323   5.976  0.5520 -0.0384  0.0965
 1863TIP3    H127080   1.780   2.323   5.930  0.5393 -0.7625  0.0559
 1863TIP3    H227081   1.697   2.404   6.027  0.5526  0.7861 -1.1823
 1864TIP3   OH227082   0.804   2.535  41.918 -0.0198  0.1720  0.4105
 1864TIP3    H127083   0.764   2.553  42.003  1.3547 -0.4939  1.2463
 1864TIP3    H227084   0.761   2.595  41.858 -0.1292  1.5676  1.8192
 1865TIP3   OH227085   1.190   1.456  32.357 -0.3673 -0.0926  0.5111
 1865TIP3    H127086   1.279   1.487  32.336 -0.1989 -1.4198 -0.9118
 1865TIP3    H227087   1.195   1.428  32.448  0.2692  1.1755  0.8939
 1866TIP3   OH227088   1.295   0.355 111.460 -0.0286  0.4562 -0.1198
 1866TIP3    H127089   1.249   0.272 111.473  0.9158 -0.1848 -0.6558
 1866TIP3    H227090   1.253   0.394 111.383 -0.4211  0.4355  0.0809
 1867TIP3   OH227091   1.465   0.271  63.256 -0.5120  0.1881  0.2860
 1867TIP3    H127092   1.538   0.211  63.242  1.3464  1.9639  1.7283
 1867TIP3    H227093   1.390   0.228  63.215  0.5956 -3.2443  1.5389
 1868TIP3   OH227094   1.202   1.283 108.195  0.0544 -0.5509 -0.1437
 1868TIP3    H127095   1.145   1.301 108.120  0.4343  0.0263 -0.2950
 1868TIP3    H227096   1.248   1.202 108.171 -0.7947 -1.1083  0.0359
 1869TIP3   OH227097   1.273   1.542  23.578 -0.1024  0.1258  0.6573
 1869TIP3    H127098   1.192   1.579  23.612 -0.4655  0.7601 -0.8384
 1869TIP3    H227099   1.245   1.475  23.516  0.5559 -1.3675  1.8804
 1870TIP3   OH227100   0.386   1.561  91.006  1.2111  0.0419 -0.6516
 1870TIP3    H127101   0.343   1.577  91.090  2.0471  0.9670 -0.3908
 1870TIP3    H227102   0.421   1.472  91.013  0.0553 -0.4283 -0.5828
 1871TIP3   OH227103   1.322   0.153  30.251 -0.0603 -0.0925  0.4096
 1871TIP3    H127104   1.259   0.097  30.298  0.0810 -1.7868 -1.3154
 1871TIP3    H227105   1.308   0.132  30.159  2.1461  0.4718 -0.0925
 1872TIP3   OH227106   0.308   0.766  15.339 -0.0384  0.0353 -0.0544
 1872TIP3    H127107   0.325   0.754  15.433 -0.9775  1.0248  0.2557
 1872TIP3    H227108   0.215   0.788  15.334  0.1597  0.6688 -1.1646
 1873TIP3   OH227109   1.406   0.335  15.964 -0.4544 -0.0221  0.5402
 1873TIP3    H127110   1.420   0.349  15.871  0.7296 -0.7845  0.5873
 1873TIP3    H227111   1.357   0.253  15.969  0.5890 -0.6497  0.6293
 1874TIP3   OH227112   0.104   2.378  95.339  0.1774  0.0601  0.0081
 1874TIP3    H127113   0.071   2.447  95.397  0.9257  0.8631 -0.5031
 1874TIP3    H227114   0.052   2.301  95.363  1.2018  0.0415  2.5369
 1875TIP3   OH227115   0.580   0.645  22.976  0.1174  0.1215  0.4258
 1875TIP3    H127116   0.645   0.579  22.999  1.1027  0.7249 -0.5413
 1875TIP3    H227117   0.514   0.597  22.926  0.5312 -0.2387  0.2228
 1876TIP3   OH227118   2.197   0.127 107.152  0.0377  0.2369 -0.0438
 1876TIP3    H127119   2.254   0.109 107.077 -1.0657 -0.6893 -0.6900
 1876TIP3    H227120   2.195   0.044 107.201  0.4178  0.7098  0.8043
 1877TIP3   OH227121   2.217   0.103  37.114  0.1245 -0.1238 -0.0218
 1877TIP3    H127122   2.263   0.171  37.162  0.5902 -0.9270  0.7124
 1877TIP3    H227123   2.270   0.024  37.128 -0.6373 -0.7264 -0.4648
 1878TIP3   OH227124   1.518   1.436 107.200  0.0116  0.0443  0.1199
 1878TIP3    H127125   1.608   1.406 107.187 -0.2610 -0.8445  0.2232
 1878TIP3    H227126   1.471   1.404 107.123 -0.2593  0.3420  0.1612
 1879TIP3   OH227127   2.180   0.292   5.042  0.0597 -0.1336 -0.2694
 1879TIP3    H127128   2.235   0.305   4.964 -1.1850  2.8701 -0.7497
 1879TIP3    H227129   2.227   0.336   5.112  0.6845 -1.9802  0.5243
 1880TIP3   OH227130   1.929   2.297   0.293 -0.0361  0.2444 -0.0083
 1880TIP3    H127131   2.002   2.359   0.281 -0.0435  0.0832 -0.9475
 1880TIP3    H227132   1.869   2.316   0.221  0.3216 -1.3523 -0.7749
 1881TIP3   OH227133   1.324   2.271  11.527  0.1453 -0.2609  0.0250
 1881TIP3    H127134   1.387   2.199  11.522 -0.6352 -0.9666  0.1177
 1881TIP3    H227135   1.335   2.318  11.444 -0.2961 -1.3217 -0.6637
 1882TIP3   OH227136   1.594   1.024  76.443 -0.3696 -0.0052 -0.8869
 1882TIP3    H127137   1.592   1.037  76.538  1.4829 -2.0916 -0.4713
 1882TIP3    H227138   1.502   1.022  76.417 -0.9837 -0.7712  1.1079
 1883TIP3   OH227139   0.538   2.514   0.464  0.0013 -0.1993 -0.6089
 1883TIP3    H127140   0.602   2.494   0.396  1.7054 -1.5986  1.2785
 1883TIP3    H227141   0.492   2.432   0.478  1.8596 -0.9331  2.0027
 1884TIP3   OH227142   0.855   0.267 106.337  0.0622  0.2709  0.4129
 1884TIP3    H127143   0.896   0.303 106.416  0.8761 -1.6621  0.9373
 1884TIP3    H227144   0.764   0.250 106.364  0.0090  0.7338  0.5385
 1885TIP3   OH227145   2.237   0.746  17.150 -0.1665  0.3632 -0.2780
 1885TIP3    H127146   2.265   0.825  17.196  0.4363 -0.0422  0.0620
 1885TIP3    H227147   2.218   0.775  17.061 -1.6888  1.2289  0.2868
 1886TIP3   OH227148   1.773   0.549  34.624 -0.1446  0.6105 -0.2096
 1886TIP3    H127149   1.854   0.535  34.674  0.3651  0.1184 -1.1509
 1886TIP3    H227150   1.783   0.494  34.547 -0.5367  1.9833 -1.2838
 1887TIP3   OH227151   0.111   1.730   4.943  0.0781 -0.1329  0.5395
 1887TIP3    H127152   0.178   1.772   4.998  0.6998 -1.6205  0.9752
 1887TIP3    H227153   0.036   1.719   5.001 -0.1944  0.6095  0.3406
 1888TIP3   OH227154   1.312   1.721  13.668  0.3991  0.3514  0.4371
 1888TIP3    H127155   1.379   1.664  13.706  0.5508 -0.0657 -0.4092
 1888TIP3    H227156   1.307   1.795  13.727  1.1383  0.0678  0.8752
 1889TIP3   OH227157   1.137   0.432  24.649  0.0572  0.0925 -1.0972
 1889TIP3    H127158   1.188   0.511  24.631  0.8067 -0.0881  0.0918
 1889TIP3    H227159   1.071   0.430  24.580  0.6224  1.2359 -1.7102
 1890TIP3   OH227160   0.861   1.317  73.710  0.1099  0.1405  0.7451
 1890TIP3    H127161   0.851   1.393  73.767  1.2923  0.6733  0.2649
 1890TIP3    H227162   0.917   1.347  73.639 -1.0114 -0.6290 -0.5001
 1891TIP3   OH227163   1.175   1.724 111.478  0.3679 -0.6108 -0.0456
 1891TIP3    H127164   1.152   1.801 111.425  1.6584  0.3814  0.7624
 1891TIP3    H227165   1.091   1.684 111.500 -0.2379 -0.8229 -2.4445
 1892TIP3   OH227166   0.535   1.700  12.875  0.1767 -0.3691  0.0142
 1892TIP3    H127167   0.599   1.753  12.828 -1.2009  0.4040 -1.0790
 1892TIP3    H227168   0.579   1.675  12.956  1.1169  1.9845  0.3222
 1893TIP3   OH227169   1.116   2.226  31.355  0.1786  0.0038  0.1319
 1893TIP3    H127170   1.123   2.142  31.400 -0.5228  0.3714  0.9516
 1893TIP3    H227171   1.143   2.207  31.265 -0.6941 -1.2697  0.1127
 1894TIP3   OH227172   0.180   0.033 102.893  0.3194  0.7807  0.0452
 1894TIP3    H127173   0.170   0.026 102.988 -0.3357  0.2600 -0.0537
 1894TIP3    H227174   0.228  -0.046 102.868 -1.3674 -0.1659 -0.2995
 1895TIP3   OH227175   1.558   0.627  93.293  0.8987 -0.5403  0.3904
 1895TIP3    H127176   1.527   0.650  93.380 -0.9497 -0.4770 -0.2446
 1895TIP3    H227177   1.638   0.678  93.282 -1.5656  3.7291  0.0663
 1896TIP3   OH227178   1.978   0.853   9.013  0.2532 -0.0744 -0.4109
 1896TIP3    H127179   2.021   0.769   9.001  0.7870  0.1808 -0.3139
 1896TIP3    H227180   1.968   0.888   8.924 -2.1418 -1.2777 -0.7036
 1897TIP3   OH227181   2.460   1.908 109.150 -0.5428  0.5518 -0.4637
 1897TIP3    H127182   2.510   1.828 109.167 -1.8338  0.1200  1.7485
 1897TIP3    H227183   2.511   1.977 109.191 -0.3429  0.5769 -0.7520
 1898TIP3   OH227184   2.349   0.486  59.780  0.2511  0.0845  0.0862
 1898TIP3    H127185   2.334   0.513  59.870  0.5735  0.1312  0.1275
 1898TIP3    H227186   2.443   0.499  59.766  0.4217 -0.9879  0.1047
 1899TIP3   OH227187   1.121   1.175 111.107  0.4166  0.7023 -0.1581
 1899TIP3    H127188   1.049   1.187 111.169  0.1274  0.4882 -0.4558
 1899TIP3    H227189   1.200   1.188 111.160  0.3293 -2.5210  1.0294
 1900TIP3   OH227190   2.227   1.802 101.758  0.3403 -0.2071 -0.1676
 1900TIP3    H127191   2.137   1.833 101.757  0.3758 -0.1050 -1.2446
 1900TIP3    H227192   2.262   1.833 101.842 -0.5254  0.0263  0.1196
 1901TIP3   OH227193   0.761   1.108 108.652  0.1687  0.0157  0.0225
 1901TIP3    H127194   0.828   1.045 108.626 -0.8894 -1.0677 -0.1843
 1901TIP3    H227195   0.807   1.191 108.660  1.5764 -0.7662  0.1877
 1902TIP3   OH227196   1.669   2.548  77.338  0.3333 -0.4823 -0.1308
 1902TIP3    H127197   1.597   2.610  77.337  0.6363 -0.1087  0.5566
 1902TIP3    H227198   1.736   2.587  77.281  0.7092  0.0611  0.6653
 1903TIP3   OH227199   0.965   0.332  96.728 -0.3399  0.5049  0.1782
 1903TIP3    H127200   0.950   0.375  96.812 -0.2846  0.2571  0.3164
 1903TIP3    H227201   0.992   0.403  96.669 -2.3087  1.0221 -0.1649
 1904TIP3   OH227202   0.417   0.109  78.932  0.2801 -0.2982 -0.0163
 1904TIP3    H127203   0.401   0.202  78.947 -1.8004 -0.1852 -2.1391
 1904TIP3    H227204   0.393   0.066  79.014 -0.1709  0.9355  0.5165
 1905TIP3   OH227205   2.041   1.736  28.332  0.2115  0.2854 -0.2994
 1905TIP3    H127206   2.120   1.738  28.386 -0.0687  2.3944  0.1274
 1905TIP3    H227207   2.026   1.827  28.308 -2.9286  0.2248  0.9120
 1906TIP3   OH227208   0.234   0.565 101.274 -0.2521  0.2789 -0.5958
 1906TIP3    H127209   0.234   0.496 101.207  0.6756 -1.7366  1.3574
 1906TIP3    H227210   0.324   0.568 101.305 -1.0505 -0.5534  2.1411
 1907TIP3   OH227211   0.176   1.101  66.601 -0.3422 -0.0222  0.6994
 1907TIP3    H127212   0.192   1.053  66.682 -3.3354 -2.1789  0.1991
 1907TIP3    H227213   0.221   1.050  66.534 -2.3368 -1.4451  0.3643
 1908TIP3   OH227214   1.452   2.406 108.343  0.5892 -0.3267 -0.0924
 1908TIP3    H127215   1.527   2.464 108.331  0.5749 -0.6564 -2.0074
 1908TIP3    H227216   1.490   2.323 108.370  0.9835 -0.6152 -1.4659
 1909TIP3   OH227217   1.463   1.740  92.614  0.2686  0.4949  0.0154
 1909TIP3    H127218   1.467   1.836  92.613  0.4536  0.4867 -1.2674
 1909TIP3    H227219   1.372   1.720  92.591  0.5568  0.3657 -1.0724
 1910TIP3   OH227220   2.196   0.937   9.861 -0.5969  0.9084  0.0086
 1910TIP3    H127221   2.123   0.997   9.875  0.3202  2.0370  0.1108
 1910TIP3    H227222   2.265   0.992   9.821 -0.9518 -0.7923 -3.3248
 1911TIP3   OH227223   0.355   1.627  25.679  0.1783  0.2530  0.4775
 1911TIP3    H127224   0.300   1.701  25.704  1.2396  1.1622  0.2277
 1911TIP3    H227225   0.417   1.617  25.751 -0.1787 -0.6337  0.6702
 1912TIP3   OH227226   1.173   1.731 110.310 -0.4290 -0.0323  0.4449
 1912TIP3    H127227   1.191   1.637 110.301 -0.1941  0.0273  0.2939
 1912TIP3    H227228   1.247   1.766 110.358 -0.2623  0.1666  0.0462
 1913TIP3   OH227229   2.134   0.257  34.827  0.5263  0.5124  0.0065
 1913TIP3    H127230   2.099   0.182  34.875  0.6105  0.3029 -0.2534
 1913TIP3    H227231   2.211   0.222  34.783 -1.5565 -0.3046 -3.3099
 1914TIP3   OH227232   2.565   1.703   3.603 -0.1140 -0.4219 -0.2862
 1914TIP3    H127233   2.642   1.728   3.552 -0.5860 -0.7212 -1.1708
 1914TIP3    H227234   2.599   1.683   3.691  0.8062 -0.5333 -0.6588
 1915TIP3   OH227235   0.896   1.756  92.756 -0.5969  0.4024  0.0634
 1915TIP3    H127236   0.971   1.805  92.788 -0.5118 -0.2998  0.9728
 1915TIP3    H227237   0.922   1.729  92.667  0.6639 -0.6735  0.7178
 1916TIP3   OH227238   0.087   2.549  24.223 -0.4892 -0.0626 -0.2627
 1916TIP3    H127239   0.025   2.526  24.291 -0.1992  0.6923  0.2660
 1916TIP3    H227240   0.142   2.617  24.262 -0.8207  0.9633 -1.5112
 1917TIP3   OH227241   0.218   2.429  81.743 -0.2419  0.1427 -0.3509
 1917TIP3    H127242   0.311   2.438  81.720 -0.0630 -2.5870 -1.0891
 1917TIP3    H227243   0.218   2.366  81.815 -1.4885  1.0283  0.4572
 1918TIP3   OH227244   0.634   0.797   4.175 -0.3189  0.1803  0.2256
 1918TIP3    H127245   0.606   0.761   4.259 -0.7376  1.5672  0.7055
 1918TIP3    H227246   0.647   0.720   4.119 -1.2651 -0.6979  1.1699
 1919TIP3   OH227247   0.265   1.520  75.017 -0.2318  0.2142 -0.6067
 1919TIP3    H127248   0.319   1.581  74.967 -0.4693  1.5906  0.7704
 1919TIP3    H227249   0.286   1.537  75.108 -1.6716 -0.4913 -0.1114
 1920TIP3   OH227250   0.858   2.194  33.324  0.3505  0.1214  0.0444
 1920TIP3    H127251   0.888   2.281  33.350 -1.1381  0.7256 -0.1832
 1920TIP3    H227252   0.926   2.163  33.264  0.5442  1.4278 -0.4410
 1921TIP3   OH227253   1.280   0.207  42.398 -0.2151 -1.0628  0.5901
 1921TIP3    H127254   1.230   0.240  42.472 -0.3933  0.6420 -0.2425
 1921TIP3    H227255   1.308   0.285  42.350  0.3230 -2.0865 -0.8671
 1922TIP3   OH227256   0.281   1.986  32.647 -0.2697  0.3415  0.2457
 1922TIP3    H127257   0.215   2.034  32.698  0.5614  0.7233  0.9739
 1922TIP3    H227258   0.295   2.040  32.570  0.5007  1.1929  0.9552
 1923TIP3   OH227259   2.067   2.430  79.536  0.0982  0.3975 -0.2615
 1923TIP3    H127260   2.141   2.407  79.592  0.0877  0.9787  0.0001
 1923TIP3    H227261   2.008   2.480  79.593 -0.0080  0.8218 -0.7312
 1924TIP3   OH227262   2.557   1.060  95.442  0.1351 -0.1220 -0.2756
 1924TIP3    H127263   2.471   1.020  95.446 -0.9782  1.9387 -1.8435
 1924TIP3    H227264   2.589   1.041  95.353 -0.1023  1.7444 -0.7959
 1925TIP3   OH227265   2.057   0.981 102.557 -0.5007 -0.2596 -0.3713
 1925TIP3    H127266   2.056   0.920 102.631  0.5070  0.4806  0.2720
 1925TIP3    H227267   2.123   1.046 102.580  0.0985 -0.2126 -2.0941
 1926TIP3   OH227268   1.528   1.114  77.053  0.0104  0.1070  0.1938
 1926TIP3    H127269   1.532   1.178  76.982  0.7339 -0.0938  0.0436
 1926TIP3    H227270   1.453   1.059  77.031 -0.5886  0.8699  0.2997
 1927TIP3   OH227271   0.188   2.295  18.569  0.2688  0.4662 -0.0227
 1927TIP3    H127272   0.222   2.286  18.658 -1.5119 -0.7031  0.5951
 1927TIP3    H227273   0.260   2.268  18.513  2.1274  3.0503  0.8821
 1928TIP3   OH227274   1.269   2.482 100.125  0.2717 -0.3236  0.0609
 1928TIP3    H127275   1.253   2.561 100.074  1.3863 -0.8473 -1.1904
 1928TIP3    H227276   1.362   2.464 100.111  0.4156 -0.9516  1.6556
 1929TIP3   OH227277   2.219   0.655  18.386  0.5060  0.6643 -0.1828
 1929TIP3    H127278   2.232   0.641  18.480 -0.3674 -1.1386 -0.2963
 1929TIP3    H227279   2.138   0.608  18.366  1.8439 -0.9139 -2.2691
 1930TIP3   OH227280   2.679   1.477  90.811 -0.0657  0.0031  0.4628
 1930TIP3    H127281   2.676   1.450  90.720  2.1055  0.5652  0.1764
 1930TIP3    H227282   2.654   1.399  90.861  0.4406 -0.8095 -0.5416
 1931TIP3   OH227283   0.445   1.257  68.461  0.3459 -0.5922 -0.4648
 1931TIP3    H127284   0.376   1.229  68.401 -2.2921  0.5328  1.8178
 1931TIP3    H227285   0.403   1.322  68.517  3.5643  0.8091  0.5283
 1932TIP3   OH227286   0.547   0.999   7.456  0.0284  0.4517 -0.3124
 1932TIP3    H127287   0.589   0.926   7.410 -0.5539 -1.0187  1.3450
 1932TIP3    H227288   0.585   1.077   7.417  2.1878 -0.7583 -0.8469
 1933TIP3   OH227289   0.188   2.043 103.672  0.0651  0.3671  0.1248
 1933TIP3    H127290   0.266   2.035 103.726  0.7269  0.1114 -0.8465
 1933TIP3    H227291   0.196   2.128 103.630 -0.0851  0.2673 -0.1114
 1934TIP3   OH227292   1.374   2.661  74.918  0.7469  0.4159  0.1260
 1934TIP3    H127293   1.381   2.664  75.013  0.8421 -0.4911  0.1594
 1934TIP3    H227294   1.409   2.575  74.894 -0.6866  0.0083 -0.5969
 1935TIP3   OH227295   1.881   0.734   4.678 -0.2196  0.5231  0.1992
 1935TIP3    H127296   1.957   0.791   4.665 -0.5650  0.6756 -1.3183
 1935TIP3    H227297   1.861   0.701   4.590 -1.5691  0.0537  0.6702
 1936TIP3   OH227298   2.235   0.952 104.306  0.2268 -0.3563 -0.0691
 1936TIP3    H127299   2.147   0.938 104.341  0.4182  0.0795  0.6068
 1936TIP3    H227300   2.249   1.046 104.312  1.3751 -0.5907  1.4079
 1937TIP3   OH227301   1.872   2.023  32.780 -0.2690  0.7855  0.3175
 1937TIP3    H127302   1.825   1.988  32.704 -0.1757 -0.4409  0.8034
 1937TIP3    H227303   1.950   2.064  32.743 -0.0752 -0.0541 -0.2418
 1938TIP3   OH227304   0.743   1.948  86.303  0.0281  0.2722 -0.2465
 1938TIP3    H127305   0.789   1.926  86.384  0.2328 -0.4366 -0.5491
 1938TIP3    H227306   0.812   1.980  86.245 -0.3604  2.5637  0.4534
 1939TIP3   OH227307   2.208   2.319  41.796  0.3508  0.4942  0.2519
 1939TIP3    H127308   2.170   2.297  41.711 -0.3392  3.7756 -0.3912
 1939TIP3    H227309   2.299   2.340  41.776  1.3043 -2.3455  1.0248
 1940TIP3   OH227310   0.441   0.400 107.892 -0.2729  0.1561  0.2446
 1940TIP3    H127311   0.433   0.317 107.939  2.0154 -0.2986 -0.0191
 1940TIP3    H227312   0.385   0.391 107.816 -0.4228 -0.9644  0.4743
 1941TIP3   OH227313   1.573   2.528  93.592  0.4212 -0.2688  0.5510
 1941TIP3    H127314   1.540   2.609  93.554  0.8733 -0.1719  0.3546
 1941TIP3    H227315   1.521   2.459  93.552  1.6777 -0.2697 -1.1591
 1942TIP3   OH227316   1.169   1.470  69.539 -0.1399  0.3694 -0.3516
 1942TIP3    H127317   1.084   1.465  69.582  0.3749 -0.0008  0.6413
 1942TIP3    H227318   1.233   1.475  69.610  0.6676  0.8463 -1.0839
 1943TIP3   OH227319   2.562   1.079  58.302  0.0026  0.3842 -0.9648
 1943TIP3    H127320   2.568   1.022  58.379 -1.4779  0.3149 -0.8666
 1943TIP3    H227321   2.534   1.020  58.232 -1.4622  0.9492 -0.8831
 1944TIP3   OH227322   1.667   1.890   4.914 -0.6675 -0.5341  0.2651
 1944TIP3    H127323   1.737   1.942   4.875 -1.3476  1.1284  1.1508
 1944TIP3    H227324   1.626   1.846   4.840 -0.0051  0.1387 -0.5247
 1945TIP3   OH227325   1.737   0.868  76.903 -0.2628  0.0232 -0.1365
 1945TIP3    H127326   1.825   0.855  76.939 -0.8302  0.0966  1.3353
 1945TIP3    H227327   1.708   0.780  76.879 -1.0076 -0.4853  2.3949
 1946TIP3   OH227328   0.277   0.201  99.417 -0.0720 -0.2903  0.2244
 1946TIP3    H127329   0.185   0.220  99.395 -0.2163 -0.4417  0.6717
 1946TIP3    H227330   0.302   0.130  99.358 -0.9393 -1.7760  1.5497
 1947TIP3   OH227331   2.634   1.718  23.390 -0.3161  0.5849 -0.0667
 1947TIP3    H127332   2.550   1.729  23.435 -0.5755  0.1133 -0.4195
 1947TIP3    H227333   2.697   1.766  23.444 -0.1380 -1.9485  2.1956
 1948TIP3   OH227334   0.107   0.745  19.962 -0.1281 -0.2947 -0.4174
 1948TIP3    H127335   0.195   0.713  19.985  0.0846  0.8052  0.3696
 1948TIP3    H227336   0.118   0.839  19.951 -1.5991  0.2039  1.7991
 1949TIP3   OH227337   1.001   1.877  30.281 -0.0175  0.5148  0.1659
 1949TIP3    H127338   0.957   1.938  30.222  2.5324  0.9107 -1.4894
 1949TIP3    H227339   1.081   1.852  30.234  0.4514 -1.8464  2.0453
 1950TIP3   OH227340   0.584   1.061  63.520  0.2071 -0.6841 -0.2652
 1950TIP3    H127341   0.622   1.138  63.477 -0.0793  0.2601  1.1311
 1950TIP3    H227342   0.542   1.095  63.599 -1.7324 -1.9777 -0.6484
 1951TIP3   OH227343   1.080   0.877  58.890 -0.1832  0.0818 -0.1735
 1951TIP3    H127344   1.159   0.823  58.902 -0.2132  0.0992  0.1176
 1951TIP3    H227345   1.047   0.852  58.804 -2.0675 -2.8453  1.2178
 1952TIP3   OH227346   0.480   1.081  32.117 -0.4874 -0.1655 -0.7025
 1952TIP3    H127347   0.517   1.030  32.045  1.2403 -0.5552  0.3935
 1952TIP3    H227348   0.417   1.022  32.159 -0.4629 -0.4393 -1.0528
 1953TIP3   OH227349   1.898   0.661  26.789  0.1601  0.4249  0.3235
 1953TIP3    H127350   1.942   0.740  26.756  1.2369 -0.9936 -1.8847
 1953TIP3    H227351   1.896   0.673  26.884  4.3314  1.2085  0.5292
 1954TIP3   OH227352   2.643   0.584   1.677 -0.5674 -0.3197  0.0556
 1954TIP3    H127353   2.720   0.551   1.723 -1.1029 -0.8574  0.5814
 1954TIP3    H227354   2.646   0.543   1.591 -0.8468 -1.2125  0.4588
 1955TIP3   OH227355   0.160   1.840  76.685 -0.1601 -0.1058 -0.1309
 1955TIP3    H127356   0.123   1.917  76.641 -0.0065 -1.4000 -2.6754
 1955TIP3    H227357   0.085   1.783  76.699  0.0484 -0.4326 -0.3301
 1956TIP3   OH227358   0.446   0.392   8.621 -0.3067  0.5638  0.2174
 1956TIP3    H127359   0.477   0.423   8.535 -2.4489  0.8924 -0.4813
 1956TIP3    H227360   0.524   0.396   8.677  0.9872  1.0054 -1.5177
 1957TIP3   OH227361   2.034   1.182  89.099 -0.0918  0.1624  0.2145
 1957TIP3    H127362   2.057   1.104  89.150 -0.8005  1.5227  2.7384
 1957TIP3    H227363   2.098   1.248  89.125 -1.4200  1.3523  0.5216
 1958TIP3   OH227364   1.588   0.665 103.294 -0.4822 -0.1421  0.2883
 1958TIP3    H127365   1.670   0.694 103.254 -0.1832 -0.0237  0.9628
 1958TIP3    H227366   1.615   0.629 103.379 -1.2389  0.8831  0.9906
 1959TIP3   OH227367   1.288   2.191 104.841  0.3352  0.3308 -0.0453
 1959TIP3    H127368   1.309   2.186 104.748  0.3688  3.0816 -0.2617
 1959TIP3    H227369   1.362   2.149 104.885  0.6501 -0.3818 -1.2190
 1960TIP3   OH227370   2.595   0.318  83.899 -0.7129  0.2270 -0.4805
 1960TIP3    H127371   2.590   0.238  83.846 -0.1312  0.1451 -0.4115
 1960TIP3    H227372   2.656   0.296  83.969 -0.2106  0.8812 -0.7122
 1961TIP3   OH227373   0.945   1.192   4.954  0.4583  0.2668 -0.1238
 1961TIP3    H127374   0.986   1.130   5.015 -0.5508 -0.0335  0.2677
 1961TIP3    H227375   0.957   1.153   4.868  1.6475  0.5563 -0.1132
 1962TIP3   OH227376   2.380   0.968  63.712  0.0497 -0.3213  0.6522
 1962TIP3    H127377   2.292   0.966  63.749  0.9786 -0.4575  3.0065
 1962TIP3    H227378   2.411   1.058  63.728  0.3248 -0.2542 -0.2112
 1963TIP3   OH227379   2.328   2.202  97.134 -0.1635  0.1414 -0.6265
 1963TIP3    H127380   2.396   2.268  97.148 -0.7016  0.9974 -1.8763
 1963TIP3    H227381   2.265   2.218  97.204 -0.6095  1.4176 -1.2705
 1964TIP3   OH227382   2.165   0.305   6.461 -0.1615 -0.2979 -0.6915
 1964TIP3    H127383   2.137   0.220   6.495 -0.0482  0.6570  2.0516
 1964TIP3    H227384   2.244   0.326   6.511 -0.0413  1.2912 -1.4868
 1965TIP3   OH227385   0.053   2.606 101.831 -0.3767 -0.2899 -0.0575
 1965TIP3    H127386   0.068   2.628 101.923 -0.0283 -1.0820  0.0857
 1965TIP3    H227387  -0.043   2.604 101.822 -0.4167 -0.8814  0.4627
 1966TIP3   OH227388   1.492   0.315  76.953 -0.5146  0.1573 -0.4624
 1966TIP3    H127389   1.530   0.394  76.915  0.8619  0.2662  1.0093
 1966TIP3    H227390   1.461   0.343  77.039 -0.5026 -0.7771 -0.1456
 1967TIP3   OH227391   0.155   2.237  95.103  0.1936  0.1482 -0.2243
 1967TIP3    H127392   0.071   2.264  95.065 -0.0955 -1.2087 -0.5721
 1967TIP3    H227393   0.166   2.296  95.178 -1.0784  0.3452 -0.1617
 1968TIP3   OH227394   2.634   1.947  95.566  0.1722  0.7854 -0.1494
 1968TIP3    H127395   2.601   1.910  95.484 -1.2650  0.0722  0.6968
 1968TIP3    H227396   2.689   1.877  95.603 -1.4634 -0.0805  0.8013
 1969TIP3   OH227397   2.233   1.462  89.697  0.3673  0.0586 -0.1717
 1969TIP3    H127398   2.212   1.545  89.740 -0.4864  0.0105 -0.4807
 1969TIP3    H227399   2.278   1.489  89.616  1.9711  0.1468  0.7243
 1970TIP3   OH227400   2.039   1.940   7.981 -0.2448 -0.1419 -0.3397
 1970TIP3    H127401   2.073   1.860   7.942  1.6508  0.2265  0.4320
 1970TIP3    H227402   2.047   1.927   8.075 -0.1988  0.8247 -0.1916
 1971TIP3   OH227403   1.675   2.024  92.576  0.1584  0.1162  0.4819
 1971TIP3    H127404   1.711   2.029  92.665 -1.4920  0.2786  1.1787
 1971TIP3    H227405   1.582   2.046  92.587 -0.0849  0.0906 -1.2846
 1972TIP3   OH227406   1.889   0.096  86.222  0.1308 -0.7515  0.0455
 1972TIP3    H127407   1.854   0.021  86.270 -1.8409  0.0544 -0.0478
 1972TIP3    H227408   1.966   0.123  86.272 -0.9940 -0.8535  1.9173
 1973TIP3   OH227409   2.456   0.002  23.955 -0.2229  0.0599  0.0807
 1973TIP3    H127410   2.466  -0.070  23.893 -0.3989 -0.0381  0.1672
 1973TIP3    H227411   2.375  -0.016  24.002  0.7735 -0.7818  1.5644
 1974TIP3   OH227412   2.438   0.284 110.039 -0.0156 -0.2578  0.2997
 1974TIP3    H127413   2.368   0.242 110.089 -0.2417 -0.9155 -0.5516
 1974TIP3    H227414   2.393   0.348 109.984  0.2022  0.2619  0.7127
 1975TIP3   OH227415   1.152   2.397  15.079 -0.2860 -0.2348  0.1210
 1975TIP3    H127416   1.113   2.458  15.143 -1.8877  0.0657 -1.0712
 1975TIP3    H227417   1.077   2.361  15.032  0.8540  0.5646 -2.5061
 1976TIP3   OH227418   0.701   1.306  31.725 -0.2321 -0.3694  0.2055
 1976TIP3    H127419   0.748   1.363  31.786 -0.1718  0.3457 -0.4921
 1976TIP3    H227420   0.700   1.355  31.643 -3.3357  0.3048  0.5141
 1977TIP3   OH227421   1.100   2.360 107.063 -0.0897 -0.3624 -0.2113
 1977TIP3    H127422   1.172   2.414 107.095  0.5867 -1.4929  0.1965
 1977TIP3    H227423   1.089   2.387 106.972 -0.1585  0.8646  0.1333
 1978TIP3   OH227424   1.716   1.061  32.271 -0.4647 -0.0583  0.3442
 1978TIP3    H127425   1.743   1.093  32.357 -0.3393  0.2257  0.2007
 1978TIP3    H227426   1.620   1.068  32.272 -0.4088  1.0423  0.0555
 1979TIP3   OH227427   2.551   0.258  16.980  0.0567 -0.0120  0.0992
 1979TIP3    H127428   2.470   0.282  16.935  0.3781  0.1940 -0.3783
 1979TIP3    H227429   2.617   0.320  16.947  0.0449  0.9376  1.7814
 1980TIP3   OH227430   1.491   2.488  12.219 -0.2114 -0.1927  0.1493
 1980TIP3    H127431   1.556   2.432  12.176 -0.2454 -1.8323  2.1144
 1980TIP3    H227432   1.407   2.459  12.182 -0.2254 -1.4780  1.1131
 1981TIP3   OH227433   0.345   2.583  17.053 -0.4067 -0.3651  0.4581
 1981TIP3    H127434   0.346   2.678  17.043  0.0463 -0.2353  1.5626
 1981TIP3    H227435   0.392   2.549  16.977 -0.4042  0.3067  0.1616
 1982TIP3   OH227436   2.325   2.606  30.768  0.1440 -0.6591  0.4122
 1982TIP3    H127437   2.360   2.655  30.693 -2.1376 -0.4597 -0.5860
 1982TIP3    H227438   2.367   2.520  30.761  1.0902 -0.1650 -0.2218
 1983TIP3   OH227439   1.478   0.816  33.837 -0.1502 -0.2589 -0.3809
 1983TIP3    H127440   1.541   0.757  33.878 -0.5066 -0.3823  0.0027
 1983TIP3    H227441   1.524   0.900  33.832  0.5562 -0.6919 -1.4451
 1984TIP3   OH227442   2.449   2.150 107.467  0.7509 -0.0029  0.0510
 1984TIP3    H127443   2.370   2.127 107.517  0.9766 -3.4551 -0.8970
 1984TIP3    H227444   2.521   2.134 107.527  0.8384  0.7098  0.1399
 1985TIP3   OH227445   1.643   2.435   3.816  0.2446  0.1268 -0.2544
 1985TIP3    H127446   1.718   2.378   3.832 -0.6185 -0.4838  1.8954
 1985TIP3    H227447   1.597   2.395   3.741 -0.3720 -2.1001  1.2287
 1986TIP3   OH227448   1.921   0.895  32.805  0.4477 -0.3680  0.2668
 1986TIP3    H127449   1.987   0.889  32.873  3.2446  0.8694 -2.1294
 1986TIP3    H227450   1.872   0.974  32.825  3.3945  1.8935 -0.7259
 1987TIP3   OH227451   0.515   1.508  31.145 -0.0325 -0.5113 -0.0489
 1987TIP3    H127452   0.452   1.532  31.078 -0.6507 -0.7397  0.4499
 1987TIP3    H227453   0.483   1.426  31.181  0.1987 -0.3103  0.6432
 1988TIP3   OH227454   2.469   0.541  10.304 -0.0873  0.1822 -0.1515
 1988TIP3    H127455   2.427   0.469  10.352 -2.1757  0.2470 -1.7242
 1988TIP3    H227456   2.503   0.500  10.224  2.1013  0.3280  0.6387
 1989TIP3   OH227457   0.375   0.523   4.208  0.2010 -0.1724  0.1698
 1989TIP3    H127458   0.425   0.574   4.271 -0.1916 -0.4538  0.7087
 1989TIP3    H227459   0.285   0.555   4.215  0.1060 -0.3792 -0.0656
 1990TIP3   OH227460   2.214   1.352  20.540  0.4067 -0.4307 -0.3467
 1990TIP3    H127461   2.134   1.382  20.498  0.6323  2.2674  0.9078
 1990TIP3    H227462   2.283   1.404  20.500  0.8966  0.5735  1.6461
 1991TIP3   OH227463   0.206   1.281   8.848  0.0830  0.0893  0.7852
 1991TIP3    H127464   0.132   1.305   8.904 -0.2094  1.0522  0.0139
 1991TIP3    H227465   0.175   1.208   8.796 -1.3166  2.1195 -1.4239
 1992TIP3   OH227466   0.967   0.925  97.047  0.2851  0.0151 -0.7165
 1992TIP3    H127467   0.963   0.990  97.117 -2.1148 -0.8865  0.0862
 1992TIP3    H227468   1.058   0.894  97.049  0.6721  1.0934  0.9791
 1993TIP3   OH227469   1.625   0.252 112.095 -0.5392  0.0922  0.5397
 1993TIP3    H127470   1.683   0.297 112.033  1.5012 -0.7209  1.7566
 1993TIP3    H227471   1.579   0.323 112.139 -0.5185  0.7718 -0.5001
 1994TIP3   OH227472   2.253   1.708  92.446  0.3138 -0.2631  0.6011
 1994TIP3    H127473   2.257   1.662  92.530 -0.2643 -0.4225  0.5416
 1994TIP3    H227474   2.240   1.640  92.381  1.1289 -0.1775  0.3352
 1995TIP3   OH227475   0.764   1.972  33.457 -0.7269 -0.3044  0.0235
 1995TIP3    H127476   0.830   1.906  33.438 -1.0973 -1.0013  1.0783
 1995TIP3    H227477   0.796   2.052  33.414  0.1439 -0.9544 -0.5515
 1996TIP3   OH227478   2.213   0.738  22.348  0.3782 -0.2462 -0.2271
 1996TIP3    H127479   2.195   0.781  22.264  0.4335 -0.8349 -0.5436
 1996TIP3    H227480   2.305   0.712  22.342  0.3623 -0.3530 -0.0100
 1997TIP3   OH227481   0.437   1.908  89.898  0.1550  0.1621 -0.4495
 1997TIP3    H127482   0.462   1.997  89.873 -0.8531  0.3339 -0.8970
 1997TIP3    H227483   0.408   1.916  89.989  2.2481 -0.1583  0.2997
 1998TIP3   OH227484   0.339   1.391  76.136 -0.6131  0.4045  0.1357
 1998TIP3    H127485   0.426   1.429  76.151 -0.1293 -0.9946  1.1197
 1998TIP3    H227486   0.356   1.309  76.090 -1.5957  1.0755 -1.5042
 1999TIP3   OH227487   0.699   1.603  98.843 -0.0297 -0.3844 -0.1108
 1999TIP3    H127488   0.652   1.667  98.790 -0.4071  0.2110  0.9071
 1999TIP3    H227489   0.767   1.569  98.786 -0.3808  0.2865 -0.9433
 2000TIP3   OH227490   1.134   1.243  17.577 -0.3882 -0.0113 -0.8929
 2000TIP3    H127491   1.189   1.229  17.655 -0.6578  0.6146 -0.5825
 2000TIP3    H227492   1.061   1.182  17.588  0.1297 -0.6985 -1.2019
 2001TIP3   OH227493   2.125   0.264  82.414  0.2185 -0.2064 -0.0678
 2001TIP3    H127494   2.173   0.301  82.340 -2.3843  0.1147 -1.7269
 2001TIP3    H227495   2.157   0.313  82.490  0.4695  1.9900 -1.5001
 2002TIP3   OH227496   1.261   1.700  32.625 -0.5162  0.3558  0.0195
 2002TIP3    H127497   1.222   1.632  32.680  0.1203  0.2063  0.3055
 2002TIP3    H227498   1.239   1.676  32.536 -1.2793  0.4132  0.1891
 2003TIP3   OH227499   2.341   0.467  81.484  0.4378  0.4288  0.4947
 2003TIP3    H127500   2.343   0.503  81.572 -0.8769  2.0838 -0.0860
 2003TIP3    H227501   2.421   0.500  81.443  1.4076 -0.9257  1.2462
 2004TIP3   OH227502   1.159   2.301 107.757 -0.3810  0.3348 -0.2050
 2004TIP3    H127503   1.235   2.245 107.776 -0.3488  0.5749  0.4003
 2004TIP3    H227504   1.194   2.390 107.762 -0.7348  0.4517  0.2361
 2005TIP3   OH227505   0.296   1.134  58.773  0.3883  0.3826 -0.3941
 2005TIP3    H127506   0.217   1.185  58.789 -0.2754 -1.2539  2.1168
 2005TIP3    H227507   0.364   1.200  58.760 -0.7301  1.9247  1.0670
 2006TIP3   OH227508   2.371   2.129  27.162  0.5121  0.0926  0.2772
 2006TIP3    H127509   2.324   2.203  27.200  0.6250  0.3057  0.0068
 2006TIP3    H227510   2.451   2.122  27.213  0.5419  0.2131  0.2475
 2007TIP3   OH227511   1.163   2.676  75.611  0.3584  0.7714  0.4202
 2007TIP3    H127512   1.131   2.589  75.633  0.9970  0.6971  1.1275
 2007TIP3    H227513   1.201   2.708  75.693  2.2949  0.7398 -0.4022
 2008TIP3   OH227514   0.095   2.540  36.913 -0.1527 -0.4432 -0.2263
 2008TIP3    H127515   0.144   2.620  36.899  0.8994 -1.0116  0.1175
 2008TIP3    H227516   0.051   2.553  36.998  1.2413 -0.8132  0.5807
 2009TIP3   OH227517   1.409   1.859  21.983 -0.6704  0.2310 -0.0052
 2009TIP3    H127518   1.439   1.859  22.074 -0.9360  1.6727  0.1056
 2009TIP3    H227519   1.488   1.876  21.932 -0.7308  0.7124  0.0550
 2010TIP3   OH227520   2.510   0.725  34.368  0.0425  0.4828  0.1227
 2010TIP3    H127521   2.598   0.742  34.335  0.5525 -1.6795  0.2095
 2010TIP3    H227522   2.522   0.719  34.463 -0.4058  1.2182  0.2313
 2011TIP3   OH227523   2.064   0.830 112.174  0.2412  0.0749  0.2156
 2011TIP3    H127524   2.115   0.794 112.101  0.7933  1.7247 -0.2463
 2011TIP3    H227525   2.101   0.787 112.252  0.9632 -0.2681 -0.2960
 2012TIP3   OH227526   0.169   2.605  52.878 -0.4643  0.0893  0.2896
 2012TIP3    H127527   0.115   2.583  52.954 -1.8596  1.3554 -0.2824
 2012TIP3    H227528   0.136   2.548  52.808 -1.0284  0.8042 -0.0387
 2013TIP3   OH227529   1.193   0.872  77.465  0.2437  0.0158  0.3473
 2013TIP3    H127530   1.232   0.948  77.507 -2.0036  0.9606  0.8459
 2013TIP3    H227531   1.139   0.908  77.395 -0.7566 -1.1176  0.5031
 2014TIP3   OH227532   0.177   1.231  77.608 -0.2884 -0.0410 -0.2797
 2014TIP3    H127533   0.148   1.309  77.561  0.6489  1.7256  1.9018
 2014TIP3    H227534   0.234   1.264  77.678  0.6642 -2.7351  0.3583
 2015TIP3   OH227535   0.654   0.242  73.895 -0.0867 -0.0876  0.9478
 2015TIP3    H127536   0.587   0.269  73.958  0.2235 -0.7422  1.5702
 2015TIP3    H227537   0.679   0.324  73.851 -1.4287  0.1412  0.5568
 2016TIP3   OH227538   1.523   0.147  20.782  0.1703 -0.4200  0.1355
 2016TIP3    H127539   1.479   0.204  20.719  0.9792  2.0821  1.7018
 2016TIP3    H227540   1.608   0.128  20.743 -0.2677 -0.9418 -0.5857
 2017TIP3   OH227541   1.956   1.875  83.667 -0.4367  0.0830  0.4024
 2017TIP3    H127542   2.051   1.880  83.663 -0.4625 -0.3185 -1.5446
 2017TIP3    H227543   1.938   1.815  83.740  0.9088 -1.8436 -0.7615
 2018TIP3   OH227544   0.855   0.054   7.530  0.0047  0.3591 -0.1512
 2018TIP3    H127545   0.890   0.077   7.616 -0.6203  0.4091  0.0952
 2018TIP3    H227546   0.781   0.114   7.517  0.0578  0.3153 -0.6981
 2019TIP3   OH227547   0.589   0.120  63.564  0.6680  0.2771 -0.1188
 2019TIP3    H127548   0.642   0.119  63.485  1.8978  4.0985  0.4744
 2019TIP3    H227549   0.650   0.096  63.634  1.1824  2.5985  0.2971
 2020TIP3   OH227550   1.767   0.714  16.502  0.0840  0.2260 -0.3866
 2020TIP3    H127551   1.744   0.741  16.413  1.3682  1.3617 -0.4056
 2020TIP3    H227552   1.684   0.685  16.540 -0.6298  0.4701 -1.6955
 2021TIP3   OH227553   0.915   2.348  10.421  0.1094 -0.4290 -0.1857
 2021TIP3    H127554   0.904   2.281  10.487 -0.4226 -1.4257 -1.2481
 2021TIP3    H227555   0.908   2.301  10.338  3.1336  0.3397 -1.0252
 2022TIP3   OH227556   0.825   2.312  68.578  0.2753  0.5969  0.2332
 2022TIP3    H127557   0.776   2.244  68.625 -1.0067  1.3928  0.0768
 2022TIP3    H227558   0.794   2.306  68.488  0.0137  1.5062  0.2550
 2023TIP3   OH227559   0.841   2.062  35.954 -0.2166  0.0529  0.6945
 2023TIP3    H127560   0.807   1.979  35.921 -1.5645  1.4571 -1.7188
 2023TIP3    H227561   0.902   2.091  35.886 -1.8008  2.2528  0.0961
 2024TIP3   OH227562   1.779   1.684  81.352 -0.3460  0.3970  0.4984
 2024TIP3    H127563   1.714   1.754  81.341  0.9974  1.6572  0.3228
 2024TIP3    H227564   1.840   1.718  81.418 -0.1420 -0.9853  1.0649
 2025TIP3   OH227565   2.425   0.898   4.491 -0.4207 -0.1771 -0.2987
 2025TIP3    H127566   2.452   0.807   4.492 -0.5353 -0.2075  0.4531
 2025TIP3    H227567   2.478   0.938   4.422  0.4655 -0.5543  0.1541
 2026TIP3   OH227568   1.484   1.568  11.022 -0.4397  0.0216 -0.1831
 2026TIP3    H127569   1.444   1.542  11.105  0.0100 -3.8999 -1.0043
 2026TIP3    H227570   1.578   1.560  11.037 -0.3670 -1.4882 -1.1828
 2027TIP3   OH227571   0.351   0.653 112.209  0.0173 -0.4559 -0.0506
 2027TIP3    H127572   0.309   0.693 112.133  0.4617 -0.4342 -0.2867
 2027TIP3    H227573   0.407   0.584 112.172  0.2190 -0.4564  0.2522
 2028TIP3   OH227574   2.030   1.646  10.479  0.3347 -0.4859 -0.0056
 2028TIP3    H127575   2.019   1.594  10.400  0.5116  0.6872 -0.8331
 2028TIP3    H227576   2.019   1.736  10.450  0.1585 -0.0393  1.3591
 2029TIP3   OH227577   0.041   0.588  11.293 -0.1396  0.4827 -0.0807
 2029TIP3    H127578  -0.024   0.592  11.223  1.1510 -1.4379 -1.5399
 2029TIP3    H227579   0.036   0.673  11.336 -2.0565  1.1872 -1.5345
 2030TIP3   OH227580   2.389   0.621  25.984 -0.0709 -0.1981  0.3976
 2030TIP3    H127581   2.351   0.680  25.919 -0.9995 -1.0076  0.1713
 2030TIP3    H227582   2.341   0.539  25.972  0.1991 -0.5645  1.6677
 2031TIP3   OH227583   1.191   1.586   4.669  0.3093  0.1247  0.5677
 2031TIP3    H127584   1.233   1.502   4.651  0.8082  0.1863  1.3822
 2031TIP3    H227585   1.120   1.592   4.605  0.0468 -1.0848  0.7191
 2032TIP3   OH227586   2.455   1.388  74.439 -0.5505 -0.0717  0.3083
 2032TIP3    H127587   2.481   1.345  74.357 -1.6419 -1.2088  0.5238
 2032TIP3    H227588   2.385   1.448  74.413  0.9101  1.5764  0.0170
 2033TIP3   OH227589   1.554   1.737 101.383  0.1069 -0.3351 -0.4468
 2033TIP3    H127590   1.621   1.686 101.337  1.3017  0.1022  0.7326
 2033TIP3    H227591   1.545   1.692 101.467  2.2468  2.0735  1.2408
 2034TIP3   OH227592   1.919   0.940  12.638  0.6695 -0.1563 -0.6161
 2034TIP3    H127593   1.879   1.025  12.623 -2.4510 -1.5979 -1.4461
 2034TIP3    H227594   1.932   0.936  12.733 -1.3041  0.4372 -0.2707
 2035TIP3   OH227595   1.107   0.361 107.706  0.0850 -0.3531 -0.0059
 2035TIP3    H127596   1.012   0.368 107.693  0.0767 -0.4092  0.0252
 2035TIP3    H227597   1.133   0.446 107.742  0.1643 -0.0784 -0.7116
 2036TIP3   OH227598   0.542   0.496   7.284 -0.3230  0.4398 -0.0494
 2036TIP3    H127599   0.634   0.524   7.289 -0.2909  0.3430 -0.0960
 2036TIP3    H227600   0.515   0.488   7.375  0.0239 -0.5451 -0.0228
 2037TIP3   OH227601   2.479   1.848   4.923 -0.1960 -0.2915 -0.3187
 2037TIP3    H127602   2.412   1.906   4.959 -0.6201 -1.0773  0.2099
 2037TIP3    H227603   2.535   1.904   4.870 -0.9748  0.4687 -0.3447
 2038TIP3   OH227604   2.384   0.404  97.728 -0.2351  0.1399  0.0883
 2038TIP3    H127605   2.317   0.439  97.786  0.0703 -0.1719  0.6370
 2038TIP3    H227606   2.335   0.360  97.658 -0.6202  1.4835 -0.5197
 2039TIP3   OH227607   1.875   0.682  91.283 -0.3144 -0.0560  0.1055
 2039TIP3    H127608   1.951   0.624  91.277 -0.0956  0.2366  0.0169
 2039TIP3    H227609   1.812   0.646  91.221  0.5950  0.9524 -1.4434
 2040TIP3   OH227610   2.153   1.445  99.266 -0.5653 -0.2460  0.1135
 2040TIP3    H127611   2.140   1.370  99.208 -0.7370 -0.0910 -0.0485
 2040TIP3    H227612   2.072   1.496  99.257  0.4334  1.1654 -1.5202
 2041TIP3   OH227613   0.087   0.955  92.526 -0.2946 -0.2009 -0.4902
 2041TIP3    H127614   0.114   0.880  92.472 -0.2387 -0.5324 -0.0017
 2041TIP3    H227615   0.169   1.000  92.546 -0.0266 -1.3662  1.2304
 2042TIP3   OH227616   1.154   0.229  74.914 -0.0327 -0.1710  0.1628
 2042TIP3    H127617   1.215   0.154  74.912  2.2013  1.5525 -0.5649
 2042TIP3    H227618   1.078   0.199  74.864 -0.3204 -2.7570  1.9345
 2043TIP3   OH227619   1.307   1.706  36.833 -0.2122  0.6471  0.2505
 2043TIP3    H127620   1.269   1.718  36.746 -0.6420 -1.7632  0.0335
 2043TIP3    H227621   1.256   1.765  36.890 -2.3988 -0.3693 -0.5389
 2044TIP3   OH227622   1.065   2.396  93.220  0.0649 -0.7608  0.7256
 2044TIP3    H127623   0.998   2.328  93.227  1.2996 -2.4203 -1.9054
 2044TIP3    H227624   1.016   2.478  93.213 -1.6071 -1.7307  0.7461
 2045TIP3   OH227625   2.430   1.807  97.814  0.5401 -0.1931 -0.3376
 2045TIP3    H127626   2.500   1.873  97.812  0.5062 -0.1693 -1.8316
 2045TIP3    H227627   2.477   1.724  97.823  0.6915 -0.0953 -0.2088
 2046TIP3   OH227628   2.064   2.006 102.916 -0.2996 -0.5506 -0.4917
 2046TIP3    H127629   2.036   2.095 102.896  0.5151 -0.3543 -0.8186
 2046TIP3    H227630   1.985   1.953 102.906 -1.1144  0.2983  1.0216
 2047TIP3   OH227631   1.264   1.212  23.709  0.4858  0.2010 -0.4920
 2047TIP3    H127632   1.205   1.270  23.661  0.4019 -0.4630 -1.2275
 2047TIP3    H227633   1.234   1.124  23.685  0.8243 -0.1419  0.3296
 2048TIP3   OH227634   2.118   1.872  31.001 -0.2367 -0.2896 -0.2424
 2048TIP3    H127635   2.087   1.827  31.080  0.1747  0.9655  0.6706
 2048TIP3    H227636   2.107   1.965  31.020  1.0015  0.0823 -1.1852
 2049TIP3   OH227637   0.953   0.680  99.808  0.2467  0.3243 -0.0569
 2049TIP3    H127638   0.914   0.768  99.800  1.6709  1.0255  0.3431
 2049TIP3    H227639   1.000   0.667  99.726  0.4023  0.1240  0.0630
 2050TIP3   OH227640   1.916   0.020  77.361 -0.6183 -0.4387  0.2151
 2050TIP3    H127641   1.896   0.044  77.451  1.8604  3.4699 -0.0319
 2050TIP3    H227642   1.968  -0.060  77.367 -0.2701 -0.0910  2.2958
 2051TIP3   OH227643   2.138   0.220  21.301  0.3860  0.5592  0.4511
 2051TIP3    H127644   2.206   0.153  21.293  0.1836  0.3086  0.7899
 2051TIP3    H227645   2.161   0.286  21.235  0.0924 -0.2732 -0.5177
 2052TIP3   OH227646   1.116   2.173 101.478  0.3130 -0.1850  0.3322
 2052TIP3    H127647   1.098   2.127 101.396 -0.4479  0.2586  0.2435
 2052TIP3    H227648   1.162   2.253 101.451 -1.4159  0.7981  0.1586
 2053TIP3   OH227649   2.588   0.169  30.155 -0.3770 -0.9138 -0.2771
 2053TIP3    H127650   2.634   0.252  30.166  0.1777 -1.1149 -0.9881
 2053TIP3    H227651   2.604   0.122  30.237  0.2890 -0.7825 -0.3198
 2054TIP3   OH227652   2.421   2.644   8.060  0.4375 -0.1112 -0.2604
 2054TIP3    H127653   2.435   2.739   8.054  0.0072  0.0648  1.2210
 2054TIP3    H227654   2.368   2.623   7.982  2.0147  0.5341 -1.5774
 2055TIP3   OH227655   0.007   1.834  31.922 -0.1971  0.6057 -0.2332
 2055TIP3    H127656  -0.060   1.802  31.862 -0.7651  0.5304  0.4253
 2055TIP3    H227657   0.089   1.826  31.873 -0.6726  0.7838 -1.0860
 2056TIP3   OH227658   1.642   1.827 109.113  0.4653 -0.5172  0.1963
 2056TIP3    H127659   1.633   1.868 109.199  0.1386  0.6548 -0.3802
 2056TIP3    H227660   1.552   1.816 109.082  0.6052  0.3796 -0.5841
 2057TIP3   OH227661   0.514   2.442  99.915 -0.4637  0.1244  0.2156
 2057TIP3    H127662   0.608   2.424  99.911 -0.5183 -0.0370 -0.4681
 2057TIP3    H227663   0.500   2.475 100.004 -0.2117 -2.3778  1.2536
 2058TIP3   OH227664   0.232   1.436  96.911  0.1020 -0.0082  0.0065
 2058TIP3    H127665   0.269   1.385  96.839 -0.8663  2.4594 -2.3859
 2058TIP3    H227666   0.298   1.504  96.929  0.1412 -0.3349  1.2052
 2059TIP3   OH227667   0.370   0.437  77.237  0.2300 -0.6172 -0.0467
 2059TIP3    H127668   0.300   0.392  77.190  0.5606  1.3244 -2.5714
 2059TIP3    H227669   0.332   0.520  77.263  0.2636 -1.3580  2.7489
 2060TIP3   OH227670   0.923   0.109  19.667  0.1398  0.3188  0.5665
 2060TIP3    H127671   0.895   0.146  19.583  0.3500 -2.2222 -0.7311
 2060TIP3    H227672   0.994   0.050  19.644 -0.0601 -0.7282  2.4828
 2061TIP3   OH227673   0.845   0.230  20.316  0.2732  0.0632 -0.0310
 2061TIP3    H127674   0.782   0.210  20.246  0.5089 -0.6661 -0.0485
 2061TIP3    H227675   0.790   0.256  20.391 -0.0367 -0.2543 -0.1428
 2062TIP3   OH227676   2.150   0.792  25.379  0.0303  0.2375 -0.4071
 2062TIP3    H127677   2.158   0.765  25.470 -1.0552 -1.3750 -0.7379
 2062TIP3    H227678   2.204   0.729  25.330  2.0057  2.1184 -0.7826
 2063TIP3   OH227679   2.545   0.894  91.822  0.0333 -0.0187  0.0748
 2063TIP3    H127680   2.483   0.962  91.796 -0.5036 -0.0366  1.2598
 2063TIP3    H227681   2.622   0.910  91.767 -0.7730  0.3852 -0.9774
 2064TIP3   OH227682   1.292   1.393  33.132  0.2613 -0.3183  0.0798
 2064TIP3    H127683   1.227   1.433  33.189 -0.3787 -2.3460  0.8508
 2064TIP3    H227684   1.329   1.321  33.183  1.8640 -0.3099 -0.9844
 2065TIP3   OH227685   1.292   1.218  99.282 -0.1235 -0.1571 -0.4737
 2065TIP3    H127686   1.377   1.207  99.240 -0.5772  0.3708 -1.5366
 2065TIP3    H227687   1.306   1.288  99.346  0.8580 -1.7047  1.1233
 2066TIP3   OH227688   0.189   0.308  90.939 -0.1513  0.2245  1.1004
 2066TIP3    H127689   0.223   0.381  90.991  1.8470 -1.3833  2.2337
 2066TIP3    H227690   0.265   0.250  90.927 -1.6203 -1.6217  0.1894
 2067TIP3   OH227691   0.804   0.246  15.518  0.3243 -0.2802 -0.0594
 2067TIP3    H127692   0.709   0.242  15.510  0.4906 -0.9204 -2.4787
 2067TIP3    H227693   0.824   0.191  15.593 -1.2109  0.0930  0.6703
 2068TIP3   OH227694   1.152   1.233  85.432 -0.7075 -0.0461  0.3804
 2068TIP3    H127695   1.247   1.238  85.439 -0.5695 -0.5757 -0.8989
 2068TIP3    H227696   1.136   1.194  85.346 -2.0591 -1.5623  1.2672
 2069TIP3   OH227697   1.715   1.565  86.965  0.4662  0.0307 -0.1167
 2069TIP3    H127698   1.717   1.590  87.058 -0.8005 -0.3598  0.0332
 2069TIP3    H227699   1.805   1.577  86.936  1.1650 -0.9596  1.4646
 2070TIP3   OH227700   0.882   0.712   1.439  0.6294 -0.2697 -0.4986
 2070TIP3    H127701   0.803   0.675   1.479  1.0250 -0.1436  0.4181
 2070TIP3    H227702   0.945   0.641   1.441  0.7485 -0.1668 -0.6087
 2071TIP3   OH227703   0.645   2.029  24.147  0.0579 -0.4608 -0.1952
 2071TIP3    H127704   0.705   2.069  24.210 -0.1369 -0.5472  0.0441
 2071TIP3    H227705   0.695   1.956  24.110  0.4375  0.0363 -0.6811
 2072TIP3   OH227706   0.729   1.084  35.057  0.3050 -0.7133 -0.8020
 2072TIP3    H127707   0.821   1.103  35.037  1.5089 -2.3855  2.4205
 2072TIP3    H227708   0.714   0.996  35.021 -0.8584  0.4065 -3.3041
 2073TIP3   OH227709   0.432   2.586   8.063 -0.4285  0.2336 -0.0179
 2073TIP3    H127710   0.496   2.626   8.122 -2.1191  2.3548  0.5165
 2073TIP3    H227711   0.484   2.553   7.989  1.4410  0.0130  1.3448
 2074TIP3   OH227712   2.589   0.444   4.617 -0.1467  0.6019 -0.1495
 2074TIP3    H127713   2.579   0.361   4.570  1.5607  0.4126 -0.2571
 2074TIP3    H227714   2.601   0.417   4.709  2.9330  0.4660 -0.4849
 2075TIP3   OH227715   1.510   2.408  82.743  0.4572  0.8702  0.0974
 2075TIP3    H127716   1.429   2.428  82.790  0.3009  0.8530 -0.1641
 2075TIP3    H227717   1.511   2.470  82.670 -0.3594 -0.4705 -1.1027
 2076TIP3   OH227718   0.625   0.151  81.657  0.4783  0.6977 -0.1246
 2076TIP3    H127719   0.603   0.059  81.640  0.9696  0.2683  1.4179
 2076TIP3    H227720   0.649   0.186  81.572 -1.1977 -0.1809 -1.0137
 2077TIP3   OH227721   0.676   1.918  81.538  0.4692 -0.4402  0.0963
 2077TIP3    H127722   0.664   1.828  81.509  0.2436 -0.6960  0.9656
 2077TIP3    H227723   0.658   1.971  81.460  3.4190 -1.2187 -1.2423
 2078TIP3   OH227724   0.809   0.173  66.285 -0.2640  0.2436 -0.0155
 2078TIP3    H127725   0.729   0.184  66.235  0.2248 -0.3802 -0.9690
 2078TIP3    H227726   0.879   0.182  66.220  0.3578 -1.8550  0.2805
 2079TIP3   OH227727   0.911   1.793  34.722  0.7866 -0.2673  0.4474
 2079TIP3    H127728   0.902   1.771  34.815 -0.1660  0.5343  0.5605
 2079TIP3    H227729   1.001   1.827  34.714  0.3116  1.3455  1.4540
 2080TIP3   OH227730   0.865   0.993 110.114  0.0788  0.4421 -0.0066
 2080TIP3    H127731   0.805   1.061 110.143  0.0294 -0.0780  1.1723
 2080TIP3    H227732   0.889   0.946 110.194  0.9729 -0.2317 -0.6440
 2081TIP3   OH227733   0.583   0.586  28.952 -0.2048  0.3680 -0.0803
 2081TIP3    H127734   0.649   0.604  28.886  2.0321 -2.1738  1.2810
 2081TIP3    H227735   0.508   0.553  28.902  0.6556  0.4556 -1.4901
 2082TIP3   OH227736   1.198   0.763  98.567  0.2082  0.0256 -0.6198
 2082TIP3    H127737   1.233   0.678  98.591 -0.0221  0.2413  0.5719
 2082TIP3    H227738   1.114   0.744  98.524 -0.3061 -0.3292  0.5042
 2083TIP3   OH227739   1.005   1.085  26.583 -0.2911  0.6776 -0.1743
 2083TIP3    H127740   1.071   1.095  26.515  1.3053 -1.3048  0.9760
 2083TIP3    H227741   0.975   1.174  26.601  0.5316  1.4153 -2.1923
 2084TIP3   OH227742   2.265   0.534  22.806  0.1294  0.1047 -0.8871
 2084TIP3    H127743   2.245   0.477  22.731 -0.8248 -0.1239 -0.4637
 2084TIP3    H227744   2.357   0.514  22.826  0.1091 -0.5342 -1.3912
 2085TIP3   OH227745   0.611   0.197   5.960 -0.4107  0.3636  0.0026
 2085TIP3    H127746   0.651   0.133   5.900 -0.8168  1.1742 -1.1632
 2085TIP3    H227747   0.520   0.168   5.968 -0.4119  0.3828  0.0552
 2086TIP3   OH227748   2.659   0.412  58.389 -0.7416  0.7689  0.0078
 2086TIP3    H127749   2.719   0.338  58.395 -1.3015  0.0713 -2.1769
 2086TIP3    H227750   2.600   0.400  58.464  0.9728  0.7483  1.4332
 2087TIP3   OH227751   2.541   2.346 110.219 -0.1453 -0.3325 -0.5514
 2087TIP3    H127752   2.566   2.268 110.267  0.4495  0.6217  0.7493
 2087TIP3    H227753   2.445   2.342 110.215 -0.1637 -0.7361  0.1891
 2088TIP3   OH227754   1.427   2.015 100.550  0.0054 -0.2172  0.4037
 2088TIP3    H127755   1.482   1.993 100.475 -0.7948 -2.1783  0.3409
 2088TIP3    H227756   1.353   2.063 100.513 -1.6052 -3.1970 -0.4816
 2089TIP3   OH227757   2.536   0.475  26.738 -0.2268  0.1408 -0.0431
 2089TIP3    H127758   2.561   0.408  26.674  0.9127  0.4146  0.0942
 2089TIP3    H227759   2.535   0.557  26.687 -0.7946  0.1434 -0.0297
 2090TIP3   OH227760   1.837   0.235   8.144 -0.1568  0.1058 -0.6018
 2090TIP3    H127761   1.831   0.177   8.220 -1.3904 -1.4305 -1.8123
 2090TIP3    H227762   1.931   0.244   8.128  0.1003 -0.0666  0.6883
 2091TIP3   OH227763   2.214   0.387  75.803 -0.2882 -0.4052 -0.5597
 2091TIP3    H127764   2.211   0.316  75.739 -2.5526 -0.1507 -0.8337
 2091TIP3    H227765   2.157   0.357  75.874  2.4208 -0.8319  1.6120
 2092TIP3   OH227766   0.085   0.472  85.793  0.0277 -0.4660  0.3550
 2092TIP3    H127767   0.050   0.464  85.882 -0.1272 -0.7130  0.2697
 2092TIP3    H227768   0.099   0.566  85.781  0.3256 -0.4590  0.7417
 2093TIP3   OH227769   2.398   1.106   4.655 -0.4450 -0.4258  0.1814
 2093TIP3    H127770   2.466   1.134   4.594  0.2308  0.6073  1.3623
 2093TIP3    H227771   2.390   1.012   4.640  0.8590 -0.4770 -0.3735
 2094TIP3   OH227772   2.351   1.911  31.645 -0.5447 -0.3966  0.5803
 2094TIP3    H127773   2.268   1.904  31.598  0.0564 -0.8558 -0.4546
 2094TIP3    H227774   2.350   1.999  31.683 -1.2523 -0.1910  0.1145
 2095TIP3   OH227775   1.456   1.594  86.124 -0.0088 -0.0202  1.0068
 2095TIP3    H127776   1.478   1.682  86.093  0.0612  0.4065  2.2417
 2095TIP3    H227777   1.533   1.541  86.103  0.5416  0.5426  1.5949
 2096TIP3   OH227778   2.170   0.831 100.616 -0.7525  0.4969 -0.2473
 2096TIP3    H127779   2.083   0.798 100.638 -0.6263 -0.0413 -0.5353
 2096TIP3    H227780   2.231   0.771 100.660 -0.5079 -0.2248 -1.5327
 2097TIP3   OH227781   0.482   1.943  20.620  0.0376 -0.0894  0.0419
 2097TIP3    H127782   0.507   1.967  20.531  3.5250 -0.2048  0.8553
 2097TIP3    H227783   0.486   1.847  20.621 -0.2788 -0.1034  0.2658
 2098TIP3   OH227784   1.509   0.035 101.420 -0.1983  0.0968  0.3497
 2098TIP3    H127785   1.535  -0.057 101.427 -1.6158 -0.3967 -0.4046
 2098TIP3    H227786   1.584   0.078 101.380  0.8684 -0.5294  1.6171
 2099TIP3   OH227787   2.610   1.229   5.698 -0.4448  0.1403 -0.1169
 2099TIP3    H127788   2.696   1.273   5.701  0.0844 -0.8889  0.2969
 2099TIP3    H227789   2.599   1.193   5.786 -1.0275 -0.2513 -0.3464
 2100TIP3   OH227790   0.607   1.053  92.496 -0.3299 -0.3462  0.6311
 2100TIP3    H127791   0.639   1.018  92.413 -3.6198  0.1176 -1.0109
 2100TIP3    H227792   0.580   0.976  92.546 -0.6015 -0.5246  0.2158
 2101TIP3   OH227793   0.398   0.635  32.032  0.5569  0.4852 -0.4186
 2101TIP3    H127794   0.445   0.586  32.099  1.3540  0.7651 -0.7607
 2101TIP3    H227795   0.384   0.721  32.071  2.8683  1.3517 -1.3276
 2102TIP3   OH227796   1.232   0.357  94.464  0.5619 -0.4635  0.0480
 2102TIP3    H127797   1.229   0.303  94.542  3.1527 -2.1337 -0.8595
 2102TIP3    H227798   1.198   0.300  94.394  0.6128  0.1068 -0.4517
 2103TIP3   OH227799   1.114   0.937   2.342 -0.1734  0.0156 -0.0073
 2103TIP3    H127800   1.038   0.990   2.363  0.5420  1.3737 -0.7287
 2103TIP3    H227801   1.147   0.908   2.427  0.3364  2.0716  0.5395
 2104TIP3   OH227802   1.506   1.879 105.069  0.3671 -0.6301 -0.0328
 2104TIP3    H127803   1.527   1.954 105.014 -2.6589 -0.5031 -1.1822
 2104TIP3    H227804   1.485   1.916 105.154  0.5646 -0.3538 -0.1050
 2105TIP3   OH227805   0.117   0.659   4.967 -0.1028  0.7451 -0.0422
 2105TIP3    H127806   0.101   0.709   5.047  0.1871 -0.4287  0.7747
 2105TIP3    H227807   0.052   0.691   4.905 -1.0119  0.9467  0.9964
 2106TIP3   OH227808   0.829   0.734  17.241 -0.4298 -0.2747  0.2374
 2106TIP3    H127809   0.919   0.747  17.213 -0.1582 -1.1638  0.6594
 2106TIP3    H227810   0.832   0.656  17.297 -1.3319  0.0989  0.8437
 2107TIP3   OH227811   0.582   2.014  77.248 -0.1955 -0.1333  0.2612
 2107TIP3    H127812   0.665   1.965  77.256  1.0584  1.7522 -0.5168
 2107TIP3    H227813   0.558   2.036  77.337 -1.1635 -2.6367  0.7118
 2108TIP3   OH227814   1.141   1.998  23.158  0.0883 -0.3377 -0.5655
 2108TIP3    H127815   1.203   1.938  23.116  0.9377  1.0417 -1.3990
 2108TIP3    H227816   1.122   1.958  23.243  0.4943 -1.8399 -1.1503
 2109TIP3   OH227817   1.099   2.421  88.819  0.4251  0.3589  0.1295
 2109TIP3    H127818   1.044   2.420  88.897  1.1509  1.4409  0.6766
 2109TIP3    H227819   1.053   2.366  88.757  0.0099 -0.8492  1.4450
 2110TIP3   OH227820   0.290   1.225  81.391 -0.4308 -0.0926 -0.3355
 2110TIP3    H127821   0.337   1.242  81.310  0.8444 -0.3017  0.3426
 2110TIP3    H227822   0.290   1.130  81.399 -0.9071 -0.0911 -0.2939
 2111TIP3   OH227823   0.210   0.056   5.385  0.2688 -0.1417  0.2804
 2111TIP3    H127824   0.304   0.070   5.397  0.1901  1.3152 -0.4639
 2111TIP3    H227825   0.201   0.035   5.292 -0.1381 -0.2276  0.3388
 2112TIP3   OH227826   0.557   1.286   0.211  0.4585 -0.0202  0.2550
 2112TIP3    H127827   0.528   1.277   0.120 -1.0407 -0.5137  0.7507
 2112TIP3    H227828   0.510   1.363   0.243  1.3569  0.4391  0.4786
 2113TIP3   OH227829   0.940   0.115  74.813  0.0613  0.5595 -0.1284
 2113TIP3    H127830   0.929   0.020  74.819  0.1670  0.6012  0.8518
 2113TIP3    H227831   0.941   0.133  74.719  1.3781 -0.5664 -0.3621
 2114TIP3   OH227832   0.799   0.716 100.954  0.0705  0.0926  0.7030
 2114TIP3    H127833   0.733   0.689 101.018  0.9763  0.6933  1.9475
 2114TIP3    H227834   0.761   0.792 100.910 -0.6817 -0.4980  0.3229
 2115TIP3   OH227835   0.766   2.338  97.986  0.1633  0.1408 -0.2876
 2115TIP3    H127836   0.734   2.249  97.968  1.4079 -0.6213  1.0839
 2115TIP3    H227837   0.725   2.361  98.070  0.2792  0.6569 -0.3692
 2116TIP3   OH227838   0.792   1.498  32.132 -0.2282  0.2180 -0.6205
 2116TIP3    H127839   0.867   1.441  32.146 -0.5754  0.0595  0.7821
 2116TIP3    H227840   0.743   1.495  32.215 -1.0010  1.4527 -0.9883
 2117TIP3   OH227841   1.978   2.280   6.592 -0.2702  0.0358 -1.0929
 2117TIP3    H127842   2.025   2.224   6.654 -0.7073 -0.0432 -0.8316
 2117TIP3    H227843   2.034   2.281   6.514 -0.0530 -0.4216 -0.9475
 2118TIP3   OH227844   2.224   1.396  21.519 -0.3050 -0.0370  0.4263
 2118TIP3    H127845   2.317   1.374  21.513 -0.1187 -0.0610  2.6836
 2118TIP3    H227846   2.222   1.491  21.506 -0.4510 -0.3595 -3.1353
 2119TIP3   OH227847   2.099   2.062 100.487  0.3341  0.1665  0.1280
 2119TIP3    H127848   2.091   2.115 100.408  1.6113  1.3157  0.7225
 2119TIP3    H227849   2.010   2.033 100.506  0.2046 -1.8300 -2.8335
 2120TIP3   OH227850   1.461   2.404  93.964 -0.3310  0.3358  0.0251
 2120TIP3    H127851   1.525   2.459  94.010 -1.1113  0.9016  0.4450
 2120TIP3    H227852   1.428   2.345  94.031 -0.0864 -0.1226 -0.2505
 2121TIP3   OH227853   0.492   0.454  18.282  0.6739  0.3634  0.2593
 2121TIP3    H127854   0.465   0.385  18.343 -0.1802  0.5443  0.0835
 2121TIP3    H227855   0.411   0.496  18.255  1.1120  0.7953 -0.4055
 2122TIP3   OH227856   0.927   2.297   7.803  0.2701  0.1478  0.1799
 2122TIP3    H127857   0.940   2.371   7.744  1.8460 -1.3000 -1.4210
 2122TIP3    H227858   0.982   2.316   7.878  0.2794  0.8281  0.0029
 2123TIP3   OH227859   1.423   0.667  13.162 -0.3322 -0.0777  0.1314
 2123TIP3    H127860   1.365   0.639  13.091  0.6258  0.5496 -0.9495
 2123TIP3    H227861   1.494   0.713  13.117  0.3608  0.2449  1.5086
 2124TIP3   OH227862   0.398   1.328  23.757 -0.0451  0.7493  0.5086
 2124TIP3    H127863   0.370   1.256  23.701  0.1774 -0.1694  1.5394
 2124TIP3    H227864   0.409   1.402  23.697 -0.3290 -0.0500 -0.5685
 2125TIP3   OH227865   0.339   2.002  22.478 -0.5966 -0.4023  0.1007
 2125TIP3    H127866   0.327   1.943  22.553 -0.1384 -1.0271 -0.3074
 2125TIP3    H227867   0.300   1.955  22.405  0.3296 -0.4804 -0.3528
 2126TIP3   OH227868   2.685   2.198  35.102 -0.2752 -0.4775  0.4487
 2126TIP3    H127869   2.758   2.138  35.084 -0.6268 -0.5696 -0.7660
 2126TIP3    H227870   2.728   2.282  35.121  0.1639 -0.1383 -1.7642
 2127TIP3   OH227871   2.211   0.724  86.852 -0.0883 -0.0575 -0.0948
 2127TIP3    H127872   2.160   0.793  86.894  0.4053  0.2496  0.0148
 2127TIP3    H227873   2.147   0.675  86.800 -0.3260  0.9397 -0.7786
 2128TIP3   OH227874   0.500   0.297  19.493  0.1372 -0.0344  0.0375
 2128TIP3    H127875   0.512   0.216  19.543 -1.2426  0.1249  0.6873
 2128TIP3    H227876   0.461   0.269  19.410  0.1535 -0.0884  0.0472
 2129TIP3   OH227877   0.583   0.515  57.736 -0.2656  0.0023 -0.6024
 2129TIP3    H127878   0.647   0.463  57.688 -2.1727 -1.7113 -1.4798
 2129TIP3    H227879   0.535   0.563  57.668  0.5586  1.9108  0.1016
 2130TIP3   OH227880   2.111   2.225 109.932  0.6382  0.2687  0.2211
 2130TIP3    H127881   2.185   2.214 109.991  0.3263  1.1927  0.7913
 2130TIP3    H227882   2.038   2.181 109.976  0.6263  0.1552  0.0894
 2131TIP3   OH227883   1.389   1.617  29.389  0.4612  0.5748 -0.0907
 2131TIP3    H127884   1.397   1.527  29.420  0.0484  0.5943  0.0927
 2131TIP3    H227885   1.438   1.620  29.308  0.0341  0.0392 -0.3750
 2132TIP3   OH227886   0.493   2.053  33.489  0.7507  0.0582  0.2228
 2132TIP3    H127887   0.446   1.980  33.530  1.3138 -2.2260 -2.8584
 2132TIP3    H227888   0.579   2.017  33.469  0.6985  1.1909 -2.3342
 2133TIP3   OH227889   0.167   2.154  25.428 -0.3710 -0.3001 -0.1883
 2133TIP3    H127890   0.090   2.205  25.455 -0.2853  0.6277 -1.5885
 2133TIP3    H227891   0.164   2.156  25.332  1.3193 -0.3756 -0.2612
 2134TIP3   OH227892   2.458   1.809  84.134  0.2829  0.0897 -0.0973
 2134TIP3    H127893   2.419   1.894  84.154 -0.2060 -0.3862  1.1139
 2134TIP3    H227894   2.530   1.801  84.197 -0.0184 -0.6135  0.1685
 2135TIP3   OH227895   1.606   2.601  19.538  0.0851  0.1857 -0.6940
 2135TIP3    H127896   1.675   2.587  19.473  0.5201  0.3773 -0.2793
 2135TIP3    H227897   1.645   2.661  19.602 -0.0348 -0.6531  0.1933
 2136TIP3   OH227898   0.864   1.688  93.577  0.0221  0.0949 -0.6720
 2136TIP3    H127899   0.818   1.677  93.494 -2.2380  0.7391  0.4280
 2136TIP3    H227900   0.884   1.781  93.581 -2.4747  0.6616  0.7017
 2137TIP3   OH227901   1.027   2.606   2.050  0.2007  1.0823  0.4529
 2137TIP3    H127902   0.975   2.619   1.971 -0.3598  0.1622  0.6490
 2137TIP3    H227903   1.115   2.634   2.026  0.4476 -0.7188 -1.0551
 2138TIP3   OH227904   1.847   1.969 107.503  0.1089 -0.3972  0.5972
 2138TIP3    H127905   1.837   2.064 107.498  1.8711 -0.2556 -1.3353
 2138TIP3    H227906   1.780   1.935 107.443 -0.2479 -0.3717  0.9757
 2139TIP3   OH227907   2.036   0.571  16.273 -0.3819  0.3103 -0.2370
 2139TIP3    H127908   2.103   0.632  16.304  0.4683 -1.0851  0.7710
 2139TIP3    H227909   2.021   0.596  16.182  0.3689  1.6285 -0.0249
 2140TIP3   OH227910   0.203   0.838   2.585 -0.7606  0.0208  0.1359
 2140TIP3    H127911   0.245   0.775   2.642  1.3245  0.5145 -0.7635
 2140TIP3    H227912   0.192   0.791   2.502 -0.2450  0.4617 -0.1899
 2141TIP3   OH227913   0.120   1.296  19.367 -0.5379 -0.0560  0.1411
 2141TIP3    H127914   0.196   1.332  19.412 -0.9719  1.0348  0.0328
 2141TIP3    H227915   0.120   1.338  19.281 -1.9131  0.8927  0.5597
 2142TIP3   OH227916   0.948   1.813  15.341 -0.2405 -0.3004 -0.1461
 2142TIP3    H127917   0.928   1.860  15.422 -0.4941  0.1836 -0.4905
 2142TIP3    H227918   0.888   1.738  15.342 -1.9932  1.0163 -1.0651
 2143TIP3   OH227919   2.517   0.092  98.420  0.2705  0.0822 -0.3345
 2143TIP3    H127920   2.447   0.092  98.486  0.2187 -1.7541 -0.3267
 2143TIP3    H227921   2.475   0.124  98.340  0.3548  2.4268  0.4850
 2144TIP3   OH227922   2.388   1.816   7.643 -0.1660 -0.1920  0.1424
 2144TIP3    H127923   2.407   1.848   7.731 -0.6496 -0.1803  0.2412
 2144TIP3    H227924   2.454   1.748   7.629  0.7292  0.6619  0.0181
 2145TIP3   OH227925   1.304   2.353   3.926  0.0156 -0.2438  0.1524
 2145TIP3    H127926   1.213   2.326   3.936 -0.1868 -0.1715 -1.2335
 2145TIP3    H227927   1.354   2.290   3.978 -0.8258 -0.2245  0.9929
 2146TIP3   OH227928   2.438   2.617  37.443 -0.0250  0.1451  0.2153
 2146TIP3    H127929   2.437   2.683  37.374  0.2399 -0.5630 -0.4781
 2146TIP3    H227930   2.393   2.541  37.405  1.0826 -0.6352  0.4150
 2147TIP3   OH227931   2.411   2.202 100.610 -0.0384 -0.0371  0.3708
 2147TIP3    H127932   2.360   2.179 100.688 -0.8878 -0.8320 -0.4003
 2147TIP3    H227933   2.488   2.145 100.615  1.0489  1.4438  1.7556
 2148TIP3   OH227934   2.176   0.142  24.306  0.3296  0.0016 -0.0615
 2148TIP3    H127935   2.140   0.229  24.325  0.7856 -0.0307  1.0311
 2148TIP3    H227936   2.157   0.091  24.385  0.9578 -0.6059 -0.2968
 2149TIP3   OH227937   2.470   1.665  26.415 -0.0695 -0.1154 -0.0637
 2149TIP3    H127938   2.529   1.591  26.402 -0.3280 -0.1154 -1.2972
 2149TIP3    H227939   2.427   1.646  26.499  0.1859 -1.1468 -0.1490
 2150TIP3   OH227940   1.724   2.070  34.316 -0.0292 -0.2145  0.3249
 2150TIP3    H127941   1.744   2.034  34.402  1.0852 -0.1671  0.1000
 2150TIP3    H227942   1.672   2.149  34.334 -0.8848 -0.8961  0.8854
 2151TIP3   OH227943   0.902   0.101  22.546  0.1449  0.0771  0.3110
 2151TIP3    H127944   0.916   0.023  22.492 -1.0534  0.5859 -0.7730
 2151TIP3    H227945   0.975   0.159  22.523  0.1348 -0.0718 -0.1125
 2152TIP3   OH227946   0.653   0.780   8.490 -0.5680  0.0639  0.2533
 2152TIP3    H127947   0.623   0.853   8.435 -0.6318 -0.2549 -0.1402
 2152TIP3    H227948   0.748   0.780   8.480 -0.5593  0.1540  0.3328
 2153TIP3   OH227949   1.700   0.984  63.330 -0.3309 -0.1529  0.5005
 2153TIP3    H127950   1.751   0.960  63.252 -1.8739 -1.4323 -0.1808
 2153TIP3    H227951   1.660   0.902  63.358 -2.3968  0.8699  0.6991
 2154TIP3   OH227952   0.305   2.604  51.997 -0.2081 -0.4033 -0.3513
 2154TIP3    H127953   0.345   2.559  52.072  0.1275 -1.2295 -1.0115
 2154TIP3    H227954   0.280   2.690  52.032  0.6128 -0.4928  0.5185
 2155TIP3   OH227955   0.813   0.688  52.132  0.3131  0.0723  0.5565
 2155TIP3    H127956   0.814   0.756  52.065  3.5312  2.6173  2.8990
 2155TIP3    H227957   0.901   0.650  52.129 -0.2725 -1.4760  1.7619
 2156TIP3   OH227958   2.532   2.327  87.888 -0.1187 -0.5244  0.4576
 2156TIP3    H127959   2.527   2.317  87.793  1.6509 -2.8681  0.5039
 2156TIP3    H227960   2.448   2.297  87.920 -1.1194  1.2427 -0.3600
 2157TIP3   OH227961   0.922   0.531  87.452  0.2126  0.3700  0.0806
 2157TIP3    H127962   0.852   0.499  87.509  0.8335 -1.8320 -0.2835
 2157TIP3    H227963   0.961   0.452  87.415  0.7734  1.6735 -2.3004
 2158TIP3   OH227964   0.615   0.043 103.729 -0.0124  0.0615  0.2270
 2158TIP3    H127965   0.631   0.135 103.749  0.0529  0.2144 -0.4736
 2158TIP3    H227966   0.521   0.031 103.744 -0.0898  0.3400 -0.0214
 2159TIP3   OH227967   0.219   2.585 110.386 -0.1125  0.1708  0.0037
 2159TIP3    H127968   0.268   2.655 110.428 -2.5029  1.1714  1.3362
 2159TIP3    H227969   0.136   2.626 110.360 -1.4247 -2.0234  0.4488
 2160TIP3   OH227970   0.267   2.058 109.217 -0.2010  0.0131 -0.0632
 2160TIP3    H127971   0.258   2.151 109.194  0.1490 -0.0199 -0.3437
 2160TIP3    H227972   0.300   2.017 109.137  0.5442 -0.1973  0.3393
 2161TIP3   OH227973   2.654   1.561  33.062  0.2128  0.0848 -0.3226
 2161TIP3    H127974   2.680   1.645  33.098  0.7105 -0.0229 -0.4249
 2161TIP3    H227975   2.579   1.581  33.006 -0.0552  0.3674  0.1364
 2162TIP3   OH227976   0.599   1.476  69.241 -0.1548  0.3409  0.0819
 2162TIP3    H127977   0.670   1.440  69.188 -0.9167 -1.2922  0.1246
 2162TIP3    H227978   0.639   1.492  69.327  0.1847 -0.4858  0.0809
 2163TIP3   OH227979   2.110   2.568  45.396 -0.0938 -0.0246 -0.9225
 2163TIP3    H127980   2.196   2.552  45.356 -0.2544 -1.7892 -0.6555
 2163TIP3    H227981   2.112   2.519  45.478 -1.3094  0.0190 -0.8460
 2164TIP3   OH227982   0.159   0.806   3.099 -0.2891 -0.4207 -0.3790
 2164TIP3    H127983   0.118   0.750   3.165 -0.2209  0.2096  0.2175
 2164TIP3    H227984   0.085   0.843   3.050 -0.7454  2.6296  2.2441
 2165TIP3   OH227985   1.134   0.904  87.170  0.0209 -0.3711 -0.0708
 2165TIP3    H127986   1.065   0.879  87.231 -1.4369  2.1480 -0.5432
 2165TIP3    H227987   1.091   0.903  87.084 -0.1917  3.3512 -0.1471
 2166TIP3   OH227988   0.162   1.007  11.770 -0.1638 -0.0429  0.1593
 2166TIP3    H127989   0.185   0.923  11.731 -1.1691 -0.5587  0.6542
 2166TIP3    H227990   0.074   1.027  11.738 -0.5928  0.0246  1.2992
 2167TIP3   OH227991   2.636   1.410  83.032  0.5453 -0.1963  0.4585
 2167TIP3    H127992   2.596   1.378  83.113  1.5433 -1.4822  0.4889
 2167TIP3    H227993   2.607   1.347  82.965  1.6724 -0.5646  0.2957
 2168TIP3   OH227994   0.282   2.105  76.785 -0.0682  0.9428  0.5299
 2168TIP3    H127995   0.204   2.095  76.730  0.4272  0.9717 -0.2007
 2168TIP3    H227996   0.310   2.195  76.769 -0.3081  1.1683  1.3607
 2169TIP3   OH227997   1.393   1.091  81.680 -0.5197  0.0661 -0.4850
 2169TIP3    H127998   1.432   1.022  81.626  0.6411  0.0043  0.3974
 2169TIP3    H227999   1.315   1.051  81.717  0.5560 -1.0849  0.6365
 2170TIP3   OH228000   0.657   1.111   3.331 -0.0331 -0.0296 -0.2514
 2170TIP3    H128001   0.624   1.023   3.351  0.4519 -0.3203 -0.6879
 2170TIP3    H228002   0.745   1.112   3.368 -1.2086  1.5147  2.9311
 2171TIP3   OH228003   1.083   1.269 103.201 -0.2941  0.0419  0.0408
 2171TIP3    H128004   1.125   1.215 103.134  0.4411  0.4514  0.1632
 2171TIP3    H228005   1.112   1.358 103.183 -1.6129  0.4461 -0.2476
 2172TIP3   OH228006   2.538   2.251  85.562  1.0180  0.1240  0.1766
 2172TIP3    H128007   2.558   2.241  85.655  1.2579 -1.9765 -0.0628
 2172TIP3    H228008   2.512   2.164  85.533  1.1436  0.6890 -1.7882
 2173TIP3   OH228009   0.902   0.004  94.220  0.4901  0.1711  0.0058
 2173TIP3    H128010   0.854   0.086  94.229 -1.6100 -1.0497  0.9739
 2173TIP3    H228011   0.928   0.001  94.128 -1.6084  0.8358 -0.6845
 2174TIP3   OH228012   0.639   1.807 111.250  0.5124  0.5136  0.1332
 2174TIP3    H128013   0.731   1.806 111.276  0.8786 -1.4628 -1.0139
 2174TIP3    H228014   0.593   1.843 111.326  2.0185 -0.4611  1.5791
 2175TIP3   OH228015   1.790   0.981 107.471  0.2842 -0.3437 -0.1744
 2175TIP3    H128016   1.883   0.964 107.485  0.4084  0.9910  0.7858
 2175TIP3    H228017   1.750   0.970 107.557 -0.4139 -0.6839 -0.5376
 2176TIP3   OH228018   2.653   1.729 102.407  0.5638  0.3400 -0.3811
 2176TIP3    H128019   2.670   1.728 102.313  3.3157  0.6740  0.0475
 2176TIP3    H228020   2.676   1.818 102.435 -1.1701  0.5539  0.4986
 2177TIP3   OH228021   1.605   1.920  23.081 -0.2892 -0.6542  0.8515
 2177TIP3    H128022   1.614   1.940  22.988 -0.4372 -0.8596  0.7911
 2177TIP3    H228023   1.684   1.872  23.104  0.7656  1.2260  1.3371
 2178TIP3   OH228024   0.593   1.753  91.553 -0.1045 -0.0884  0.1148
 2178TIP3    H128025   0.518   1.714  91.598 -1.1443  1.4357 -0.2259
 2178TIP3    H228026   0.668   1.725  91.605 -0.9507 -1.1359  0.8400
 2179TIP3   OH228027   2.683   1.530  27.000 -0.0710 -1.0123 -0.3208
 2179TIP3    H128028   2.718   1.588  27.067 -0.0030 -2.6378  1.1303
 2179TIP3    H228029   2.657   1.588  26.929 -0.4346  0.8221  1.2346
 2180TIP3   OH228030   0.388   2.465  82.956 -0.2116  0.1385 -0.3820
 2180TIP3    H128031   0.377   2.372  82.938  1.3817  0.1016 -1.3396
 2180TIP3    H228032   0.480   2.483  82.935 -0.6367  2.0395 -0.8022
 2181TIP3   OH228033   0.013   1.484 110.191 -0.7190  0.0796  0.2019
 2181TIP3    H128034   0.092   1.538 110.195 -0.6538 -0.0252  3.4097
 2181TIP3    H228035  -0.053   1.536 110.237 -0.9532 -1.9582  2.4024
 2182TIP3   OH228036   0.055   0.111  18.095  0.1330  0.2489 -0.0836
 2182TIP3    H128037   0.004   0.151  18.025  1.6626  0.7951 -0.9394
 2182TIP3    H228038   0.142   0.100  18.057  0.7334 -0.3772  1.4157
 2183TIP3   OH228039   2.612   1.577  46.781  0.4853  0.8872  0.0504
 2183TIP3    H128040   2.681   1.615  46.836  0.2841  0.0990  0.8807
 2183TIP3    H228041   2.554   1.533  46.843 -0.5646  1.2183 -0.6772
 2184TIP3   OH228042   0.485   0.577  87.951 -0.0819  0.0929  0.4176
 2184TIP3    H128043   0.500   0.485  87.972 -0.3271 -0.0125  0.1461
 2184TIP3    H228044   0.527   0.625  88.021  0.6867 -0.2115  0.1771
 2185TIP3   OH228045   2.364   2.459  18.524 -0.0098 -0.0187 -0.2314
 2185TIP3    H128046   2.328   2.469  18.612  0.2234  2.1377 -0.3247
 2185TIP3    H228047   2.458   2.449  18.537  0.1070  0.9477 -0.2212
 2186TIP3   OH228048   1.913   0.097  40.878 -0.0755  0.4950  0.2912
 2186TIP3    H128049   1.850   0.082  40.948 -2.4534 -0.7513 -1.9414
 2186TIP3    H228050   1.882   0.177  40.834  1.0590  0.9583  0.2832
 2187TIP3   OH228051   1.208   1.082  84.348 -0.2573 -0.3200 -0.4145
 2187TIP3    H128052   1.233   1.117  84.262 -0.6130 -1.6452 -1.0859
 2187TIP3    H228053   1.118   1.051  84.336  0.2680 -2.0576 -0.0711
 2188TIP3   OH228054   2.307   1.517  99.674 -0.4294 -0.0914 -0.4653
 2188TIP3    H128055   2.219   1.480  99.679 -1.2053  1.7242  0.4931
 2188TIP3    H228056   2.327   1.542  99.764  1.2910 -0.8815 -0.5849
 2189TIP3   OH228057   2.041   1.656  88.882  0.0838  0.5061  0.3176
 2189TIP3    H128058   2.023   1.607  88.962 -1.8549 -1.3536 -1.1352
 2189TIP3    H228059   2.118   1.614  88.844  0.0693  0.3683  0.4432
 2190TIP3   OH228060   1.894   0.372   6.640  0.1122  0.2756  0.2353
 2190TIP3    H128061   1.936   0.289   6.620  0.3248  0.0105  1.6949
 2190TIP3    H228062   1.854   0.359   6.725 -1.4749  1.0842 -0.3420
 2191TIP3   OH228063   2.290   2.504  33.187 -0.0883  0.5212 -0.1443
 2191TIP3    H128064   2.209   2.554  33.196 -1.9102 -2.4228  1.5030
 2191TIP3    H228065   2.303   2.496  33.093 -2.6169 -0.1631 -0.5180
 2192TIP3   OH228066   2.107   1.535 109.230 -0.9733  0.2576  0.5395
 2192TIP3    H128067   2.190   1.496 109.203 -0.3880  1.6233  0.2254
 2192TIP3    H228068   2.085   1.595 109.158 -2.3862 -0.2898  0.4861
 2193TIP3   OH228069   2.602   1.140  12.695 -0.0875 -0.4464 -0.4365
 2193TIP3    H128070   2.676   1.124  12.637  0.2836 -1.5870  0.3160
 2193TIP3    H228071   2.554   1.211  12.653  0.8231 -0.4313 -1.5084
 2194TIP3   OH228072   0.125   1.284  26.978  0.1738  0.4981  0.0427
 2194TIP3    H128073   0.074   1.223  26.925  0.3007  0.4740 -0.0520
 2194TIP3    H228074   0.070   1.361  26.985  0.3359  0.6689 -0.4936
 2195TIP3   OH228075   0.946   1.987  98.139  0.0055 -0.0393  0.3929
 2195TIP3    H128076   0.886   1.913  98.146  0.4667 -0.5409 -0.6443
 2195TIP3    H228077   0.928   2.041  98.216  0.6508 -1.9639  1.9986
 2196TIP3   OH228078   1.410   0.204  88.455 -0.0782 -0.3260 -0.2450
 2196TIP3    H128079   1.362   0.122  88.444 -0.2977 -0.7443  2.7986
 2196TIP3    H228080   1.399   0.249  88.372 -1.8690 -2.4024 -1.2638
 2197TIP3   OH228081   0.773   1.290  99.756 -0.0893 -0.0875 -0.2515
 2197TIP3    H128082   0.702   1.232  99.782  0.0129 -0.6329 -1.1440
 2197TIP3    H228083   0.831   1.292  99.833  0.3364 -1.8452 -0.4773
 2198TIP3   OH228084   0.511   0.717  86.005 -0.1344 -0.4390  0.2953
 2198TIP3    H128085   0.553   0.783  85.949 -1.6847  1.0035  0.7228
 2198TIP3    H228086   0.576   0.699  86.073  0.7459 -0.1942 -0.4488
 2199TIP3   OH228087   2.626   1.574  24.281 -0.7823 -0.3065 -0.0118
 2199TIP3    H128088   2.557   1.620  24.328 -0.5366  0.0938 -0.0355
 2199TIP3    H228089   2.681   1.644  24.245 -0.1734 -0.6198  0.2982
 2200TIP3   OH228090   1.059   1.254   2.946  0.2164 -0.2284 -0.2751
 2200TIP3    H128091   1.124   1.189   2.920  0.0683 -1.0386  1.3048
 2200TIP3    H228092   1.110   1.334   2.962  0.9730 -1.0297  1.6138
 2201TIP3   OH228093   1.137   1.956 108.844  0.2312  0.5678  0.0817
 2201TIP3    H128094   1.079   1.991 108.777 -1.9444 -1.2136  0.8974
 2201TIP3    H228095   1.083   1.951 108.923  2.0248  0.4402  1.3735
 2202TIP3   OH228096   0.086   2.153  75.855 -0.3064  0.5651 -0.9312
 2202TIP3    H128097   0.131   2.145  75.939  0.8210  0.8995 -1.4726
 2202TIP3    H228098   0.129   2.227  75.812 -2.4459  1.9307 -0.8631
 2203TIP3   OH228099   1.502   2.622 105.258  0.2880 -0.1084 -0.2005
 2203TIP3    H128100   1.465   2.697 105.210 -0.3093  0.3549  0.9584
 2203TIP3    H228101   1.596   2.641 105.262  0.2074  0.3465 -0.3270
 2204TIP3   OH228102   2.633   0.121  68.217 -0.3496 -0.5837 -0.4445
 2204TIP3    H128103   2.611   0.175  68.142 -0.3937 -1.7665 -1.2964
 2204TIP3    H228104   2.549   0.106  68.261 -0.1223  1.5186  0.8724
 2205TIP3   OH228105   2.057   0.825 108.265 -0.0760  0.0275 -0.0501
 2205TIP3    H128106   1.990   0.809 108.332 -0.0540 -0.9841 -0.2442
 2205TIP3    H228107   2.051   0.918 108.247 -0.8067  0.1222  0.6037
 2206TIP3   OH228108   1.387   1.908  17.037  0.2573  0.4307  0.1242
 2206TIP3    H128109   1.368   1.870  17.123 -0.9569  0.0368 -0.3069
 2206TIP3    H228110   1.354   1.844  16.974  0.0784  1.2431 -0.6253
 2207TIP3   OH228111   0.100   2.646  92.266  0.3674  0.2050  0.2651
 2207TIP3    H128112   0.074   2.574  92.209 -1.7144 -1.2770  2.8694
 2207TIP3    H228113   0.195   2.641  92.269  0.4122 -0.8321 -1.5319
 2208TIP3   OH228114   2.244   0.775  32.384  0.2429 -0.1468 -0.0754
 2208TIP3    H128115   2.187   0.707  32.348 -0.2073 -0.6349  1.5115
 2208TIP3    H228116   2.333   0.742  32.368  0.0575 -0.3252 -0.7673
 2209TIP3   OH228117   2.229   2.520  24.406  0.2746 -0.3633  0.5556
 2209TIP3    H128118   2.274   2.549  24.485 -1.2107  0.5863  1.0995
 2209TIP3    H228119   2.139   2.549  24.418  0.1178  0.3461 -1.7346
 2210TIP3   OH228120   1.591   1.067  36.093 -0.0288 -0.5982  0.3316
 2210TIP3    H128121   1.536   1.125  36.040  1.4865 -1.5652 -2.5152
 2210TIP3    H228122   1.627   1.124  36.160  0.1964  1.4478 -1.4159
 2211TIP3   OH228123   0.729   1.494  37.288 -0.4028  0.2252  0.5551
 2211TIP3    H128124   0.784   1.477  37.365 -0.1405 -2.3351 -0.1185
 2211TIP3    H228125   0.790   1.524  37.221  0.1799 -2.0545 -0.0139
 2212TIP3   OH228126   1.328   0.632  99.291 -0.7204 -0.4920  0.4621
 2212TIP3    H128127   1.348   0.715  99.334 -2.4644  0.1129  0.1882
 2212TIP3    H228128   1.404   0.614  99.236  0.0773  0.4375  1.2193
 2213TIP3   OH228129   1.362   1.976  47.413  0.2011 -0.1058 -0.1789
 2213TIP3    H128130   1.272   1.996  47.439  0.3667 -0.7390  0.9373
 2213TIP3    H228131   1.353   1.912  47.343 -0.2282 -1.8687  1.4036
 2214TIP3   OH228132   1.009   0.003  81.844  0.1010  0.0997  0.0885
 2214TIP3    H128133   0.927   0.046  81.865  0.0701 -0.5713  1.4189
 2214TIP3    H228134   0.983  -0.076  81.797  0.1164  0.9979 -1.5029
 2215TIP3   OH228135   0.529   0.501 111.575 -0.3805  0.0338  0.3057
 2215TIP3    H128136   0.566   0.414 111.560  0.8975  0.5103  0.6020
 2215TIP3    H228137   0.449   0.502 111.522 -0.0484 -1.0789 -0.2459
 2216TIP3   OH228138   2.040   2.338  27.070 -0.4391 -0.0682  0.4616
 2216TIP3    H128139   1.950   2.369  27.060 -0.9916 -1.8876 -0.7734
 2216TIP3    H228140   2.087   2.374  26.995 -0.7119 -0.8998 -0.1283
 2217TIP3   OH228141   2.087   2.495   9.754  0.3093  0.1319  0.0150
 2217TIP3    H128142   2.120   2.564   9.813  0.6594  1.5438 -1.7381
 2217TIP3    H228143   2.074   2.419   9.811  2.1043  0.9523  1.6396
 2218TIP3   OH228144   0.149   1.975  92.734 -0.0541 -0.4096 -0.6303
 2218TIP3    H128145   0.055   1.992  92.728 -0.0548  0.2004  0.6889
 2218TIP3    H228146   0.163   1.954  92.826  1.3420  1.1260 -0.4559
 2219TIP3   OH228147   1.586   2.604 101.129 -0.0490 -1.0159  0.4653
 2219TIP3    H128148   1.596   2.676 101.192 -0.8654  0.6186 -1.1630
 2219TIP3    H228149   1.492   2.590 101.123 -0.0846 -0.3305 -1.1901
 2220TIP3   OH228150   2.277   1.409 105.017  0.8004  0.2186  0.0660
 2220TIP3    H128151   2.276   1.315 104.996  0.5962  0.2877 -0.2439
 2220TIP3    H228152   2.195   1.442 104.979  0.6171  0.4199  0.6409
 2221TIP3   OH228153   1.602   0.143  35.537  0.3693  0.2536  0.4998
 2221TIP3    H128154   1.626   0.138  35.445 -2.8241 -0.1456 -0.4083
 2221TIP3    H228155   1.577   0.053  35.561  0.3193  0.5171  1.5134
 2222TIP3   OH228156   0.997   2.320  10.021  0.1963  0.0036  0.1412
 2222TIP3    H128157   0.950   2.280  10.094 -0.8573 -0.9029 -0.9787
 2222TIP3    H228158   0.990   2.414  10.036 -0.5302 -0.1542  0.8877
 2223TIP3   OH228159   1.376   0.260  24.252 -0.6279  0.3896  0.4340
 2223TIP3    H128160   1.441   0.193  24.274 -0.6294  1.2690  3.5194
 2223TIP3    H228161   1.418   0.313  24.185  1.1127 -0.1618  1.0434
 2224TIP3   OH228162   0.382   0.742  79.021  0.5517  0.3622  0.6263
 2224TIP3    H128163   0.392   0.791  79.103  0.2495 -0.2929  1.0701
 2224TIP3    H228164   0.417   0.655  79.041 -2.5789 -0.9213  1.1784
 2225TIP3   OH228165   1.826   1.744  18.181  0.0833  0.0609 -0.6069
 2225TIP3    H128166   1.802   1.683  18.111 -1.0159  1.3332 -1.3734
 2225TIP3    H228167   1.763   1.726  18.251  1.4929 -1.5603  0.3258
 2226TIP3   OH228168   2.668   0.303  69.174  0.2976  0.0255  0.3055
 2226TIP3    H128169   2.710   0.220  69.153  1.6066 -0.0415  2.8285
 2226TIP3    H228170   2.719   0.368  69.127  0.6974 -0.4105  0.1236
 2227TIP3   OH228171   0.783   2.182  81.877  0.1047 -0.6549 -0.2158
 2227TIP3    H128172   0.850   2.172  81.944  1.3810  1.7147 -0.9792
 2227TIP3    H228173   0.729   2.255  81.908 -0.9399 -1.2788 -0.5317
 2228TIP3   OH228174   2.283   0.589  35.275  0.3219  0.0999  0.3110
 2228TIP3    H128175   2.291   0.504  35.232  0.8065  0.2852  0.0304
 2228TIP3    H228176   2.347   0.585  35.347  0.8838  0.5040 -0.1617
 2229TIP3   OH228177   1.003   1.668 100.927  0.0729  0.4081 -0.1444
 2229TIP3    H128178   1.064   1.594 100.932  1.5931  1.6479  0.5080
 2229TIP3    H228179   1.028   1.725 101.000 -1.8425  1.0079  0.0945
 2230TIP3   OH228180   1.281   2.190  13.591 -0.4764  0.6609  0.0230
 2230TIP3    H128181   1.320   2.273  13.564 -0.8848  0.8827  0.1043
 2230TIP3    H228182   1.289   2.189  13.687 -0.1710  0.4548 -0.0051
 2231TIP3   OH228183   0.327   1.255  89.007 -0.1293 -0.3215  0.3852
 2231TIP3    H128184   0.414   1.286  89.033  0.3368  0.5521 -1.9353
 2231TIP3    H228185   0.286   1.331  88.966 -0.9481 -1.4266 -0.9196
 2232TIP3   OH228186   2.141   1.037  12.048  0.2845 -0.2995 -0.1017
 2232TIP3    H128187   2.121   0.963  12.105 -0.2070 -0.9966 -1.1461
 2232TIP3    H228188   2.102   1.014  11.964  0.1169  1.1566 -0.4519
 2233TIP3   OH228189   0.881   1.815  83.334  0.4453 -0.1000 -0.0562
 2233TIP3    H128190   0.963   1.859  83.311 -0.7531  0.5413 -3.7303
 2233TIP3    H228191   0.864   1.756  83.261 -0.5540 -3.1552  2.3820
 2234TIP3   OH228192   0.613   0.655  30.251 -0.0491  0.0003  0.4217
 2234TIP3    H128193   0.590   0.592  30.183  0.4183 -0.6784  0.8724
 2234TIP3    H228194   0.706   0.674  30.237 -0.2899  0.9184  0.0346
 2235TIP3   OH228195   0.877   0.277  87.746 -0.5171 -0.2022  0.4488
 2235TIP3    H128196   0.841   0.266  87.834 -0.6383 -2.2289  0.1868
 2235TIP3    H228197   0.802   0.263  87.688 -0.3423  0.6792 -0.0125
 2236TIP3   OH228198   0.771   0.463 103.175 -0.7452  0.0381 -0.4136
 2236TIP3    H128199   0.693   0.408 103.186 -0.7016  0.3067  1.6437
 2236TIP3    H228200   0.843   0.410 103.207 -0.4204  0.5964 -0.2043
 2237TIP3   OH228201   1.651   1.626  16.018  0.0214  0.1629 -0.2005
 2237TIP3    H128202   1.687   1.565  15.954 -1.0850 -0.0231 -0.6593
 2237TIP3    H228203   1.653   1.579  16.101 -0.9896 -0.5857 -0.5830
 2238TIP3   OH228204   0.782   0.342  52.219 -0.2590 -0.3724  0.2449
 2238TIP3    H128205   0.711   0.407  52.216 -1.4462 -1.6022  0.6479
 2238TIP3    H228206   0.854   0.387  52.263 -0.2613  1.3768 -1.4545
 2239TIP3   OH228207   0.958   0.321  25.235  0.0064  0.1627  0.3843
 2239TIP3    H128208   0.889   0.274  25.188  0.2317  0.6813 -0.4846
 2239TIP3    H228209   0.931   0.413  25.231  2.2494  0.8418 -2.7494
 2240TIP3   OH228210   1.718   0.159  16.673 -0.4038  0.1487  0.2970
 2240TIP3    H128211   1.768   0.109  16.737 -1.5384 -0.4699  0.7310
 2240TIP3    H228212   1.763   0.143  16.590 -0.0193 -0.5902  0.6376
 2241TIP3   OH228213   1.874   0.153  30.284  0.1460  0.1483 -0.3650
 2241TIP3    H128214   1.778   0.151  30.285  0.1554 -0.2410 -0.1082
 2241TIP3    H228215   1.900   0.067  30.318  0.5866  0.0748 -0.8789
 2242TIP3   OH228216   1.958   0.457  82.625  0.5695  0.7444 -0.4288
 2242TIP3    H128217   1.936   0.447  82.718 -2.4327 -0.2781 -1.1639
 2242TIP3    H228218   2.028   0.394  82.610  0.2070  0.0097  0.8593
 2243TIP3   OH228219   2.409   0.759   6.910 -0.2897 -0.6621 -0.8287
 2243TIP3    H128220   2.359   0.713   6.977 -0.4227 -1.0119 -1.1673
 2243TIP3    H228221   2.366   0.736   6.828 -0.2430 -0.0866 -1.0212
 2244TIP3   OH228222   1.265   2.037  82.262 -0.1491  0.7092  0.6330
 2244TIP3    H128223   1.361   2.035  82.256 -0.0520  1.4075  1.6899
 2244TIP3    H228224   1.235   1.993  82.182  1.0480  1.0526 -0.0291
 2245TIP3   OH228225   2.577   1.554 107.980 -0.0773 -0.3125  0.2455
 2245TIP3    H128226   2.649   1.610 108.009  0.6270 -1.1437  0.1387
 2245TIP3    H228227   2.581   1.556 107.885 -0.7990  0.3849  0.2132
 2246TIP3   OH228228   1.042   0.419  86.633 -0.0943 -0.0293  0.2228
 2246TIP3    H128229   1.082   0.426  86.546 -0.7043  1.5584  0.0410
 2246TIP3    H228230   1.053   0.505  86.672 -2.3933  0.1904  0.5493
 2247TIP3   OH228231   1.729   1.350 110.196  0.1115  0.3030  0.2256
 2247TIP3    H128232   1.639   1.334 110.167 -0.1686  0.2963  1.0675
 2247TIP3    H228233   1.722   1.422 110.258  0.5798 -0.1798  0.8634
 2248TIP3   OH228234   2.181   0.128  15.415  0.0968  0.3512  0.1938
 2248TIP3    H128235   2.260   0.075  15.415 -1.0420 -1.4615 -1.8069
 2248TIP3    H228236   2.125   0.087  15.481  0.4502  1.1458  1.0227
 2249TIP3   OH228237   0.318   2.608  30.198  0.1041 -0.8871  0.6537
 2249TIP3    H128238   0.374   2.548  30.248  0.1423 -0.8397  0.6672
 2249TIP3    H228239   0.296   2.559  30.119  1.7195 -0.2120 -0.2678
 2250TIP3   OH228240   2.396   0.381  87.507 -0.1794  0.0598 -0.1283
 2250TIP3    H128241   2.383   0.432  87.586  1.6802 -0.0632  0.3019
 2250TIP3    H228242   2.420   0.446  87.440  0.2105 -0.0326 -0.0801
 2251TIP3   OH228243   1.813   0.949  84.161 -0.4296  0.0126 -0.1943
 2251TIP3    H128244   1.721   0.927  84.149 -0.5967  0.6878 -0.2370
 2251TIP3    H228245   1.854   0.930  84.077 -1.3009  3.3049 -1.5138
 2252TIP3   OH228246   0.091   2.172  83.376 -0.2868  0.4756  0.1605
 2252TIP3    H128247   0.065   2.152  83.286  2.5658 -2.5034 -0.1914
 2252TIP3    H228248   0.029   2.123  83.430  0.2427 -0.8281 -0.3725
 2253TIP3   OH228249   0.993   0.845  80.878 -0.0546  0.0086 -0.4553
 2253TIP3    H128250   0.946   0.889  80.949 -1.8060 -3.1822  0.5668
 2253TIP3    H228251   0.926   0.825  80.813  0.5239 -1.5196 -0.6281
 2254TIP3   OH228252   0.046   0.499 110.439 -0.0729 -0.0162  0.4524
 2254TIP3    H128253  -0.013   0.449 110.383 -1.4364  1.0397  0.8798
 2254TIP3    H228254   0.032   0.590 110.412  1.0506  0.3007  0.8759
 2255TIP3   OH228255   1.148   1.187  35.427  0.4721 -0.0471  0.4627
 2255TIP3    H128256   1.144   1.112  35.487  0.0129 -1.6219 -1.4187
 2255TIP3    H228257   1.057   1.212  35.415  0.4800 -0.2935 -0.1789
 2256TIP3   OH228258   1.780   2.006   7.508  0.1080  0.0644 -0.2225
 2256TIP3    H128259   1.825   1.967   7.582 -0.3104 -0.3567 -0.1833
 2256TIP3    H228260   1.811   2.096   7.505  1.7730 -0.4995 -0.8634
 2257TIP3   OH228261   0.669   1.587  74.297  0.0615  0.6696  0.7954
 2257TIP3    H128262   0.624   1.666  74.266 -0.8085 -0.1434 -0.0984
 2257TIP3    H228263   0.687   1.537  74.217  0.3789 -0.1459  1.3657
 2258TIP3   OH228264   0.757   2.096  21.914 -0.4326  0.8199 -0.3204
 2258TIP3    H128265   0.693   2.049  21.968 -0.0120 -0.3704 -0.8120
 2258TIP3    H228266   0.704   2.149  21.854 -0.9678 -0.0024 -0.5887
 2259TIP3   OH228267   2.105   0.650  26.069 -0.3278 -0.1590 -0.2103
 2259TIP3    H128268   2.136   0.637  26.159 -0.8049 -0.4110 -0.0769
 2259TIP3    H228269   2.120   0.566  26.026 -0.5455 -0.1887 -0.2276
 2260TIP3   OH228270   2.513   2.543  11.235 -0.3588  0.0885  0.0372
 2260TIP3    H128271   2.599   2.574  11.206 -1.0387  1.5839 -0.4916
 2260TIP3    H228272   2.531   2.461  11.279  1.2952  0.1472 -0.4500
 2261TIP3   OH228273   1.533   1.409  24.516  0.0039 -0.0127 -0.1298
 2261TIP3    H128274   1.503   1.480  24.460  0.6924  0.1527 -0.2972
 2261TIP3    H228275   1.600   1.365  24.465 -0.0753 -0.4844  0.1708
 2262TIP3   OH228276   2.303   0.480  20.685 -0.2852  0.2707 -0.1766
 2262TIP3    H128277   2.233   0.529  20.642 -0.5943 -1.2803 -1.5435
 2262TIP3    H228278   2.331   0.536  20.757 -0.9433  2.1891 -1.3570
 2263TIP3   OH228279   0.486   0.607   5.645  0.2227  0.1822 -0.0811
 2263TIP3    H128280   0.536   0.601   5.563  1.8930 -0.7311  0.9688
 2263TIP3    H228281   0.443   0.522   5.653  0.0665  0.2696  0.0163
 2264TIP3   OH228282   1.032   2.466  32.409 -0.2319  0.2384 -0.3918
 2264TIP3    H128283   1.053   2.393  32.351 -0.5945 -0.4665  0.3406
 2264TIP3    H228284   0.940   2.452  32.433  0.5216 -0.8768  2.2503
 2265TIP3   OH228285   0.964   2.286   9.614 -0.1960  0.6430 -0.1225
 2265TIP3    H128286   0.892   2.280   9.551 -0.3154  0.9658 -0.0170
 2265TIP3    H228287   1.026   2.219   9.585  0.3172  1.5909 -1.3168
 2266TIP3   OH228288   2.440   0.504  79.880  0.0180 -0.5028 -0.3489
 2266TIP3    H128289   2.502   0.442  79.917  2.8729  2.3313  0.0264
 2266TIP3    H228290   2.376   0.519  79.950 -0.0718 -2.0834 -0.0605
 2267TIP3   OH228291   1.722   0.712  81.442  0.4128 -0.4605 -0.5911
 2267TIP3    H128292   1.788   0.731  81.376 -0.2375 -1.0107 -1.4266
 2267TIP3    H228293   1.770   0.703  81.524  1.2653 -0.0494 -1.0377
 2268TIP3   OH228294   0.196   1.370  32.756 -0.2857  0.1234 -0.6801
 2268TIP3    H128295   0.272   1.427  32.742 -1.3884  1.4455 -1.5614
 2268TIP3    H228296   0.179   1.375  32.850  0.9238 -0.5040 -0.4037
 2269TIP3   OH228297   0.738   2.647  93.733 -0.1502 -0.5516  0.1266
 2269TIP3    H128298   0.691   2.578  93.780  1.3160  0.1110  2.7795
 2269TIP3    H228299   0.820   2.605  93.707  1.5151  0.4040  3.2376
 2270TIP3   OH228300   1.390   1.869  78.985  0.3739 -0.0399  0.1747
 2270TIP3    H128301   1.477   1.832  78.967 -0.1378 -0.8388 -0.7171
 2270TIP3    H228302   1.389   1.952  78.937  0.7571  0.1573  0.4958
 2271TIP3   OH228303   2.274   0.092  63.391 -0.2666 -0.6953 -0.1264
 2271TIP3    H128304   2.334   0.038  63.442  0.6651 -0.1736 -0.6450
 2271TIP3    H228305   2.326   0.121  63.316 -0.3948  1.7450  0.6307
 2272TIP3   OH228306   0.076   0.815  31.971 -0.1583 -0.4075 -0.1508
 2272TIP3    H128307   0.021   0.773  31.906 -0.2865  1.3273 -1.2299
 2272TIP3    H228308   0.165   0.807  31.937  0.1634 -2.0904  0.9663
 2273TIP3   OH228309   0.153   2.187  24.762 -0.5431 -0.2046 -0.0430
 2273TIP3    H128310   0.146   2.099  24.801 -0.0456 -0.0091  0.5004
 2273TIP3    H228311   0.094   2.241  24.815  0.1218  0.0582  0.4422
 2274TIP3   OH228312   2.040   1.240  97.461  0.2280  0.2390 -0.5053
 2274TIP3    H128313   2.033   1.278  97.548 -1.3751 -0.7916 -0.1419
 2274TIP3    H228314   2.131   1.211  97.454  0.6490  1.2983  0.3897
 2275TIP3   OH228315   1.574   1.848  89.991 -0.2327  0.0665 -0.5276
 2275TIP3    H128316   1.575   1.943  89.984  1.4760  0.1823  0.5780
 2275TIP3    H228317   1.613   1.817  89.909  0.6785  0.4219 -0.2440
 2276TIP3   OH228318   0.047   0.051   6.921 -0.3454 -0.0551  0.2393
 2276TIP3    H128319   0.048  -0.044   6.933 -1.9613 -0.1418 -0.1857
 2276TIP3    H228320   0.083   0.086   7.003  0.6776 -1.0296  0.2216
 2277TIP3   OH228321   1.257   2.483  26.704 -0.0816  0.5185 -0.5609
 2277TIP3    H128322   1.184   2.421  26.709 -1.1496  1.8683  1.8048
 2277TIP3    H228323   1.334   2.428  26.694 -1.1974 -1.0692 -0.7639
 2278TIP3   OH228324   1.174   0.506  63.177  1.0649  0.2140 -0.2204
 2278TIP3    H128325   1.139   0.437  63.233  0.9410  0.5095  0.0698
 2278TIP3    H228326   1.249   0.466  63.134  0.5227 -0.3532 -0.6613
 2279TIP3   OH228327   1.604   0.021 100.084  0.3004 -0.7570  0.2981
 2279TIP3    H128328   1.678   0.081 100.091  0.1617 -0.3267 -1.4457
 2279TIP3    H228329   1.529   0.074 100.111  0.3279 -0.4751 -0.1664
 2280TIP3   OH228330   2.598   0.463  32.121 -0.0052  0.2655  0.0721
 2280TIP3    H128331   2.609   0.496  32.032 -0.8923  2.3411  0.6707
 2280TIP3    H228332   2.678   0.488  32.167  0.2795 -0.4547 -0.0051
 2281TIP3   OH228333   1.723   2.159  19.984  0.1625 -0.3562  0.6493
 2281TIP3    H128334   1.635   2.197  19.978  0.0825 -0.5690  0.4631
 2281TIP3    H228335   1.711   2.067  19.959  1.0926  0.4552 -3.3783
 2282TIP3   OH228336   0.280   0.349 110.432  0.1513 -0.1208 -0.1455
 2282TIP3    H128337   0.358   0.401 110.451  0.3832  0.0045 -1.3849
 2282TIP3    H228338   0.208   0.412 110.433  0.3123  0.0803 -0.7512
 2283TIP3   OH228339   1.473   1.952  95.985  0.2223 -0.2286  0.2552
 2283TIP3    H128340   1.380   1.975  95.981 -0.1204 -1.5140  0.3877
 2283TIP3    H228341   1.500   1.944  95.893  0.7351  1.9957  0.1359
 2284TIP3   OH228342   0.231   2.376  68.512 -0.1277 -0.7035 -0.2188
 2284TIP3    H128343   0.153   2.430  68.501  1.1034  0.8969 -1.7182
 2284TIP3    H228344   0.216   2.328  68.593 -2.0739  0.5525  0.2366
 2285TIP3   OH228345   1.770   2.004  11.815  0.0184  0.0017  0.0548
 2285TIP3    H128346   1.843   1.986  11.875  0.2868  0.7904 -0.0177
 2285TIP3    H228347   1.751   2.097  11.828 -1.2596 -0.2834  0.3645
 2286TIP3   OH228348   0.677   1.337  93.286 -0.5168 -0.3809  0.0455
 2286TIP3    H128349   0.715   1.312  93.371  1.4581  0.5339 -0.5129
 2286TIP3    H228350   0.586   1.355  93.305  0.0454  0.5156  2.1391
 2287TIP3   OH228351   1.480   0.207  18.780  0.6174 -0.0106 -0.6141
 2287TIP3    H128352   1.423   0.139  18.745  1.4190 -1.2858  0.4558
 2287TIP3    H228353   1.499   0.264  18.706 -0.2776 -0.8129 -1.4773
 2288TIP3   OH228354   0.571   1.651  53.231  0.2965 -0.5718 -0.4911
 2288TIP3    H128355   0.660   1.635  53.199  0.7374  0.2301  0.2990
 2288TIP3    H228356   0.538   1.722  53.176  0.5969 -0.0492 -0.0127
 2289TIP3   OH228357   0.011   1.519  12.725  0.3855  0.4476 -0.3948
 2289TIP3    H128358   0.027   1.465  12.647 -1.9499 -1.2220  0.1491
 2289TIP3    H228359   0.054   1.602  12.707  3.3922 -1.2438 -1.6907
 2290TIP3   OH228360   0.047   1.448  88.671 -0.1585 -0.2307 -0.3843
 2290TIP3    H128361  -0.027   1.486  88.624 -1.1485 -2.6290 -0.9165
 2290TIP3    H228362   0.009   1.382  88.728  1.4261 -0.1967  0.8086
 2291TIP3   OH228363   2.251   1.962 108.965 -0.0060 -0.2929 -0.0491
 2291TIP3    H128364   2.315   1.921 109.023  0.6524 -1.2815 -1.4061
 2291TIP3    H228365   2.253   2.055 108.988  0.2745 -0.6508  1.4492
 2292TIP3   OH228366   0.891   0.241  82.774  0.1346 -0.1709  0.2453
 2292TIP3    H128367   0.911   0.296  82.850  1.4048 -0.1005 -0.1264
 2292TIP3    H228368   0.803   0.268  82.748  0.8820  2.0549 -0.1996
 2293TIP3   OH228369   2.480   2.151  11.689 -0.2545 -0.0094  0.1842
 2293TIP3    H128370   2.539   2.220  11.718 -1.1170  0.9309 -0.2427
 2293TIP3    H228371   2.537   2.076  11.672  0.6255  0.4154  1.2005
 2294TIP3   OH228372   0.410   1.117  26.822  0.1179  0.2303 -0.3555
 2294TIP3    H128373   0.407   1.045  26.884 -0.3627  1.1191  0.6977
 2294TIP3    H228374   0.394   1.077  26.737  1.3026 -1.0921  0.0048
 2295TIP3   OH228375   2.407   1.486   0.930  0.2252 -0.3604 -0.3028
 2295TIP3    H128376   2.409   1.582   0.925  1.8828 -0.2125  1.8155
 2295TIP3    H228377   2.498   1.460   0.935 -0.2262 -1.9178  0.7592
 2296TIP3   OH228378   0.799   0.103  80.370  0.1207 -0.2294 -0.3107
 2296TIP3    H128379   0.813   0.191  80.406 -0.2863 -1.0583  2.0538
 2296TIP3    H228380   0.707   0.084  80.388  0.3879 -1.4210 -0.1322
 2297TIP3   OH228381   1.840   0.990  14.901  0.0552  0.5492  0.1604
 2297TIP3    H128382   1.898   0.976  14.825 -0.4163 -0.4580 -0.0377
 2297TIP3    H228383   1.884   0.943  14.972  0.0956  0.8283  0.3222
 2298TIP3   OH228384   0.450   2.462   2.765 -0.5444  0.2166  0.0489
 2298TIP3    H128385   0.535   2.489   2.731  1.0061 -2.6730  1.2724
 2298TIP3    H228386   0.392   2.467   2.689  1.7110 -1.6126 -1.9847
 2299TIP3   OH228387   1.245   0.698   0.008 -0.0407 -0.3360 -0.0681
 2299TIP3    H128388   1.262   0.660  -0.078 -0.7920 -1.7016  0.3542
 2299TIP3    H228389   1.294   0.643   0.069  0.5946  0.7002  0.3932
 2300TIP3   OH228390   1.487   1.894  45.623  0.5322 -0.7261 -0.1600
 2300TIP3    H128391   1.500   1.823  45.561 -1.1646 -0.4500 -0.9113
 2300TIP3    H228392   1.503   1.974  45.572 -0.2633 -0.5135 -0.0903
 2301TIP3   OH228393   0.229   1.481  73.803  0.3650 -0.9897  0.6323
 2301TIP3    H128394   0.294   1.415  73.776  0.6101  0.1992 -1.9903
 2301TIP3    H228395   0.146   1.447  73.771  0.3956 -0.3736 -0.1313
 2302TIP3   OH228396   1.142   2.084  94.037 -0.7475  0.1528  0.0713
 2302TIP3    H128397   1.078   2.062  93.969  0.3449  1.1541 -1.3546
 2302TIP3    H228398   1.108   2.165  94.076 -1.1933 -0.2258  0.4760
 2303TIP3   OH228399   0.108   0.008 110.981 -0.1787  0.0306  0.4153
 2303TIP3    H128400   0.061   0.079 111.025 -0.4660 -0.2343  0.5467
 2303TIP3    H228401   0.106   0.030 110.888 -1.3127 -0.4020  0.3240
 2304TIP3   OH228402   1.276   1.587  27.505 -0.2592  0.2639 -0.4418
 2304TIP3    H128403   1.216   1.621  27.572 -0.7925 -2.1943  0.4425
 2304TIP3    H228404   1.330   1.523  27.551 -0.6255 -1.4939 -2.3115
 2305TIP3   OH228405   0.147   0.783  68.410  0.3724 -0.6128  0.0670
 2305TIP3    H128406   0.207   0.833  68.354 -0.4794 -1.1926 -1.4259
 2305TIP3    H228407   0.063   0.785  68.363 -0.4450 -0.9489  1.4459
 2306TIP3   OH228408   0.775   0.723  57.333  0.2860  0.7524  0.5761
 2306TIP3    H128409   0.769   0.787  57.262  0.9213  0.6952  0.4670
 2306TIP3    H228410   0.805   0.643  57.290  0.1396  0.5671  0.8226
 2307TIP3   OH228411   0.750   2.337  16.881  0.0266  0.1044  0.0311
 2307TIP3    H128412   0.660   2.306  16.888  0.0698 -0.2011 -0.6501
 2307TIP3    H228413   0.798   2.290  16.950 -0.1821 -0.3352 -0.1179
 2308TIP3   OH228414   1.508   0.305   6.748  0.0948 -0.2649  0.0829
 2308TIP3    H128415   1.496   0.218   6.709 -0.2958 -0.1551 -0.0461
 2308TIP3    H228416   1.596   0.302   6.787 -0.5034 -1.2405  1.4234
 2309TIP3   OH228417   1.932   2.035  23.346 -0.5614  0.1837  0.3460
 2309TIP3    H128418   1.902   2.122  23.372 -0.6055  0.0899  0.6154
 2309TIP3    H228419   1.926   1.983  23.427 -0.3625 -0.0212  0.2284
 2310TIP3   OH228420   0.945   2.632  35.600 -0.3402  0.0257 -0.2481
 2310TIP3    H128421   0.856   2.623  35.564  0.2585 -0.8550 -1.5738
 2310TIP3    H228422   0.979   2.543  35.602  0.6137  0.3830  0.0114
 2311TIP3   OH228423   1.786   1.220 103.109  0.2789  0.3945 -0.0334
 2311TIP3    H128424   1.803   1.255 103.196 -1.0941  0.1101  0.3847
 2311TIP3    H228425   1.726   1.282 103.069  1.0902  0.6515 -0.8927
 2312TIP3   OH228426   1.532   0.212  58.638 -0.6544  0.5170  0.2807
 2312TIP3    H128427   1.599   0.221  58.705 -1.0535 -0.7455  0.8737
 2312TIP3    H228428   1.578   0.176  58.562 -0.5994 -0.0325  0.5768
 2313TIP3   OH228429   1.771   0.827  34.659 -0.7474 -0.1757 -0.3537
 2313TIP3    H128430   1.777   0.739  34.623  2.3572 -0.0577 -0.4414
 2313TIP3    H228431   1.784   0.816  34.754 -0.4681  0.1709 -0.3480
 2314TIP3   OH228432   0.421   0.184   4.685  0.2361 -0.1542 -0.4270
 2314TIP3    H128433   0.510   0.187   4.722  0.3526 -0.9800 -0.6053
 2314TIP3    H228434   0.434   0.181   4.590  0.0252 -0.3646 -0.4511
 2315TIP3   OH228435   2.580   1.679  87.050  0.1301  0.2755 -0.4607
 2315TIP3    H128436   2.572   1.774  87.054  0.1905  0.2493  2.3388
 2315TIP3    H228437   2.603   1.660  86.959 -1.8397  2.7355 -1.5727
 2316TIP3   OH228438   2.318   1.402   6.049 -0.1559 -0.3332 -0.2745
 2316TIP3    H128439   2.305   1.376   5.958 -0.5810  0.6411 -0.5105
 2316TIP3    H228440   2.339   1.496   6.044 -0.9255 -0.0977  0.6720
 2317TIP3   OH228441   1.295   0.588  35.735  0.5901  0.2005  0.0024
 2317TIP3    H128442   1.359   0.589  35.806 -1.6384 -0.5189  2.1789
 2317TIP3    H228443   1.244   0.508  35.750 -1.2143  1.0627 -1.2184
 2318TIP3   OH228444   1.738   1.929  21.336  0.1036 -0.6261 -0.3009
 2318TIP3    H128445   1.800   1.862  21.306  1.0122  0.1739 -0.2347
 2318TIP3    H228446   1.687   1.884  21.404  2.3060 -0.6033  1.4914
 2319TIP3   OH228447   0.715   0.067  81.926 -0.0277 -0.5331  0.4627
 2319TIP3    H128448   0.713   0.062  81.830 -0.2396 -1.5664  0.5107
 2319TIP3    H228449   0.680   0.153  81.946  2.6240  0.8916 -0.4858
 2320TIP3   OH228450   0.261   0.283 100.354 -0.1032 -0.0953  0.1486
 2320TIP3    H128451   0.212   0.200 100.355 -1.5497  0.7140  0.2007
 2320TIP3    H228452   0.194   0.349 100.335  0.9454  1.1111  0.5419
 2321TIP3   OH228453   1.499   0.051  84.321 -0.3360 -0.3554  0.0856
 2321TIP3    H128454   1.418   0.061  84.271 -0.5073 -2.0756 -0.0629
 2321TIP3    H228455   1.475  -0.010  84.392  0.8718 -1.0948 -0.1160
 2322TIP3   OH228456   2.153   1.902  81.592 -0.2980  0.0029 -0.7590
 2322TIP3    H128457   2.170   1.862  81.507  1.3194 -2.2521  0.5185
 2322TIP3    H228458   2.239   1.905  81.635 -1.0876  0.9545  0.8642
 2323TIP3   OH228459   2.199   0.758   1.618 -0.1501  0.1944 -0.1319
 2323TIP3    H128460   2.279   0.771   1.669 -0.7254  2.0537  0.3591
 2323TIP3    H228461   2.222   0.789   1.530  0.0433 -0.5018 -0.3328
 2324TIP3   OH228462   1.230   0.721  16.459  0.3732  0.0243  0.4502
 2324TIP3    H128463   1.169   0.659  16.500 -0.2395  0.9343  0.9443
 2324TIP3    H228464   1.176   0.773  16.401  0.7562  0.5534  0.5614
 2325TIP3   OH228465   0.738   2.073  85.165 -0.2510  0.0261 -0.1573
 2325TIP3    H128466   0.662   2.092  85.221  0.0644  0.0218  0.2699
 2325TIP3    H228467   0.772   2.159  85.141 -0.0956  0.0212  0.0476
 2326TIP3   OH228468   2.358   1.841  32.385 -0.2591 -0.1630  0.5665
 2326TIP3    H128469   2.389   1.888  32.462  0.4716 -1.7290  1.2671
 2326TIP3    H228470   2.438   1.820  32.336 -0.6229 -0.1989 -0.0241
 2327TIP3   OH228471   1.739   1.139  86.198  0.0100 -0.3192 -0.0007
 2327TIP3    H128472   1.721   1.136  86.292  1.3605  2.5821  0.4383
 2327TIP3    H228473   1.655   1.117  86.157 -0.6250 -1.5951  1.8231
 2328TIP3   OH228474   0.861   1.651 102.666  0.6513 -0.0099  0.4731
 2328TIP3    H128475   0.782   1.699 102.642  0.5636  0.7077  2.0270
 2328TIP3    H228476   0.897   1.701 102.740  2.0957 -0.7991  0.3396
 2329TIP3   OH228477   0.279   2.582  80.239  0.0799  0.4697  0.0454
 2329TIP3    H128478   0.307   2.554  80.152  0.5059  2.0732 -0.3731
 2329TIP3    H228479   0.343   2.649  80.264 -1.6477  2.1290  0.3250
 2330TIP3   OH228480   0.247   1.911   4.260  0.0399  0.0156 -0.3386
 2330TIP3    H128481   0.209   1.883   4.178 -0.2921 -0.3796 -0.0541
 2330TIP3    H228482   0.174   1.914   4.322  0.1735  0.9080 -0.2024
 2331TIP3   OH228483   2.161   0.655  89.031  0.1326 -0.1462 -0.2198
 2331TIP3    H128484   2.209   0.573  89.032  0.5236  0.0656  1.9752
 2331TIP3    H228485   2.070   0.630  89.050  0.1772 -0.1017  0.0487
 2332TIP3   OH228486   1.771   1.326  85.399 -0.4094 -0.4278 -0.8006
 2332TIP3    H128487   1.764   1.261  85.329 -1.3075  0.8125 -1.9338
 2332TIP3    H228488   1.699   1.387  85.381 -2.1408 -1.2732  2.5550
 2333TIP3   OH228489   0.907   0.062  78.136  0.0493  0.0704 -0.3916
 2333TIP3    H128490   0.863   0.049  78.052  0.7034 -0.3744 -0.6757
 2333TIP3    H228491   0.985   0.113  78.115 -0.0636  0.4216  0.0300
 2334TIP3   OH228492   2.680   2.120  85.257 -0.5847 -0.6666 -0.0063
 2334TIP3    H128493   2.740   2.049  85.236  1.7452  0.5823  1.8883
 2334TIP3    H228494   2.594   2.087  85.233  0.5641 -3.5176 -0.5848
 2335TIP3   OH228495   2.589   0.187 102.046 -0.1999  0.0415  0.0562
 2335TIP3    H128496   2.599   0.197 101.952  1.1678  0.5648  0.2299
 2335TIP3    H228497   2.569   0.275 102.078  2.6271  0.6110  0.5655
 2336TIP3   OH228498   2.468   2.431  10.829 -0.0784 -0.3696  0.1696
 2336TIP3    H128499   2.401   2.393  10.885 -0.3350 -0.0724  0.0654
 2336TIP3    H228500   2.454   2.526  10.836 -1.7431 -0.3464 -2.3904
 2337TIP3   OH228501   1.078   1.741  30.531 -0.1209 -0.2805  0.4381
 2337TIP3    H128502   1.036   1.791  30.460  0.2357  0.5014  0.7557
 2337TIP3    H228503   1.101   1.658  30.491  0.9211  0.4935 -0.6664
 2338TIP3   OH228504   0.078   0.387  81.036 -0.4222 -0.0301 -1.1050
 2338TIP3    H128505   0.054   0.304  81.078  1.3662 -0.8617 -1.6271
 2338TIP3    H228506   0.102   0.444  81.109 -2.9558  0.5599 -0.6303
 2339TIP3   OH228507   1.720   0.322  18.032  0.6791  0.1542 -0.1990
 2339TIP3    H128508   1.799   0.309  17.980  0.0785  0.9862 -1.3749
 2339TIP3    H228509   1.730   0.409  18.070 -0.0254  0.6209 -1.0451
 2340TIP3   OH228510   1.416   0.649  32.617 -0.5324 -0.3637 -0.1450
 2340TIP3    H128511   1.341   0.591  32.622 -0.2712 -0.8925 -1.7799
 2340TIP3    H228512   1.382   0.735  32.642 -1.5913 -0.6613 -0.5383
 2341TIP3   OH228513   0.073   1.006  94.602 -0.3207  0.5383 -0.1490
 2341TIP3    H128514   0.039   1.090  94.634  0.7342  0.6574  0.6990
 2341TIP3    H228515   0.045   0.942  94.666 -1.7117  0.0984 -1.1437
 2342TIP3   OH228516   0.906   1.020  78.802 -0.5715  0.4430  0.1602
 2342TIP3    H128517   0.915   1.115  78.811 -1.6936  0.6235 -0.4693
 2342TIP3    H228518   0.817   1.001  78.832 -0.8000 -0.2347 -0.8798
 2343TIP3   OH228519   1.331   2.156 112.134 -0.4534  0.3507 -0.1977
 2343TIP3    H128520   1.304   2.136 112.044  0.1064  0.5849 -0.4211
 2343TIP3    H228521   1.262   2.118 112.188 -0.2906 -0.6662 -0.6794
 2344TIP3   OH228522   1.805   1.100  22.423  0.4861 -0.1270  0.1224
 2344TIP3    H128523   1.881   1.106  22.364 -0.3701  0.7843 -0.9407
 2344TIP3    H228524   1.770   1.012  22.407 -0.5122  0.5594 -1.7844
 2345TIP3   OH228525   2.050   2.563  82.112 -0.1445  0.1623 -0.4098
 2345TIP3    H128526   2.060   2.633  82.049 -1.1427  1.2203  0.5647
 2345TIP3    H228527   2.120   2.577  82.176 -1.4537  1.4566  0.8146
 2346TIP3   OH228528   2.305   2.097  82.867 -0.1444  0.1191 -0.0207
 2346TIP3    H128529   2.346   2.011  82.875  0.7797  0.6563  1.5371
 2346TIP3    H228530   2.369   2.149  82.818  0.6444  0.6674  1.5063
 2347TIP3   OH228531   2.599   1.050  17.319 -0.2136  0.3494 -0.0535
 2347TIP3    H128532   2.627   1.002  17.241  0.9935 -0.4937  0.8367
 2347TIP3    H228533   2.648   1.132  17.316 -0.4060  0.4563 -0.3305
 2348TIP3   OH228534   1.587   1.094  38.055 -0.0982  0.0479 -0.2755
 2348TIP3    H128535   1.591   1.025  38.121  0.2724  0.2723 -0.0604
 2348TIP3    H228536   1.592   1.176  38.105  2.1764  0.2141 -0.6851
 2349TIP3   OH228537   1.652   2.574  33.794  0.1186 -0.1313  0.0575
 2349TIP3    H128538   1.561   2.575  33.823 -0.4198 -0.5238 -1.4933
 2349TIP3    H228539   1.698   2.521  33.859 -0.8458 -0.2964  0.6224
 2350TIP3   OH228540   1.484   2.579  36.635 -0.1007  0.2700 -0.4455
 2350TIP3    H128541   1.549   2.647  36.648  1.3137 -0.5532 -2.6783
 2350TIP3    H228542   1.502   2.544  36.547 -2.2600 -1.3834 -0.3292
 2351TIP3   OH228543   1.161   1.583  34.879  0.1436  0.3064  0.0009
 2351TIP3    H128544   1.139   1.670  34.845  0.3679 -0.0395 -1.0871
 2351TIP3    H228545   1.240   1.559  34.831  1.1468  0.2550  1.6179
 2352TIP3   OH228546   1.156   0.090  90.857 -0.2196  0.0047  0.1441
 2352TIP3    H128547   1.215   0.047  90.919 -1.0169  0.3318  1.1679
 2352TIP3    H228548   1.088   0.024  90.841  0.2633 -0.2731 -0.8184
 2353TIP3   OH228549   2.662   1.034  93.301  0.0808 -0.1052  0.1749
 2353TIP3    H128550   2.639   0.944  93.278  0.0754  0.2032 -1.0948
 2353TIP3    H228551   2.604   1.057  93.373 -0.0726 -1.0380  0.3577
 2354TIP3   OH228552   0.702   0.270  28.611  0.1779 -0.4438 -0.1991
 2354TIP3    H128553   0.757   0.320  28.551  0.1326 -0.8272 -0.5535
 2354TIP3    H228554   0.762   0.244  28.681 -0.0080  1.0195  0.5582
 2355TIP3   OH228555   2.357   2.539  41.529 -0.2939 -0.0610  0.3008
 2355TIP3    H128556   2.399   2.481  41.593 -0.4265  0.6674  1.0663
 2355TIP3    H228557   2.430   2.581  41.484 -0.1962  0.1312  0.6341
 2356TIP3   OH228558   1.137   0.812 106.716  0.5024 -0.1061 -0.2934
 2356TIP3    H128559   1.083   0.734 106.707  0.4703 -0.2429  0.8665
 2356TIP3    H228560   1.227   0.781 106.706  0.4563 -0.1784 -0.4875
 2357TIP3   OH228561   2.233   2.390  94.532 -0.0779  0.5842 -0.1192
 2357TIP3    H128562   2.235   2.361  94.624  1.4639  0.4548 -0.1722
 2357TIP3    H228563   2.188   2.319  94.486  2.0526 -0.9404  0.0437
 2358TIP3   OH228564   2.097   2.312 103.967  0.0853  0.4984  0.0199
 2358TIP3    H128565   2.123   2.222 103.947  2.3802  0.8475  1.0713
 2358TIP3    H228566   2.095   2.355 103.881  0.5021 -0.1877 -0.3490
 2359TIP3   OH228567   1.461   0.497   8.975  0.0476 -0.1891 -0.1537
 2359TIP3    H128568   1.401   0.422   8.980  0.2462 -0.3442 -0.0578
 2359TIP3    H228569   1.477   0.520   9.067  0.1031 -0.1220 -0.1806
 2360TIP3   OH228570   1.985   2.336  20.781  0.8476  0.3178 -0.1292
 2360TIP3    H128571   2.065   2.284  20.788 -0.0850 -1.0727  0.5214
 2360TIP3    H228572   1.969   2.368  20.871  1.2200  1.4759 -0.4532
 2361TIP3   OH228573   1.010   1.020  15.592 -0.1286 -0.1706 -0.2587
 2361TIP3    H128574   1.087   0.965  15.578  0.5752  0.4651  0.9343
 2361TIP3    H228575   0.970   0.985  15.673 -0.5040  0.1584 -0.2970
 2362TIP3   OH228576   0.803   1.284   4.004  0.1470  0.2594  0.2317
 2362TIP3    H128577   0.861   1.279   3.928 -1.0592  1.5109 -0.8327
 2362TIP3    H228578   0.787   1.378   4.015 -1.7479 -0.0372  0.3974
 2363TIP3   OH228579   0.010   1.008  23.406  0.8895 -0.0240 -0.1207
 2363TIP3    H128580   0.056   0.941  23.456  1.0044 -0.1120 -0.3414
 2363TIP3    H228581  -0.040   0.959  23.341 -1.1768 -0.0882  1.4112
 2364TIP3   OH228582   0.339   1.680   2.464 -0.1192 -0.2641 -0.2437
 2364TIP3    H128583   0.278   1.751   2.442 -1.2486 -0.6940  1.3256
 2364TIP3    H228584   0.383   1.711   2.544 -0.1189 -1.0303  0.0558
 2365TIP3   OH228585   0.494   1.305  91.035  0.0846 -0.2657  0.5123
 2365TIP3    H128586   0.485   1.269  91.123 -0.9649 -2.1710 -0.3245
 2365TIP3    H228587   0.579   1.273  91.005  0.1305 -0.2013  0.5777
 2366TIP3   OH228588   2.457   1.637  28.274  0.1914 -0.0576 -0.1719
 2366TIP3    H128589   2.402   1.559  28.260  0.0945 -0.5661  2.5294
 2366TIP3    H228590   2.505   1.618  28.355  2.5787  1.4012 -1.1452
 2367TIP3   OH228591   2.595   1.984   4.721 -0.1657 -0.2335  0.0686
 2367TIP3    H128592   2.651   1.909   4.706 -0.8550 -0.6224 -0.6935
 2367TIP3    H228593   2.572   2.015   4.633 -1.3777 -0.2813  0.3404
 2368TIP3   OH228594   0.135   2.265  12.952 -0.0726 -0.6739  0.4288
 2368TIP3    H128595   0.177   2.329  12.895 -0.6925  0.2073  0.9229
 2368TIP3    H228596   0.113   2.192  12.895  0.7238 -0.4746 -0.1339
 2369TIP3   OH228597   0.797   1.293 112.196 -0.3268  0.0707  0.1391
 2369TIP3    H128598   0.773   1.200 112.194  0.2273 -0.0839  0.7026
 2369TIP3    H228599   0.862   1.300 112.265  0.0289  0.7919 -0.2612
 2370TIP3   OH228600   2.668   0.582 109.097 -0.2098 -0.2641  0.5074
 2370TIP3    H128601   2.674   0.519 109.169 -0.9683 -0.7960  0.1099
 2370TIP3    H228602   2.626   0.534 109.026  0.7933  0.1782 -0.4016
 2371TIP3   OH228603   0.471   0.729   8.751 -0.3471  0.3843 -0.6610
 2371TIP3    H128604   0.515   0.729   8.666  0.6301  1.0857 -0.1722
 2371TIP3    H228605   0.472   0.821   8.778  2.0925 -0.1629  1.4682
 2372TIP3   OH228606   0.923   2.544  22.859  0.0376 -0.1855 -0.1514
 2372TIP3    H128607   0.838   2.537  22.816  0.9488 -1.4367 -1.8425
 2372TIP3    H228608   0.979   2.481  22.813  1.5195 -0.4219  1.8243
 2373TIP3   OH228609   2.682   2.618  63.811  0.6107 -0.4448  0.0339
 2373TIP3    H128610   2.608   2.558  63.822  0.1723  0.1059  0.1751
 2373TIP3    H228611   2.728   2.587  63.733 -1.3581  0.8054 -1.7339
 2374TIP3   OH228612   1.065   2.433  74.615  0.0006  0.1006  0.0381
 2374TIP3    H128613   1.064   2.476  74.701 -1.2061 -0.8495  0.5383
 2374TIP3    H228614   1.050   2.340  74.635  0.6854 -0.2836 -1.1375
 2375TIP3   OH228615   0.395   1.363  77.800  0.1514 -0.0489 -0.0078
 2375TIP3    H128616   0.349   1.305  77.861 -2.5427  0.9673 -0.9237
 2375TIP3    H228617   0.333   1.435  77.784  1.3048  0.4441 -2.8150
 2376TIP3   OH228618   0.173   0.016  83.453 -0.2495 -0.0655  0.1500
 2376TIP3    H128619   0.252  -0.037  83.450  0.9526  1.6638  0.1678
 2376TIP3    H228620   0.125  -0.017  83.530  1.9373  0.8198  2.0043
 2377TIP3   OH228621   1.172   2.537 108.474  0.1714 -0.1182  0.1638
 2377TIP3    H128622   1.234   2.485 108.524  0.2013 -0.4903 -0.2604
 2377TIP3    H228623   1.117   2.473 108.429 -0.3879  0.2069  0.3758
 2378TIP3   OH228624   1.646   1.973   5.307  0.1527  0.4391 -0.5908
 2378TIP3    H128625   1.606   2.047   5.353 -1.0190  0.6863 -1.9503
 2378TIP3    H228626   1.729   2.007   5.274  0.7653  0.4110  0.8202
 2379TIP3   OH228627   0.461   0.734  75.924 -0.5870 -0.2686 -0.1349
 2379TIP3    H128628   0.365   0.735  75.933 -0.5020 -0.6476  0.8872
 2379TIP3    H228629   0.494   0.735  76.014  0.3899  0.4592 -0.4818
 2380TIP3   OH228630   2.502   0.661   9.170 -0.0627  0.3760 -0.1492
 2380TIP3    H128631   2.593   0.690   9.166 -0.0026  0.0817 -1.9863
 2380TIP3    H228632   2.504   0.581   9.222  0.8157  0.1149 -0.5624
 2381TIP3   OH228633   2.335   1.056  87.579 -0.1744 -0.3542  0.1961
 2381TIP3    H128634   2.414   1.055  87.633 -0.7081 -0.5389  0.9905
 2381TIP3    H228635   2.331   0.969  87.539 -0.6665 -0.8143  1.2048
 2382TIP3   OH228636   1.433   1.931  94.342  0.5043 -0.4060 -0.1188
 2382TIP3    H128637   1.411   1.870  94.413 -0.7879  2.5610  2.2554
 2382TIP3    H228638   1.509   1.979  94.374  0.3994  0.4540 -1.1290
 2383TIP3   OH228639   2.491   0.650  32.433  0.3348 -0.0012 -0.0405
 2383TIP3    H128640   2.568   0.687  32.391  0.9332 -0.5785  0.5224
 2383TIP3    H228641   2.522   0.568  32.472 -0.9432 -1.1043 -1.2548
 2384TIP3   OH228642   0.396   1.941  33.070 -0.5604  0.1345 -0.7469
 2384TIP3    H128643   0.455   1.995  33.017 -1.1949  0.7634 -0.8293
 2384TIP3    H228644   0.310   1.954  33.031 -1.1549  1.1337  0.7967
 2385TIP3   OH228645   2.248   0.285  92.325 -0.1165 -0.2581  0.3186
 2385TIP3    H128646   2.252   0.211  92.264 -2.9826 -1.1972  1.1204
 2385TIP3    H228647   2.288   0.251  92.406  0.4842 -0.1925  0.0521
 2386TIP3   OH228648   1.449   0.662   6.300  0.4115  0.1357 -0.4060
 2386TIP3    H128649   1.476   0.751   6.276 -0.4997  0.7979  0.9111
 2386TIP3    H228650   1.527   0.624   6.340  0.3647  0.9220  0.4748
 2387TIP3   OH228651   0.277   0.002  13.774  0.0307 -0.1398  0.2486
 2387TIP3    H128652   0.245   0.041  13.692  0.9375  1.2703  0.5291
 2387TIP3    H228653   0.258   0.068  13.840 -0.5838 -1.2211  1.1788
 2388TIP3   OH228654   2.072   0.139 100.128 -0.2339  0.5152  0.0661
 2388TIP3    H128655   2.056   0.078 100.200  0.9634 -0.9829 -0.8736
 2388TIP3    H228656   2.119   0.212 100.168  0.1626 -0.1682  0.8767
 2389TIP3   OH228657   0.577   1.415  59.001  0.0457 -0.2823  0.5372
 2389TIP3    H128658   0.545   1.426  58.912 -0.8258 -2.4709  0.5348
 2389TIP3    H228659   0.499   1.422  59.056  0.4962  0.4909  1.1076
 2390TIP3   OH228660   0.790   1.995  53.285 -0.2394 -0.2861 -0.6597
 2390TIP3    H128661   0.828   1.908  53.292  1.4924  0.3274 -1.7192
 2390TIP3    H228662   0.797   2.032  53.373 -0.3905 -0.9682 -0.3583
 2391TIP3   OH228663   2.067   0.082 106.040 -0.0631 -0.5992  0.4857
 2391TIP3    H128664   2.068   0.065 106.134 -0.3774  0.2228  0.6482
 2391TIP3    H228665   2.124   0.015 106.002  2.5016  0.7775  1.5908
 2392TIP3   OH228666   0.141   1.742  82.091  0.3954 -0.0839  0.2444
 2392TIP3    H128667   0.171   1.707  82.007  1.8922  1.1188  0.2352
 2392TIP3    H228668   0.045   1.743  82.084  0.3200 -2.8557 -0.2352
 2393TIP3   OH228669   0.303   2.644  92.803  0.0513  0.3031 -0.0641
 2393TIP3    H128670   0.359   2.631  92.880  0.6648 -0.2221 -0.5888
 2393TIP3    H228671   0.312   2.737  92.782 -0.9121  0.6899  1.0837
 2394TIP3   OH228672   0.366   1.192  16.392  0.1471 -0.1733 -0.4501
 2394TIP3    H128673   0.273   1.168  16.399  0.0234 -0.0644 -1.4945
 2394TIP3    H228674   0.402   1.175  16.479 -0.8864 -0.0774  0.0172
 2395TIP3   OH228675   0.701   0.428  29.125  0.5733 -0.2484 -0.2565
 2395TIP3    H128676   0.759   0.368  29.078 -0.7510 -1.2289 -0.7356
 2395TIP3    H228677   0.667   0.486  29.058 -1.1020 -1.4684 -0.5462
 2396TIP3   OH228678   1.638   1.332  51.784 -0.1752  0.1968 -0.2580
 2396TIP3    H128679   1.623   1.255  51.839  0.4158  0.7299  0.6869
 2396TIP3    H228680   1.619   1.303  51.695  0.9041 -1.2847 -0.0249
 2397TIP3   OH228681   0.716   0.927  85.277  0.5105  0.3990 -0.3626
 2397TIP3    H128682   0.640   0.908  85.222 -1.8486  0.6858  2.5519
 2397TIP3    H228683   0.766   0.992  85.227 -2.2785  1.7822 -1.5521
 2398TIP3   OH228684   0.389   0.683  20.826  0.2030 -0.4949  0.1292
 2398TIP3    H128685   0.400   0.707  20.918 -0.8379 -1.0638  0.4125
 2398TIP3    H228686   0.476   0.656  20.798  0.6327  0.1508  0.8101
 2399TIP3   OH228687   0.750   1.856  13.406 -0.4520 -0.1752  0.2368
 2399TIP3    H128688   0.822   1.793  13.406 -0.7057 -0.4683  0.2008
 2399TIP3    H228689   0.777   1.923  13.344 -0.6365 -0.7868 -0.5213
 2400TIP3   OH228690   1.825   1.359  85.900  0.0128  0.2379 -0.0382
 2400TIP3    H128691   1.867   1.279  85.870  0.2372  0.0548  0.7391
 2400TIP3    H228692   1.848   1.425  85.835  0.1124 -0.2494 -0.5018
 2401TIP3   OH228693   0.677   1.265  32.018 -0.0536  0.8507 -0.2841
 2401TIP3    H128694   0.601   1.231  32.065  0.3824  1.8337  1.2158
 2401TIP3    H228695   0.674   1.360  32.034  1.5791  0.8808 -0.0223
 2402TIP3   OH228696   1.622   0.155  74.433  0.1760 -0.0976 -0.2969
 2402TIP3    H128697   1.697   0.095  74.439  3.0361  3.2226  1.0413
 2402TIP3    H228698   1.618   0.180  74.341  3.1811  2.2606  0.0687
 2403TIP3   OH228699   2.323   1.761   9.346 -0.0925  0.5505 -0.7606
 2403TIP3    H128700   2.265   1.806   9.408 -0.3715 -0.5944 -0.1776
 2403TIP3    H228701   2.264   1.704   9.296  0.6500 -1.4890  0.5987
 2404TIP3   OH228702   1.749   0.419  14.850  0.3156 -0.2402 -0.4414
 2404TIP3    H128703   1.664   0.376  14.856 -0.8710  1.9503 -0.4133
 2404TIP3    H228704   1.774   0.436  14.941 -0.0615  0.6376 -0.4950
 2405TIP3   OH228705   2.328   0.397  57.653 -0.0431 -0.3889  0.2239
 2405TIP3    H128706   2.296   0.308  57.667 -0.5740  0.0137  1.8466
 2405TIP3    H228707   2.259   0.453  57.688 -0.3377  0.7451 -2.0068
 2406TIP3   OH228708   2.273   2.480  24.965  0.0001 -0.1452  0.2432
 2406TIP3    H128709   2.184   2.512  24.982 -0.3573 -1.3259  0.7961
 2406TIP3    H228710   2.282   2.406  25.026  0.3724 -1.7382 -1.6508
 2407TIP3   OH228711   2.363   1.218  15.856 -0.1760 -0.1505 -0.6868
 2407TIP3    H128712   2.355   1.150  15.922 -2.8472  1.3774  0.7237
 2407TIP3    H228713   2.443   1.266  15.880 -0.6287 -0.1575  0.9715
 2408TIP3   OH228714   0.396   1.195 110.859  0.8079  0.0879 -0.8343
 2408TIP3    H128715   0.381   1.281 110.898  1.1773  0.0155 -0.5284
 2408TIP3    H228716   0.426   1.214 110.770  1.3912  0.2875 -0.5939
 2409TIP3   OH228717   0.334   0.944  84.706 -0.6606 -0.2569  0.1093
 2409TIP3    H128718   0.279   1.004  84.756 -1.0564  0.1872 -0.8265
 2409TIP3    H228719   0.333   0.979  84.617 -1.1937 -1.8473 -0.5555
 2410TIP3   OH228720   1.950   1.790  84.714  0.2603 -0.4188  0.2187
 2410TIP3    H128721   2.012   1.784  84.641 -0.1306 -0.0413 -0.1502
 2410TIP3    H228722   1.930   1.884  84.720 -2.6566 -0.7844 -1.6814
 2411TIP3   OH228723   1.241   1.476  87.808  0.5765 -0.6790 -0.1752
 2411TIP3    H128724   1.204   1.403  87.758  0.0608 -0.7532  0.2936
 2411TIP3    H228725   1.224   1.554  87.755  0.2345 -0.7815 -0.2171
 2412TIP3   OH228726   1.672   0.666  99.854  0.1658 -0.4931  0.1076
 2412TIP3    H128727   1.650   0.596  99.792  0.5983  1.3385 -2.2541
 2412TIP3    H228728   1.587   0.701  99.880 -0.0138 -0.9908  0.2065
 2413TIP3   OH228729   2.583   1.284  88.238  0.4370  0.0037  0.0531
 2413TIP3    H128730   2.657   1.327  88.281  0.4451 -0.3033  0.3495
 2413TIP3    H228731   2.507   1.311  88.290  0.4776 -0.5707  0.4151
 2414TIP3   OH228732   2.681   1.311   1.988  0.0532 -0.0433 -0.2880
 2414TIP3    H128733   2.674   1.313   1.893 -1.7395  1.1747 -0.1888
 2414TIP3    H228734   2.611   1.370   2.018  0.8024 -0.1285  1.7671
 2415TIP3   OH228735   0.834   2.631  52.602  0.0100 -0.0415  0.5989
 2415TIP3    H128736   0.915   2.634  52.551  0.1791 -1.7218  0.7045
 2415TIP3    H228737   0.854   2.570  52.673 -1.5194 -0.9709  0.2740
 2416TIP3   OH228738   1.601   2.656  85.916 -0.1643 -0.2153  0.6679
 2416TIP3    H128739   1.662   2.729  85.908  0.0420 -0.5175 -0.7880
 2416TIP3    H228740   1.599   2.637  86.009 -0.9187  2.2251  1.2457
 2417TIP3   OH228741   1.333   0.585 102.725 -0.4865  0.2045 -0.2761
 2417TIP3    H128742   1.242   0.588 102.754  0.1937 -0.4049  2.1789
 2417TIP3    H228743   1.343   0.497 102.689 -0.8560  0.2657 -0.5361
 2418TIP3   OH228744   1.490   2.401 103.880 -0.2410 -0.4198  0.0916
 2418TIP3    H128745   1.546   2.360 103.814 -1.6941 -3.0445  0.3914
 2418TIP3    H228746   1.545   2.471 103.916  2.4218 -2.0240 -0.5110
 2419TIP3   OH228747   0.760   2.215  87.058  0.4173  0.9466 -0.4051
 2419TIP3    H128748   0.739   2.246  87.146 -1.3865  0.0648 -0.4738
 2419TIP3    H228749   0.717   2.277  87.000 -0.4323  0.1928 -0.6031
 2420TIP3   OH228750   1.730   1.484  80.545  0.8949 -0.3530  0.0413
 2420TIP3    H128751   1.706   1.571  80.514 -1.2236 -1.6044 -2.3066
 2420TIP3    H228752   1.656   1.429  80.519  2.4354 -2.9748  0.8183
 2421TIP3   OH228753   0.134   2.516  67.552  0.3719 -0.2033 -0.9674
 2421TIP3    H128754   0.041   2.519  67.528  0.5732 -0.3307 -1.7991
 2421TIP3    H228755   0.145   2.432  67.595 -0.3094  0.6399  0.9612
 2422TIP3   OH228756   1.471   0.220   3.029 -0.6338 -0.4374 -0.4215
 2422TIP3    H128757   1.539   0.256   2.972 -1.2254 -0.9364 -1.4686
 2422TIP3    H228758   1.457   0.131   2.996 -1.6398 -0.4110 -0.0755
 2423TIP3   OH228759   0.797   1.188   8.492 -0.2578 -0.1129 -0.0206
 2423TIP3    H128760   0.723   1.159   8.440 -0.3101  1.0863 -0.6397
 2423TIP3    H228761   0.814   1.115   8.552 -0.9499 -1.0204 -0.9000
 2424TIP3   OH228762   2.411   0.353  42.426  0.1897  0.7661 -0.6192
 2424TIP3    H128763   2.337   0.346  42.486 -0.3294 -0.3703 -1.3792
 2424TIP3    H228764   2.373   0.350  42.339  1.1737 -0.7065 -1.0422
 2425TIP3   OH228765   2.584   1.354  79.513 -0.4954 -0.2715  0.5178
 2425TIP3    H128766   2.590   1.437  79.560 -0.3694 -1.2198  2.2494
 2425TIP3    H228767   2.490   1.335  79.509 -0.5034 -0.2118  0.4212
 2426TIP3   OH228768   0.451   2.180 105.718  0.2041  0.0250  0.0797
 2426TIP3    H128769   0.472   2.272 105.731 -0.5974  0.3302 -0.7086
 2426TIP3    H228770   0.393   2.158 105.791  1.7217 -0.3349  1.2307
 2427TIP3   OH228771   1.552   1.717  30.502 -0.1585 -0.0850  0.2760
 2427TIP3    H128772   1.492   1.715  30.427 -1.5720 -1.5820  1.3793
 2427TIP3    H228773   1.634   1.750  30.466 -1.8124  2.9963 -1.1204
 2428TIP3   OH228774   0.045   1.498   5.946  0.5895  0.2567  0.6944
 2428TIP3    H128775   0.075   1.437   5.879  1.2342  0.1709  1.0464
 2428TIP3    H228776  -0.013   1.559   5.900 -0.1833 -0.7041  0.3642
 2429TIP3   OH228777   2.658   2.677 107.908 -0.6299 -0.2424  0.3063
 2429TIP3    H128778   2.580   2.624 107.893 -1.3592  0.4860  1.3768
 2429TIP3    H228779   2.696   2.688 107.821 -1.2261 -1.3518 -0.1105
 2430TIP3   OH228780   1.906   0.842  23.594  0.1813  0.8851  0.2494
 2430TIP3    H128781   1.892   0.749  23.612  0.2004  0.9182  0.4466
 2430TIP3    H228782   1.825   0.885  23.624 -1.3265  0.5949 -2.9757
 2431TIP3   OH228783   2.176   2.504  75.095  0.4512 -0.0334 -0.5133
 2431TIP3    H128784   2.194   2.597  75.087 -2.5855  0.7215  0.2707
 2431TIP3    H228785   2.195   2.484  75.187 -1.4576  0.5352  0.0535
 2432TIP3   OH228786   2.093   0.975  86.437  0.1973 -0.0580 -0.4171
 2432TIP3    H128787   2.147   0.907  86.397  0.7004 -0.1815  0.4632
 2432TIP3    H228788   2.119   0.976  86.529  1.7543  2.7787 -0.7761
 2433TIP3   OH228789   0.073   1.314  83.676 -0.4197 -0.2981  0.2091
 2433TIP3    H128790   0.013   1.245  83.647 -0.1775 -0.0109 -1.0251
 2433TIP3    H228791   0.077   1.374  83.602  0.7724  0.1050  0.5851
 2434TIP3   OH228792   1.693   1.906 104.677 -0.1343  0.0975 -0.2006
 2434TIP3    H128793   1.732   1.847 104.742 -0.6230  0.8692  0.8244
 2434TIP3    H228794   1.767   1.939 104.627  0.3751  0.2904  0.6576
 2435TIP3   OH228795   2.311   2.451  98.650 -0.3679 -0.2095 -0.4272
 2435TIP3    H128796   2.366   2.373  98.661  0.5869  0.5292  0.2621
 2435TIP3    H228797   2.304   2.462  98.555  1.2064  0.0113 -0.5519
 2436TIP3   OH228798   0.714   0.566  77.812  0.6110 -0.7758  0.3205
 2436TIP3    H128799   0.661   0.543  77.889  0.8950 -0.1614  0.7195
 2436TIP3    H228800   0.673   0.646  77.779  0.2893 -1.2281 -0.3692
 2437TIP3   OH228801   0.885   2.633   3.861  0.1934 -0.0090 -0.1534
 2437TIP3    H128802   0.925   2.689   3.928  0.0233  1.1167 -0.9557
 2437TIP3    H228803   0.839   2.565   3.911  1.7448 -0.3928  0.8182
 2438TIP3   OH228804   2.306   0.017   2.222 -0.2084 -0.7021  0.2074
 2438TIP3    H128805   2.341  -0.052   2.279  2.0297 -0.5577 -0.8753
 2438TIP3    H228806   2.384   0.062   2.190 -1.4959  0.4270 -1.4680
 2439TIP3   OH228807   2.644   0.718   5.205 -0.1727  0.1059 -0.1681
 2439TIP3    H128808   2.608   0.638   5.167  1.2309 -2.1543  2.8055
 2439TIP3    H228809   2.571   0.779   5.207 -1.4228 -1.2169 -2.1483
 2440TIP3   OH228810   0.689   0.213   4.777  0.1744 -0.8238 -0.1009
 2440TIP3    H128811   0.775   0.231   4.739  0.7257 -1.7401  0.6570
 2440TIP3    H228812   0.704   0.218   4.872 -0.6639 -0.7468  0.0292
 2441TIP3   OH228813   0.760   1.659  33.633  0.4933  0.0095 -0.4380
 2441TIP3    H128814   0.829   1.695  33.689 -0.0554  0.1489  0.1591
 2441TIP3    H228815   0.739   1.574  33.672  0.9481 -0.4346 -1.1450
 2442TIP3   OH228816   2.538   0.358   5.121  0.1656  0.0878 -0.0806
 2442TIP3    H128817   2.453   0.396   5.141  0.4553  0.8504 -0.2691
 2442TIP3    H228818   2.567   0.320   5.205 -0.0398  0.4597  0.1613
 2443TIP3   OH228819   1.864   0.580 102.810 -0.4907 -0.0983  0.0219
 2443TIP3    H128820   1.870   0.563 102.904 -1.4418  2.2241  0.5658
 2443TIP3    H228821   1.771   0.570 102.790 -0.1247 -1.9212 -1.0211
 2444TIP3   OH228822   2.018   2.536  13.645 -0.4111 -0.3811 -0.3581
 2444TIP3    H128823   1.998   2.521  13.552  0.7225 -0.5515 -0.5885
 2444TIP3    H228824   2.107   2.504  13.655 -0.9241 -1.4370  1.0664
 2445TIP3   OH228825   0.022   2.396  96.137  0.4049  0.2086  0.4185
 2445TIP3    H128826   0.054   2.320  96.185 -0.7950 -1.0449 -0.6716
 2445TIP3    H228827   0.025   2.370  96.045 -1.0001  1.0856  0.0881
 2446TIP3   OH228828   1.642   1.909  90.975 -0.5275  0.5342 -0.6954
 2446TIP3    H128829   1.588   1.926  90.898  0.4596  0.9218 -1.3340
 2446TIP3    H228830   1.708   1.846  90.944  1.4061  2.5330 -0.9118
 2447TIP3   OH228831   1.015   0.316  80.455 -0.9523  0.4910  0.0742
 2447TIP3    H128832   1.024   0.310  80.360 -1.3745  0.7205  0.0227
 2447TIP3    H228833   1.027   0.409  80.474 -0.2906  0.3644  0.3061
 2448TIP3   OH228834   1.804   1.322  89.385  0.3524  0.1256 -0.4886
 2448TIP3    H128835   1.898   1.337  89.391  0.1987  1.3496 -1.0005
 2448TIP3    H228836   1.787   1.309  89.292 -0.2607  1.9894 -0.6763
 2449TIP3   OH228837   0.023   1.378 100.496  0.4037 -0.2395 -0.0685
 2449TIP3    H128838  -0.049   1.319 100.519 -2.2399  2.4781 -0.8037
 2449TIP3    H228839   0.023   1.379 100.400  0.7669  0.5250 -0.0643
 2450TIP3   OH228840   2.308   0.828  79.258  0.0197  0.2150  0.1148
 2450TIP3    H128841   2.257   0.748  79.249 -0.4842  0.6306 -1.0537
 2450TIP3    H228842   2.283   0.864  79.343  1.9157 -1.9385  1.7134
 2451TIP3   OH228843   1.744   2.415  25.749  0.0834 -0.6676 -0.3865
 2451TIP3    H128844   1.688   2.490  25.770  0.0933 -0.2499 -1.7308
 2451TIP3    H228845   1.803   2.447  25.681  1.0932 -1.4819  0.0748
 2452TIP3   OH228846   1.780   2.613 108.037  0.2105 -0.0114 -0.3371
 2452TIP3    H128847   1.799   2.707 108.039  1.2182 -0.1058 -2.3996
 2452TIP3    H228848   1.859   2.572 108.072  0.8301 -0.1368 -1.8022
 2453TIP3   OH228849   0.760   1.728  30.381 -0.0302 -0.1531 -0.3490
 2453TIP3    H128850   0.738   1.821  30.389 -1.2750 -0.4956  0.5827
 2453TIP3    H228851   0.855   1.727  30.367  0.2371  1.2223  1.0334
 2454TIP3   OH228852   1.837   1.755  30.028  0.2876 -0.0945  0.2105
 2454TIP3    H128853   1.804   1.837  29.989  1.9462  0.4674 -0.0815
 2454TIP3    H228854   1.874   1.707  29.953 -0.1567 -0.8666  0.4775
 2455TIP3   OH228855   1.463   1.931   7.944  0.2664 -0.1366  0.5234
 2455TIP3    H128856   1.528   1.888   8.000  0.8690  0.5224  0.3407
 2455TIP3    H228857   1.392   1.868   7.939  1.4144 -1.4223 -0.3019
 2456TIP3   OH228858   2.585   2.128  79.501  0.1640 -0.5876 -0.1467
 2456TIP3    H128859   2.590   2.171  79.586 -0.2834  0.5157 -0.6519
 2456TIP3    H228860   2.529   2.185  79.448 -1.1569 -2.2268 -0.6148
 2457TIP3   OH228861   0.203   1.538   1.433 -0.3282  0.1244 -0.2499
 2457TIP3    H128862   0.285   1.505   1.471  0.4558  0.5606 -1.4800
 2457TIP3    H228863   0.176   1.609   1.491 -0.0805 -0.3093  0.4105
 2458TIP3   OH228864   0.631   0.792 105.889  0.2507  0.1332 -0.3447
 2458TIP3    H128865   0.606   0.728 105.955 -0.0986  0.6685  0.0479
 2458TIP3    H228866   0.564   0.784 105.821  0.3757 -0.1258 -0.4428
 2459TIP3   OH228867   1.193   2.437   5.228 -0.4574  0.3151  0.1620
 2459TIP3    H128868   1.168   2.483   5.308  0.2982  0.1254  0.5138
 2459TIP3    H228869   1.144   2.355   5.232 -1.9794  1.1324 -0.5722
 2460TIP3   OH228870   0.902   1.978   7.062  0.0101  0.5577  0.0712
 2460TIP3    H128871   0.950   1.934   6.992  1.6788  1.4846  0.5685
 2460TIP3    H228872   0.904   1.917   7.135  0.0753  0.4279 -0.0381
 2461TIP3   OH228873   0.963   0.540   9.393 -0.4374  0.7554  0.2978
 2461TIP3    H128874   1.021   0.501   9.459  1.2829  0.5372 -1.2510
 2461TIP3    H228875   0.933   0.465   9.341 -1.1335  1.0100  0.3225
 2462TIP3   OH228876   0.103   0.863 103.966  0.3421 -0.9037 -0.1109
 2462TIP3    H128877   0.045   0.886 103.893  0.0369  0.1051  0.4338
 2462TIP3    H228878   0.061   0.788 104.007 -0.3998 -0.4197  0.0396
 2463TIP3   OH228879   1.236   1.446  25.596  0.2645 -0.0731 -0.1748
 2463TIP3    H128880   1.329   1.450  25.576 -0.1645  1.0392 -2.1770
 2463TIP3    H228881   1.205   1.536  25.586 -0.7885 -0.1413  1.9034
 2464TIP3   OH228882   0.425   0.878  31.349 -0.2610 -0.1470  0.0899
 2464TIP3    H128883   0.428   0.796  31.301  0.3111 -0.2441  0.2928
 2464TIP3    H228884   0.409   0.852  31.440  2.1840 -0.2158  0.5746
 2465TIP3   OH228885   1.664   0.738 104.320  0.1877  0.1574  0.2112
 2465TIP3    H128886   1.728   0.684 104.366 -0.7524 -0.3661  0.9412
 2465TIP3    H228887   1.580   0.713 104.358 -0.4657  0.7553 -0.8037
 2466TIP3   OH228888   0.962   0.271  92.692 -0.1119 -0.4939 -0.5440
 2466TIP3    H128889   1.003   0.189  92.662 -0.8499 -0.6513 -1.1862
 2466TIP3    H228890   0.994   0.283  92.781  1.9996 -0.1398 -1.3029
 2467TIP3   OH228891   2.249   0.323  76.093 -0.3177  0.4229 -0.0752
 2467TIP3    H128892   2.320   0.386  76.105  0.6564 -0.6748  0.0928
 2467TIP3    H228893   2.290   0.250  76.046 -1.2492 -0.3764  0.3350
 2468TIP3   OH228894   1.435   1.608  24.338 -0.0428  0.1616 -0.0841
 2468TIP3    H128895   1.342   1.604  24.315 -0.3848 -1.5770  1.2816
 2468TIP3    H228896   1.480   1.569  24.264 -0.5825 -0.4660 -0.0909
 2469TIP3   OH228897   0.927   0.795  78.447 -0.3040  0.4381 -0.0955
 2469TIP3    H128898   0.939   0.872  78.502  1.7978 -0.0284  0.1949
 2469TIP3    H228899   0.979   0.813  78.369 -0.1599 -0.4737 -0.2207
 2470TIP3   OH228900   1.222   0.154   4.411  0.1638  0.0519  0.1232
 2470TIP3    H128901   1.297   0.102   4.381 -2.0492 -3.7370  0.5045
 2470TIP3    H228902   1.182   0.187   4.330  0.1062 -1.1974 -0.3811
 2471TIP3   OH228903   0.391   0.596  94.573 -0.3513 -0.2562  0.1396
 2471TIP3    H128904   0.367   0.688  94.588 -0.4732 -0.2206 -0.2346
 2471TIP3    H228905   0.316   0.561  94.524  0.3246 -0.1674 -0.9787
 2472TIP3   OH228906   1.500   1.468  76.569  0.5527  0.3975  0.1912
 2472TIP3    H128907   1.571   1.498  76.513  0.0728  0.4485 -0.4008
 2472TIP3    H228908   1.438   1.425  76.510 -0.6957  1.7835  0.4287
 2473TIP3   OH228909   2.440   2.484  73.201  0.1861  0.2653  0.1158
 2473TIP3    H128910   2.531   2.461  73.187  0.5785  1.1735  1.0994
 2473TIP3    H228911   2.426   2.562  73.147  0.6445  1.4873  1.7082
 2474TIP3   OH228912   0.464   2.624   9.304  0.2040 -0.0559 -0.4042
 2474TIP3    H128913   0.495   2.601   9.216 -0.8852 -0.2391 -0.7446
 2474TIP3    H228914   0.388   2.569   9.319 -0.2350  0.7012  0.2578
 2475TIP3   OH228915   2.253   1.360  82.164  0.8293  0.2754 -0.0463
 2475TIP3    H128916   2.259   1.265  82.156  2.2133  0.4112 -0.9148
 2475TIP3    H228917   2.230   1.390  82.076 -2.3048  0.6231  0.7609
 2476TIP3   OH228918   2.436   0.838  86.519 -0.5528 -0.3483 -0.1707
 2476TIP3    H128919   2.454   0.820  86.612 -0.2096 -1.3746 -0.4247
 2476TIP3    H228920   2.456   0.931  86.509 -0.8094 -0.1689  0.8408
 2477TIP3   OH228921   1.531   2.522  79.908  0.2887 -0.0967 -0.1466
 2477TIP3    H128922   1.565   2.582  79.975 -3.3185  1.1733  0.8214
 2477TIP3    H228923   1.468   2.467  79.955  0.5333 -1.9162 -1.8208
 2478TIP3   OH228924   0.782   0.148 107.124  0.1353  0.1005 -0.0649
 2478TIP3    H128925   0.857   0.170 107.180  1.3125 -1.5990 -0.8969
 2478TIP3    H228926   0.815   0.162 107.035 -0.2728 -1.3863 -0.4631
 2479TIP3   OH228927   1.699   0.941 103.118  0.0450 -0.2953 -0.1002
 2479TIP3    H128928   1.695   1.022 103.169 -2.4483 -1.4302  1.7049
 2479TIP3    H228929   1.754   0.883 103.169 -0.0314 -0.4703 -0.2147
 2480TIP3   OH228930   1.473   1.774   6.734 -0.1942  0.3511 -0.2110
 2480TIP3    H128931   1.446   1.828   6.808 -0.5407  1.5808 -1.1885
 2480TIP3    H228932   1.406   1.706   6.728 -0.6580  0.7824  0.0480
 2481TIP3   OH228933   1.003   1.837  86.987  0.2757 -0.3302 -0.2789
 2481TIP3    H128934   0.960   1.875  87.064 -0.0560  0.3579 -0.7923
 2481TIP3    H228935   1.082   1.891  86.976  0.4478 -0.5808 -0.2855
 2482TIP3   OH228936   2.510   1.057  29.999  0.3109 -0.2932  0.4328
 2482TIP3    H128937   2.427   1.089  29.965 -0.1398 -0.0957  1.6487
 2482TIP3    H228938   2.573   1.074  29.930 -0.1604  2.0006  0.4891
 2483TIP3   OH228939   0.859   1.060  32.510  0.1968 -0.3120  0.0458
 2483TIP3    H128940   0.849   1.019  32.424 -2.1816 -0.5306  0.3617
 2483TIP3    H228941   0.829   0.995  32.572 -1.2312  0.9753  0.7635
 2484TIP3   OH228942   2.420   0.544 106.780 -0.2581 -0.0475 -0.1661
 2484TIP3    H128943   2.514   0.554 106.795 -0.1947 -1.0674  0.2471
 2484TIP3    H228944   2.409   0.559 106.686 -0.2401  3.6241  0.2946
 2485TIP3   OH228945   1.990   0.322  18.949  0.3634  0.0671  0.6665
 2485TIP3    H128946   1.943   0.394  18.992  0.4203 -0.4555  1.6268
 2485TIP3    H228947   2.082   0.341  18.966  0.3455 -0.6558  1.6299
 2486TIP3   OH228948   0.704   0.365  35.161  0.5073 -0.0817  0.1201
 2486TIP3    H128949   0.662   0.413  35.232 -1.2980 -1.1344 -0.1765
 2486TIP3    H228950   0.668   0.277  35.167  3.6137 -1.4512  0.5749
 2487TIP3   OH228951   0.918   1.973 104.122 -0.0522  0.2075  0.3967
 2487TIP3    H128952   0.856   2.011 104.060 -0.6089 -1.3451 -0.0659
 2487TIP3    H228953   0.997   1.958 104.071 -0.6928 -1.5893 -0.1630
 2488TIP3   OH228954   2.126   2.164   1.630  0.0902  0.2222 -0.5241
 2488TIP3    H128955   2.130   2.119   1.714  0.8763  0.3803 -0.4741
 2488TIP3    H228956   2.211   2.207   1.622 -0.0841  0.4304 -1.2748
 2489TIP3   OH228957   0.038   1.592 111.584  0.2076  0.0204 -0.3937
 2489TIP3    H128958   0.084   1.672 111.606  2.7203 -1.9654  2.4198
 2489TIP3    H228959   0.083   1.558 111.507  0.3122  0.4247 -0.5121
 2490TIP3   OH228960   1.482   2.509  96.380 -0.0216 -0.1466  0.3763
 2490TIP3    H128961   1.435   2.550  96.453  0.1974 -0.7115  0.8354
 2490TIP3    H228962   1.574   2.532  96.395 -0.3013  3.4426 -2.0446
 2491TIP3   OH228963   0.792   2.505 108.442  1.2048 -0.4186  0.0986
 2491TIP3    H128964   0.783   2.590 108.399 -1.8552  0.4741  2.1402
 2491TIP3    H228965   0.831   2.525 108.527  1.3633 -1.2385  0.2285
 2492TIP3   OH228966   0.658   0.455   2.265 -0.4023 -0.4172  0.5632
 2492TIP3    H128967   0.753   0.446   2.260 -0.2742  0.5746  0.9692
 2492TIP3    H228968   0.642   0.499   2.349 -1.2422 -0.8246  0.6330
 2493TIP3   OH228969   1.939   1.502  75.633 -0.2253 -0.3447  0.2234
 2493TIP3    H128970   1.895   1.563  75.573 -2.4560 -1.3097  0.8132
 2493TIP3    H228971   2.016   1.473  75.584 -0.5504  0.9180 -1.1125
 2494TIP3   OH228972   1.753   2.172  98.362  0.2648 -0.1399 -0.0171
 2494TIP3    H128973   1.685   2.237  98.344  1.3545  0.8916 -0.5578
 2494TIP3    H228974   1.749   2.158  98.457 -2.2276 -1.8860 -0.2708
 2495TIP3   OH228975   1.614   1.874  83.764  0.6141  0.2833  0.1721
 2495TIP3    H128976   1.671   1.801  83.742  1.9028  0.3726  2.7930
 2495TIP3    H228977   1.643   1.945  83.706  1.5463 -0.3529 -0.1668
 2496TIP3   OH228978   1.106   1.565  83.294 -0.0710 -0.2041 -0.3019
 2496TIP3    H128979   1.037   1.560  83.361 -0.5870  0.1290 -0.7977
 2496TIP3    H228980   1.123   1.659  83.284  0.8807 -0.3125  0.2340
 2497TIP3   OH228981   0.732   0.792  82.834  0.3601  0.5011 -0.4998
 2497TIP3    H128982   0.663   0.830  82.888  0.6272  1.5952 -0.9206
 2497TIP3    H228983   0.704   0.808  82.744 -0.4091 -1.8871 -0.7583
 2498TIP3   OH228984   0.782   2.289 102.615 -0.7719  0.2315 -0.7225
 2498TIP3    H128985   0.741   2.205 102.633  0.6484 -0.3486 -0.0356
 2498TIP3    H228986   0.867   2.284 102.659 -0.4230  1.8041 -1.1625
 2499TIP3   OH228987   1.905   0.248  33.183  0.1261 -0.0381 -0.0814
 2499TIP3    H128988   1.838   0.186  33.214 -1.2357  1.9189  1.1925
 2499TIP3    H228989   1.855   0.326  33.160  1.8290  0.8107 -1.0290
 2500TIP3   OH228990   0.815   2.433  74.420  0.8130 -0.7271  0.7005
 2500TIP3    H128991   0.734   2.384  74.406 -0.2570  1.2177 -0.1573
 2500TIP3    H228992   0.880   2.387  74.366 -0.7024  0.0683 -1.9789
 2501TIP3   OH228993   1.974   1.715 100.734 -0.5070 -0.4682 -0.0728
 2501TIP3    H128994   2.011   1.632 100.705  0.6294 -0.3354  0.9047
 2501TIP3    H228995   2.042   1.780 100.715 -0.7529 -0.0099  0.5816
 2502TIP3   OH228996   2.593   0.705  63.374 -0.1727 -0.1217  0.0714
 2502TIP3    H128997   2.646   0.627  63.386  0.7053 -0.0055 -2.3470
 2502TIP3    H228998   2.599   0.752  63.457  2.2727 -0.8686  0.3927
 2503TIP3   OH228999   0.572   2.584  66.041 -0.9097 -0.1702  0.0801
 2503TIP3    H129000   0.551   2.594  65.948 -0.6109 -0.0770  0.0200
 2503TIP3    H229001   0.552   2.669  66.080  1.4154  0.6694 -0.3779
 2504TIP3   OH229002   2.177   2.555 110.018 -0.1546  0.1445  0.3893
 2504TIP3    H129003   2.086   2.574 110.037  0.0327  2.3188 -0.6826
 2504TIP3    H229004   2.178   2.530 109.926  0.4303  1.0194  0.1462
 2505TIP3   OH229005   2.126   1.836  92.089 -0.4077  0.0952  0.7738
 2505TIP3    H129006   2.108   1.893  92.015 -0.5343  0.2175  0.8965
 2505TIP3    H229007   2.218   1.850  92.109 -0.6197  0.8010  1.2682
 2506TIP3   OH229008   0.933   1.762  90.134 -0.3322  0.1837 -0.0744
 2506TIP3    H129009   0.975   1.676  90.135 -0.3579  0.1503 -1.1416
 2506TIP3    H229010   0.839   1.743  90.140 -0.3582  0.1157 -0.6615
 2507TIP3   OH229011   2.281   2.011 108.600 -0.0448 -0.2245  0.2504
 2507TIP3    H129012   2.254   1.995 108.510  0.5139 -1.3214  0.2617
 2507TIP3    H229013   2.337   2.089 108.595  2.3161 -1.8596 -0.8304
 2508TIP3   OH229014   1.101   2.521 101.594  0.3698  0.2832 -0.0597
 2508TIP3    H129015   1.171   2.569 101.637  1.1287  0.3477 -1.3294
 2508TIP3    H229016   1.055   2.587 101.542  1.1271 -0.2624 -1.4456
 2509TIP3   OH229017   0.905   2.031   4.535  0.3992 -0.1773 -0.3264
 2509TIP3    H129018   0.839   2.096   4.560 -0.1084 -0.1589 -1.6711
 2509TIP3    H229019   0.907   1.970   4.609 -1.3151 -0.3172 -0.3678
 2510TIP3   OH229020   0.720   0.332  35.469 -0.0695 -0.0711  0.4189
 2510TIP3    H129021   0.686   0.301  35.553 -1.7933 -0.1386 -0.2567
 2510TIP3    H229022   0.811   0.302  35.466 -0.2454 -0.8131  1.8687
 2511TIP3   OH229023   2.492   1.612  31.302 -0.4495  0.0664  0.1751
 2511TIP3    H129024   2.541   1.686  31.339 -0.7937  0.5274 -0.2854
 2511TIP3    H229025   2.473   1.556  31.378 -1.2038  1.0384  0.7184
 2512TIP3   OH229026   1.745   1.736  11.206  0.0470 -0.1121  0.1458
 2512TIP3    H129027   1.783   1.666  11.258  1.0482  0.2721 -0.0492
 2512TIP3    H229028   1.786   1.728  11.120 -0.1750  0.4292 -0.0152
 2513TIP3   OH229029   2.389   2.397  46.741  0.4440  0.3270  0.9778
 2513TIP3    H129030   2.323   2.332  46.763 -1.3760  1.3718 -1.0338
 2513TIP3    H229031   2.421   2.428  46.826  0.3750 -2.1260  1.9731
 2514TIP3   OH229032   0.097   2.667  74.392 -0.1726 -0.0915 -0.1481
 2514TIP3    H129033   0.113   2.760  74.378 -1.1000  0.2195  0.7215
 2514TIP3    H229034   0.119   2.652  74.484  2.3066 -1.2876 -0.8572
 2515TIP3   OH229035   0.950   0.410  82.032  0.4039  0.3446  0.2950
 2515TIP3    H129036   0.933   0.336  82.090  1.4282  1.2067  1.7263
 2515TIP3    H229037   0.898   0.482  82.068  1.4445  1.0283  0.4744
 2516TIP3   OH229038   2.401   1.077  31.958  0.0502  0.0557 -0.0675
 2516TIP3    H129039   2.413   1.167  31.990  0.2362 -0.4759  1.4301
 2516TIP3    H229040   2.400   1.023  32.038 -1.7696 -1.1019 -0.8161
 2517TIP3   OH229041   1.016   0.252  37.025  0.2882 -0.3786  0.9435
 2517TIP3    H129042   1.053   0.308  37.093  1.9190 -1.1856  0.7547
 2517TIP3    H229043   1.058   0.167  37.037 -0.7353 -1.0490  0.0369
 2518TIP3   OH229044   0.742   0.029  99.159  0.0107 -0.6332  0.1389
 2518TIP3    H129045   0.776  -0.061  99.163 -1.1183 -1.0976 -0.2985
 2518TIP3    H229046   0.792   0.077  99.225  3.1850 -0.6934 -2.0113
 2519TIP3   OH229047   0.443   0.667  99.489  0.2027  0.7627  0.0577
 2519TIP3    H129048   0.454   0.674  99.583  0.8667 -1.2941  0.1916
 2519TIP3    H229049   0.392   0.586  99.477 -1.3253  1.8569 -1.2915
 2520TIP3   OH229050   0.174   1.646 104.562  0.4658  0.3677 -0.5247
 2520TIP3    H129051   0.219   1.705 104.502  2.7225 -0.3239  0.3792
 2520TIP3    H229052   0.168   1.695 104.644  1.0453 -0.1378 -0.1827
 2521TIP3   OH229053   1.264   1.427  94.034  0.2833 -0.0492 -0.3290
 2521TIP3    H129054   1.199   1.457  93.969 -0.4699 -0.6849  0.1132
 2521TIP3    H229055   1.339   1.400  93.981 -0.0148  0.1826 -0.8913
 2522TIP3   OH229056   1.537   2.405  93.090  0.3380 -0.4460 -0.0050
 2522TIP3    H129057   1.498   2.456  93.162  0.6256  1.6232 -1.2402
 2522TIP3    H229058   1.612   2.360  93.130 -0.1379 -0.2079  1.2128
 2523TIP3   OH229059   0.536   1.788  21.099 -0.9085 -0.4727 -0.4522
 2523TIP3    H129060   0.510   1.764  21.010 -2.3312 -0.4125 -0.0791
 2523TIP3    H229061   0.538   1.884  21.098 -0.4439 -0.4818 -0.5423
 2524TIP3   OH229062   1.661   2.461   5.581  0.2319  0.1172  0.5065
 2524TIP3    H129063   1.720   2.388   5.598 -0.7540 -0.8448 -0.0706
 2524TIP3    H229064   1.716   2.539   5.591  2.1520 -0.7786 -1.9205
 2525TIP3   OH229065   0.311   0.670  63.289  0.4569  0.3412 -0.4719
 2525TIP3    H129066   0.330   0.757  63.324 -0.1758  1.1985 -2.1628
 2525TIP3    H229067   0.397   0.631  63.274  0.8571  1.7229 -2.1313
 2526TIP3   OH229068   0.423   0.652  21.436 -0.4789 -0.2340  0.0898
 2526TIP3    H129069   0.424   0.728  21.495  0.2117 -1.1562  1.3235
 2526TIP3    H229070   0.511   0.650  21.399 -1.3150  1.1975 -2.2146
 2527TIP3   OH229071   2.081   2.297  37.551  0.0251 -0.4521 -0.7036
 2527TIP3    H129072   2.036   2.293  37.635  2.3600  0.5827  0.6867
 2527TIP3    H229073   2.066   2.211  37.512 -1.3280 -0.8737  0.6236
 2528TIP3   OH229074   0.091   0.085  91.938 -0.0549 -0.1945 -0.5272
 2528TIP3    H129075   0.100  -0.005  91.907  0.3150  0.5591 -2.8236
 2528TIP3    H229076   0.172   0.102  91.985 -0.6802 -1.4342  1.0784
 2529TIP3   OH229077   1.436   1.476  47.700 -0.5707  0.7879 -0.2420
 2529TIP3    H129078   1.422   1.535  47.625  0.6757  0.5879 -0.6676
 2529TIP3    H229079   1.506   1.418  47.671 -2.0966 -1.2587 -0.0106
 2530TIP3   OH229080   1.139   1.344 111.583 -0.1387 -0.2953 -0.0076
 2530TIP3    H129081   1.189   1.326 111.663  3.3272 -0.1878 -1.9678
 2530TIP3    H229082   1.082   1.268 111.573  0.7286 -1.2006  1.5623
 2531TIP3   OH229083   0.945   2.539  34.281 -0.7682  0.1835  0.0911
 2531TIP3    H129084   0.854   2.526  34.256 -0.5737  0.6471 -0.9400
 2531TIP3    H229085   0.961   2.475  34.349 -1.5806 -0.6106 -0.4445
 2532TIP3   OH229086   0.942   2.672  96.583 -0.2189  0.2085 -0.4342
 2532TIP3    H129087   0.860   2.720  96.596 -0.2262 -0.5087  2.7798
 2532TIP3    H229088   0.996   2.695  96.658  1.2875 -1.8328 -0.8022
 2533TIP3   OH229089   1.581   0.230   3.574  0.1883  0.3379  0.4365
 2533TIP3    H129090   1.588   0.238   3.478  2.5099 -2.9350  0.1535
 2533TIP3    H229091   1.487   0.234   3.591 -0.6788 -2.4750 -2.5276
 2534TIP3   OH229092   1.922   1.581 105.536  0.0382  0.0433 -0.2527
 2534TIP3    H129093   1.944   1.572 105.629 -2.5392 -1.2400  0.3186
 2534TIP3    H229094   1.920   1.675 105.520 -0.6768  0.3232  1.3350
 2535TIP3   OH229095   0.467   2.611 101.124 -0.1356  0.3048 -0.2988
 2535TIP3    H129096   0.549   2.585 101.081  0.0678  0.7089 -0.1599
 2535TIP3    H229097   0.484   2.699 101.158 -0.9577  0.8314 -1.1800
 2536TIP3   OH229098   0.459   0.394  90.741 -0.4321  0.2035  0.0017
 2536TIP3    H129099   0.412   0.447  90.806 -1.1739 -0.2720 -0.1346
 2536TIP3    H229100   0.477   0.311  90.787 -3.0325 -1.0688 -1.0683
 2537TIP3   OH229101   1.859   2.037  82.675  0.2544 -0.5275  0.7732
 2537TIP3    H129102   1.804   2.110  82.648 -0.3830 -1.2185  0.1773
 2537TIP3    H229103   1.947   2.075  82.682  0.1426  0.0538 -0.6434
 2538TIP3   OH229104   0.829   1.033  99.120  0.0906  0.0184 -0.4626
 2538TIP3    H129105   0.820   0.960  99.058 -0.3451  0.0572 -0.4477
 2538TIP3    H229106   0.922   1.056  99.118  0.1659 -0.3117 -0.7238
 2539TIP3   OH229107   0.361   0.629  30.334 -0.1317  0.3432 -0.1110
 2539TIP3    H129108   0.302   0.690  30.289 -0.4593  0.2973  0.2512
 2539TIP3    H229109   0.448   0.653  30.302 -0.4477 -0.4588 -1.6970
 2540TIP3   OH229110   1.188   0.180  30.689 -0.0145  0.6918 -0.2519
 2540TIP3    H129111   1.135   0.237  30.744 -0.4377  0.6471 -0.6021
 2540TIP3    H229112   1.230   0.120  30.750  0.3050  1.2714  0.1051
 2541TIP3   OH229113   0.469   1.446   2.475 -0.0553 -0.5560 -0.6237
 2541TIP3    H129114   0.438   1.537   2.484 -1.6561 -1.1536  0.2146
 2541TIP3    H229115   0.560   1.455   2.447 -0.8339  1.2960 -2.8454
 2542TIP3   OH229116   1.188   1.552  81.373  0.2979 -0.2736 -0.4735
 2542TIP3    H129117   1.215   1.475  81.423 -1.5114 -0.5383  0.1912
 2542TIP3    H229118   1.226   1.626  81.420 -2.0195 -0.4388  1.9481
 2543TIP3   OH229119   0.753   1.547  96.693 -0.2597 -0.1825 -0.1119
 2543TIP3    H129120   0.735   1.619  96.752  0.5057 -0.6082  0.6594
 2543TIP3    H229121   0.839   1.566  96.656 -0.4328 -0.2650 -0.5623
 2544TIP3   OH229122   0.241   0.725  36.076 -0.1253 -0.0240  0.0787
 2544TIP3    H129123   0.293   0.796  36.113  0.2157 -0.3906  0.3074
 2544TIP3    H229124   0.150   0.752  36.090  0.0012  0.1893  0.5072
 2545TIP3   OH229125   0.336   0.198  97.737 -0.2443  0.0695  0.5613
 2545TIP3    H129126   0.297   0.116  97.769 -0.4639 -0.3621 -0.7675
 2545TIP3    H229127   0.427   0.176  97.719 -0.1846  0.2488  0.6402
 2546TIP3   OH229128   0.598   1.627  22.192 -0.1523  0.3951 -0.4570
 2546TIP3    H129129   0.565   1.554  22.139  0.3599  0.3088 -0.6640
 2546TIP3    H229130   0.641   1.584  22.266 -0.9078  0.5155  0.0674
 2547TIP3   OH229131   0.218   0.573  74.900 -0.0895  0.4640 -0.7907
 2547TIP3    H129132   0.236   0.645  74.961  1.9984  0.6398 -1.5570
 2547TIP3    H229133   0.191   0.500  74.956 -1.1568  1.4907  0.0778
 2548TIP3   OH229134   0.556   0.348  20.853  0.1867  0.1343  0.0540
 2548TIP3    H129135   0.641   0.311  20.873  0.0509  0.6303  1.6627
 2548TIP3    H229136   0.572   0.442  20.840  0.0004  0.1012 -0.4557
 2549TIP3   OH229137   0.503   1.595  16.102  0.2149 -0.2919  0.6240
 2549TIP3    H129138   0.412   1.622  16.112  0.3109  0.5566 -0.5355
 2549TIP3    H229139   0.508   1.509  16.145 -1.1169 -0.3360  0.7207
 2550TIP3   OH229140   1.241   1.314  84.482 -0.4399  0.0813 -0.2866
 2550TIP3    H129141   1.216   1.236  84.433 -1.8163 -0.5458  1.3174
 2550TIP3    H229142   1.205   1.300  84.570  0.0311  2.1344  0.2903
 2551TIP3   OH229143   2.276   1.930 103.429  0.1842  0.3836 -0.2214
 2551TIP3    H129144   2.247   1.930 103.337  0.6143 -2.0941 -0.4071
 2551TIP3    H229145   2.195   1.939 103.479 -0.3518 -0.8944 -0.8251
 2552TIP3   OH229146   0.688   1.777  20.772  0.0738 -0.7908  0.1004
 2552TIP3    H129147   0.683   1.698  20.719 -0.9316  0.8436 -2.4141
 2552TIP3    H229148   0.624   1.764  20.842  1.0295 -2.7726  0.6837
 2553TIP3   OH229149   1.532   1.239  58.783 -0.4479  0.7348  0.5010
 2553TIP3    H129150   1.567   1.199  58.863  0.2341 -0.6179 -0.4322
 2553TIP3    H229151   1.463   1.179  58.755  2.7039 -1.8509 -2.7033
 2554TIP3   OH229152   0.704   2.022   0.647 -1.1196  0.5864 -0.6086
 2554TIP3    H129153   0.648   1.947   0.625 -0.4450 -0.2033  0.2698
 2554TIP3    H229154   0.721   2.065   0.563  0.1094 -1.4145 -1.4596
 2555TIP3   OH229155   0.982   1.312  32.252 -0.2291  0.0349  0.4495
 2555TIP3    H129156   0.969   1.271  32.337 -1.0960  0.6363  0.6228
 2555TIP3    H229157   1.051   1.377  32.266  0.9371 -1.1171  0.2439
 2556TIP3   OH229158   1.319   1.568   3.659 -0.1800 -0.2848 -0.2342
 2556TIP3    H129159   1.414   1.576   3.667 -0.1224 -0.7282 -0.4698
 2556TIP3    H229160   1.285   1.619   3.732  0.2322  0.1254 -0.3199
 2557TIP3   OH229161   0.423   0.733  88.188  0.0568 -0.2493  0.8144
 2557TIP3    H129162   0.513   0.712  88.216  0.2692  0.2353  0.4978
 2557TIP3    H229163   0.368   0.683  88.248  0.5008  0.9157  2.2614
 2558TIP3   OH229164   2.059   2.609  98.009 -0.2830  0.4127  0.0709
 2558TIP3    H129165   2.122   2.569  97.949 -0.4802  0.7414 -0.3652
 2558TIP3    H229166   1.977   2.564  97.992 -0.4146  0.7242 -0.1432
 2559TIP3   OH229167   0.779   2.681  66.688  0.5439 -0.0290  0.4840
 2559TIP3    H129168   0.780   2.657  66.595 -0.0819  0.3161  0.3825
 2559TIP3    H229169   0.751   2.602  66.734 -2.7966  0.7654  0.0549
 2560TIP3   OH229170   1.899   0.129  34.294 -0.1764 -0.1822 -0.2550
 2560TIP3    H129171   1.948   0.166  34.368 -1.5694 -0.5990  0.9281
 2560TIP3    H229172   1.888   0.037  34.317 -2.3366  0.0909  0.0409
 2561TIP3   OH229173   0.700   1.266  26.466 -0.5225 -0.1025  0.4144
 2561TIP3    H129174   0.700   1.308  26.552 -0.0813  0.9517 -0.0897
 2561TIP3    H229175   0.748   1.184  26.480  2.0913  1.3371  0.6081
 2562TIP3   OH229176   0.833   0.783  81.872  0.1075  0.2074  0.3176
 2562TIP3    H129177   0.755   0.838  81.866  0.7922  1.1188 -0.3618
 2562TIP3    H229178   0.804   0.706  81.921 -1.4511  0.1198 -0.6808
 2563TIP3   OH229179   2.310   1.836  30.362  0.1970 -0.3888 -0.3157
 2563TIP3    H129180   2.393   1.874  30.333  0.3037 -0.5462 -0.2212
 2563TIP3    H229181   2.250   1.849  30.288  0.2133  0.0155 -0.2565
 2564TIP3   OH229182   1.432   1.763  23.915 -0.0104 -0.0873  0.1828
 2564TIP3    H129183   1.413   1.800  24.001  2.4880  2.6233 -0.2309
 2564TIP3    H229184   1.371   1.807  23.856  0.6685  0.8802  0.1632
 2565TIP3   OH229185   0.030   2.001  80.303  0.6451 -0.3648 -0.2085
 2565TIP3    H129186  -0.049   1.962  80.265  0.8351 -0.8703 -0.1046
 2565TIP3    H229187   0.003   2.032  80.389  0.5665 -0.5813 -0.1556
 2566TIP3   OH229188   1.527   1.862  27.836 -0.3317 -0.5026 -0.0017
 2566TIP3    H129189   1.520   1.943  27.887 -0.9390 -1.5510  1.6723
 2566TIP3    H229190   1.619   1.839  27.841 -0.1598  0.0642 -0.4649
 2567TIP3   OH229191   0.290   1.170 106.575  0.2407 -0.0258  0.1910
 2567TIP3    H129192   0.380   1.137 106.580  0.5555  0.7491 -0.1413
 2567TIP3    H229193   0.262   1.151 106.485  0.8140  1.5414 -0.3487
 2568TIP3   OH229194   0.694   1.779  94.255  0.4601  0.1734  0.0307
 2568TIP3    H129195   0.761   1.760  94.188 -0.9633 -1.0250 -1.1313
 2568TIP3    H229196   0.614   1.739  94.220 -0.6799  0.8351  1.7781
 2569TIP3   OH229197   0.327   1.091  86.947  0.4264 -0.2239  0.6378
 2569TIP3    H129198   0.258   1.027  86.932 -0.6544  1.0314 -0.0084
 2569TIP3    H229199   0.393   1.044  86.998 -0.6017 -1.6455  0.7299
 2570TIP3   OH229200   1.644   0.645  28.689 -0.1598  0.1851 -0.5344
 2570TIP3    H129201   1.654   0.659  28.783 -0.4293 -0.7922 -0.3442
 2570TIP3    H229202   1.733   0.648  28.655 -0.0054  0.0022 -0.1614
 2571TIP3   OH229203   0.162   0.268  24.329  0.3708  0.1832  0.7893
 2571TIP3    H129204   0.254   0.297  24.333  0.8582 -1.1708  0.1393
 2571TIP3    H229205   0.125   0.317  24.256  0.5972  0.6829  1.0055
 2572TIP3   OH229206   0.851   1.092  79.704 -0.2463  0.8274 -0.3333
 2572TIP3    H129207   0.768   1.115  79.662 -1.7585  0.2277  2.0955
 2572TIP3    H229208   0.832   1.011  79.751  2.0853  0.0514 -0.6146
 2573TIP3   OH229209   0.489   2.172 105.415  0.3182  0.5678  0.0711
 2573TIP3    H129210   0.444   2.176 105.499  1.1048 -1.8186  0.6989
 2573TIP3    H229211   0.419   2.164 105.351 -0.2514  0.4680  0.6914
 2574TIP3   OH229212   1.059   0.213  95.765  0.1196 -0.4794  0.3106
 2574TIP3    H129213   1.084   0.155  95.692 -1.1067 -0.2760 -0.2963
 2574TIP3    H229214   1.059   0.301  95.726  0.1917 -0.2847  0.7508
 2575TIP3   OH229215   2.139   1.238 101.823  0.3746 -0.1281 -0.4702
 2575TIP3    H129216   2.121   1.326 101.792 -0.1354  0.2957  0.9403
 2575TIP3    H229217   2.084   1.228 101.901  1.5535 -1.1255  0.2827
 2576TIP3   OH229218   1.000   1.558  93.037  0.3588  0.2306 -0.5910
 2576TIP3    H129219   1.082   1.520  93.005  0.9756  0.8398  0.2102
 2576TIP3    H229220   1.005   1.548  93.132 -0.7999 -0.2938 -0.5706
 2577TIP3   OH229221   1.261   0.746  57.803  0.3209 -0.0836  0.3737
 2577TIP3    H129222   1.173   0.781  57.788 -0.4374 -2.0897 -0.1988
 2577TIP3    H229223   1.299   0.804  57.869 -1.0087  1.4692 -0.1623
 2578TIP3   OH229224   0.782   1.827  74.147 -0.5210  0.0418 -0.3172
 2578TIP3    H129225   0.860   1.784  74.182  0.9348  1.3492 -1.7741
 2578TIP3    H229226   0.761   1.777  74.068 -0.2616  0.5752 -0.7271
 2579TIP3   OH229227   2.264   0.517   9.646  1.0709 -0.9050 -0.3290
 2579TIP3    H129228   2.329   0.561   9.591  1.3190 -1.2281 -0.2943
 2579TIP3    H229229   2.235   0.442   9.595 -0.0019 -0.2214 -0.7577
 2580TIP3   OH229230   2.383   1.012  14.168 -0.9351 -0.6516  0.1580
 2580TIP3    H129231   2.321   0.970  14.227  0.0425  0.1116  1.7866
 2580TIP3    H229232   2.469   0.983  14.199 -0.3990 -0.4494 -1.0703
 2581TIP3   OH229233   0.361   0.017  68.873  0.0534 -0.3816 -0.3899
 2581TIP3    H129234   0.333   0.092  68.820 -2.1016 -1.1602 -0.4433
 2581TIP3    H229235   0.413   0.056  68.944 -0.0255  1.0269 -1.0727
 2582TIP3   OH229236   2.674   1.305  97.892  0.2278 -0.3912  0.2036
 2582TIP3    H129237   2.591   1.262  97.872  1.0297 -1.9013 -0.0435
 2582TIP3    H229238   2.740   1.252  97.848  1.5330 -0.5577  2.1921
 2583TIP3   OH229239   2.487   0.634   0.649 -0.2240  0.3419  0.4874
 2583TIP3    H129240   2.550   0.659   0.717 -0.3989 -0.0940  0.8163
 2583TIP3    H229241   2.404   0.623   0.696  0.2007 -2.6016  0.7082
 2584TIP3   OH229242   1.414   2.403  89.195 -0.1075 -0.2369  0.6353
 2584TIP3    H129243   1.398   2.490  89.231  1.7639 -0.0566  1.1119
 2584TIP3    H229244   1.441   2.419  89.104  0.5913 -0.2855  0.8323
 2585TIP3   OH229245   2.115   0.605  82.197  0.1491  0.0828  0.4838
 2585TIP3    H129246   2.113   0.514  82.167  0.2369  0.4807 -0.7914
 2585TIP3    H229247   2.199   0.613  82.242 -0.3614 -0.7640  1.6346
 2586TIP3   OH229248   1.814   2.257  88.618 -0.0237  0.1000  0.2013
 2586TIP3    H129249   1.756   2.198  88.569  0.6378 -0.0968 -0.3550
 2586TIP3    H229250   1.843   2.204  88.693 -1.3250  0.5193  1.0471
 2587TIP3   OH229251   2.521   0.811 106.856 -0.2486  0.0615  0.1609
 2587TIP3    H129252   2.485   0.805 106.768  1.3240 -1.2321 -0.4447
 2587TIP3    H229253   2.467   0.752 106.908 -0.2700 -0.3111 -0.2760
 2588TIP3   OH229254   1.343   2.196  13.948 -0.0107  0.2705 -0.1471
 2588TIP3    H129255   1.350   2.154  14.034 -1.1093 -1.9701 -1.0730
 2588TIP3    H229256   1.292   2.275  13.965  0.7930  0.4860  1.4412
 2589TIP3   OH229257   0.857   1.846  80.503  0.0715 -0.4425  0.2673
 2589TIP3    H129258   0.762   1.850  80.492 -0.1072 -1.3733  1.3470
 2589TIP3    H229259   0.886   1.938  80.497 -0.8674 -0.1733 -0.2320
 2590TIP3   OH229260   1.744   2.025 101.929  0.0136  0.1511  0.5216
 2590TIP3    H129261   1.741   1.993 101.839 -1.2703 -0.1084  0.6371
 2590TIP3    H229262   1.775   2.115 101.921  0.8961 -0.1885 -0.0690
 2591TIP3   OH229263   0.439   2.411  30.338  0.1768 -0.3069  0.2669
 2591TIP3    H129264   0.413   2.434  30.427 -0.6046 -1.8835  0.4770
 2591TIP3    H229265   0.531   2.388  30.345 -0.0595 -1.1402  0.8313
 2592TIP3   OH229266   2.456   1.921  92.424 -0.5199  0.0034  0.5189
 2592TIP3    H129267   2.389   1.852  92.419 -0.6758  0.1624  0.4042
 2592TIP3    H229268   2.432   1.982  92.354 -0.9795  0.7087  1.2782
 2593TIP3   OH229269   1.756   1.662 101.779 -0.1774 -0.2729  0.2359
 2593TIP3    H129270   1.700   1.710 101.841  1.7086  1.3343  0.7905
 2593TIP3    H229271   1.796   1.593 101.833  1.9140  1.4832  1.0630
 2594TIP3   OH229272   1.645   2.591  78.428 -0.0445 -0.3832  0.3355
 2594TIP3    H129273   1.630   2.532  78.354 -1.2030 -1.0919  1.1038
 2594TIP3    H229274   1.668   2.532  78.500 -0.9050  0.1209  1.0386
 2595TIP3   OH229275   0.767   2.173  11.428 -0.2435  0.1931  0.0286
 2595TIP3    H129276   0.747   2.132  11.343 -0.8971  1.0033 -0.2232
 2595TIP3    H229277   0.852   2.215  11.415 -1.0245  1.6013 -0.7209
 2596TIP3   OH229278   2.128   2.211  12.481 -0.3772  0.3704 -0.0299
 2596TIP3    H129279   2.153   2.122  12.507  0.4821  0.5570 -0.1691
 2596TIP3    H229280   2.200   2.239  12.424  0.6257  2.0632  1.9525
 2597TIP3   OH229281   1.164   0.669  83.752  0.0596 -0.0518 -0.2397
 2597TIP3    H129282   1.169   0.712  83.838 -0.4738  0.5349 -0.4850
 2597TIP3    H229283   1.117   0.588  83.768 -0.3130  0.2020 -0.0207
 2598TIP3   OH229284   0.040   1.296   7.799  0.0774  0.2138  0.3571
 2598TIP3    H129285   0.096   1.368   7.830 -1.1320  1.0322  0.6852
 2598TIP3    H229286   0.013   1.323   7.711 -3.0434  1.8200  1.6777
 2599TIP3   OH229287   0.592   2.092  28.026 -0.4430 -0.1391  0.1122
 2599TIP3    H129288   0.653   2.154  27.986 -0.3440 -0.2561  0.0830
 2599TIP3    H229289   0.523   2.081  27.961  0.1158 -0.9382 -0.3645
 2600TIP3   OH229290   2.247   1.172  27.515 -0.1856 -0.0967 -0.1352
 2600TIP3    H129291   2.258   1.252  27.566  0.4443 -0.6639  0.6439
 2600TIP3    H229292   2.213   1.108  27.578  0.1618 -0.6787 -0.5331
 2601TIP3   OH229293   2.367   0.591 110.235 -0.3476  0.8822 -0.4026
 2601TIP3    H129294   2.383   0.650 110.309 -3.5952  2.4988 -0.8201
 2601TIP3    H229295   2.292   0.538 110.261 -0.7473  0.5701 -2.0318
 2602TIP3   OH229296   1.082   0.013  83.789 -0.1368  0.5643 -0.1069
 2602TIP3    H129297   0.992   0.034  83.765 -0.5449 -0.5600  0.3376
 2602TIP3    H229298   1.134   0.040  83.713 -0.7794  1.6420 -0.1840
 2603TIP3   OH229299   2.103   2.604  40.829  0.3853 -0.0694 -0.0168
 2603TIP3    H129300   2.036   2.671  40.836  2.7585  2.5591 -0.6775
 2603TIP3    H229301   2.112   2.569  40.918 -0.3783  1.0154  0.5024
 2604TIP3   OH229302   2.380   2.118  98.942  0.0574 -0.0314  0.0391
 2604TIP3    H129303   2.428   2.112  99.024 -0.9233  0.5801  0.6871
 2604TIP3    H229304   2.299   2.165  98.965 -0.3830 -0.1391 -1.2042
 2605TIP3   OH229305   1.184   0.071  11.137 -0.1480  0.0572 -0.5148
 2605TIP3    H129306   1.246   0.141  11.158  0.4412 -0.4056 -0.6819
 2605TIP3    H229307   1.145   0.097  11.054 -1.3917  1.1583  0.3745
 2606TIP3   OH229308   1.956   0.171  37.063  0.3461 -0.0788  0.2028
 2606TIP3    H129309   1.910   0.167  37.147  0.1406  0.5998  0.1252
 2606TIP3    H229310   2.048   0.155  37.085  0.1168 -1.2563  0.3773
 2607TIP3   OH229311   2.257   1.668  24.831 -0.5203 -0.1050 -0.1015
 2607TIP3    H129312   2.230   1.596  24.889 -2.5390  1.5128  1.0941
 2607TIP3    H229313   2.213   1.650  24.748 -0.2737 -0.6987 -0.1144
 2608TIP3   OH229314   2.631   2.526 103.563  0.2948  0.0668 -0.1038
 2608TIP3    H129315   2.717   2.503 103.598  0.3846  0.7157  0.1330
 2608TIP3    H229316   2.610   2.456 103.501  1.0040 -0.0834 -0.1812
 2609TIP3   OH229317   0.380   0.647  83.954  0.1243  0.3485  0.3092
 2609TIP3    H129318   0.382   0.730  83.906 -0.1556 -0.9784 -2.1439
 2609TIP3    H229319   0.328   0.589  83.899  1.6946 -1.9517  1.1198
 2610TIP3   OH229320   1.797   0.751  48.572 -0.5558 -0.1700  0.8102
 2610TIP3    H129321   1.889   0.760  48.594 -0.2413 -0.3599 -0.3615
 2610TIP3    H229322   1.758   0.709  48.649  0.4916 -0.8271  0.9995
 2611TIP3   OH229323   1.937   0.632  29.574 -0.3877  0.1933  0.0875
 2611TIP3    H129324   1.850   0.596  29.555  0.0069 -1.2908  0.9022
 2611TIP3    H229325   1.941   0.636  29.670 -0.3325  2.3325  0.0411
 2612TIP3   OH229326   1.790   0.512  79.619  0.1280  0.6695 -0.5909
 2612TIP3    H129327   1.733   0.553  79.685 -0.5359  2.0929 -1.9795
 2612TIP3    H229328   1.737   0.511  79.540 -0.1922 -3.6542 -0.5680
 2613TIP3   OH229329   0.215   2.509  29.287 -0.6842 -0.4514 -0.0516
 2613TIP3    H129330   0.249   2.561  29.360 -1.8432 -1.3106  1.1476
 2613TIP3    H229331   0.123   2.495  29.309 -1.0482 -0.7906 -1.6674
 2614TIP3   OH229332   1.202   2.679  37.325  0.0041  0.2511 -0.3894
 2614TIP3    H129333   1.290   2.685  37.362 -0.4486  0.6584  0.6606
 2614TIP3    H229334   1.157   2.613  37.379  0.0195 -0.8770 -1.6986
 2615TIP3   OH229335   2.470   1.187  69.681  0.3173  0.5443  0.2118
 2615TIP3    H129336   2.461   1.149  69.593  1.1915 -0.6204  0.5873
 2615TIP3    H229337   2.382   1.215  69.704 -0.4134 -1.2778 -0.1366
 2616TIP3   OH229338   1.822   0.867  91.861 -0.1435 -0.0044 -0.0864
 2616TIP3    H129339   1.746   0.922  91.842 -0.6106 -0.7026 -0.2591
 2616TIP3    H229340   1.894   0.930  91.875 -0.4114  0.6159 -1.3450
 2617TIP3   OH229341   2.012   1.754  86.629 -0.2566  0.6806  0.8883
 2617TIP3    H129342   2.035   1.829  86.683 -0.6187  1.3136  0.1796
 2617TIP3    H229343   2.087   1.695  86.636  1.3966  2.4303 -0.8760
 2618TIP3   OH229344   0.601   2.314   3.807  0.3361  0.4257 -0.1787
 2618TIP3    H129345   0.538   2.384   3.793 -0.8073 -0.4194  0.5579
 2618TIP3    H229346   0.665   2.350   3.868 -0.2085  0.8493  0.1442
 2619TIP3   OH229347   0.432   2.160  94.278  0.4125  0.1336  0.2138
 2619TIP3    H129348   0.415   2.240  94.328  1.7017 -0.0710  1.0553
 2619TIP3    H229349   0.513   2.125  94.316  0.3593 -1.1010 -0.7262
 2620TIP3   OH229350   1.417   0.740  21.040 -0.2233  0.1914  0.2343
 2620TIP3    H129351   1.464   0.679  21.096 -0.2992  0.2097  0.3185
 2620TIP3    H229352   1.481   0.808  21.019  0.0885 -0.3309 -0.5064
 2621TIP3   OH229353   2.507   0.886  23.699 -0.4554 -0.3607 -0.7622
 2621TIP3    H129354   2.595   0.916  23.679 -0.6030 -0.1275 -1.0641
 2621TIP3    H229355   2.468   0.956  23.751 -0.6403 -0.2378 -1.0678
 2622TIP3   OH229356   0.546   0.396 110.510 -0.4852 -0.4031 -0.4408
 2622TIP3    H129357   0.513   0.479 110.475  1.8520  0.5902 -0.4558
 2622TIP3    H229358   0.624   0.377 110.458  0.7497 -1.0177  1.5035
 2623TIP3   OH229359   0.558   1.607  32.989  0.2496  0.5569 -0.3016
 2623TIP3    H129360   0.607   1.687  32.972  0.9440  0.0654 -0.6457
 2623TIP3    H229361   0.611   1.558  33.051 -0.9769  1.1009  1.2428
 2624TIP3   OH229362   2.518   2.239   6.167 -0.6741  0.1373 -0.8260
 2624TIP3    H129363   2.465   2.314   6.141  0.9857  2.2099  1.2929
 2624TIP3    H229364   2.482   2.211   6.251  1.3095  1.4608  0.5535
 2625TIP3   OH229365   0.075   1.656  84.160 -0.1652 -0.4707  0.0958
 2625TIP3    H129366   0.002   1.627  84.106  1.3879 -0.8218 -1.9447
 2625TIP3    H229367   0.034   1.706  84.231 -2.2789  1.7636 -2.4776
 2626TIP3   OH229368   1.039   0.237   3.600 -0.1544  0.1305 -0.5238
 2626TIP3    H129369   0.974   0.261   3.666  0.2625 -1.7853  0.6770
 2626TIP3    H229370   0.999   0.261   3.517 -2.3830 -0.8545  0.1697
 2627TIP3   OH229371   1.855   1.077  31.885 -0.4767 -0.1839 -0.7374
 2627TIP3    H129372   1.874   1.018  31.958  0.8931  0.3878 -0.5959
 2627TIP3    H229373   1.937   1.125  31.871 -1.7384  2.2520 -0.3499
 2628TIP3   OH229374   0.745   0.302  80.852  0.2572  0.4247  0.3322
 2628TIP3    H129375   0.723   0.248  80.928  0.3535 -0.5612 -0.3103
 2628TIP3    H229376   0.682   0.275  80.785 -0.8724  2.4230  0.5209
 2629TIP3   OH229377   0.334   1.848   5.115  0.2964 -0.2133 -0.0659
 2629TIP3    H129378   0.401   1.782   5.098 -0.0557 -0.7197  0.4581
 2629TIP3    H229379   0.314   1.839   5.208 -1.9394 -1.5280 -0.5630
 2630TIP3   OH229380   1.536   1.330  21.423 -0.2906 -0.0247 -0.0227
 2630TIP3    H129381   1.504   1.398  21.363 -1.1735  1.4136  1.9778
 2630TIP3    H229382   1.563   1.378  21.501  2.2918 -1.6927  0.2404
 2631TIP3   OH229383   1.582   2.538  86.983 -0.0377 -0.0317  0.4876
 2631TIP3    H129384   1.517   2.543  87.052  0.2579 -0.1786  0.7748
 2631TIP3    H229385   1.665   2.522  87.028  0.5809  2.3376  0.3418
 2632TIP3   OH229386   0.906   2.232  24.704 -0.4890 -0.0603 -0.5353
 2632TIP3    H129387   0.984   2.259  24.655  0.0387  0.4406  0.5556
 2632TIP3    H229388   0.880   2.150  24.663 -0.2018  0.4515 -1.8047
 2633TIP3   OH229389   1.429   1.671  16.756  0.3060 -0.1406  0.0816
 2633TIP3    H129390   1.406   1.607  16.690 -0.4810 -1.4462  1.5572
 2633TIP3    H229391   1.358   1.667  16.820 -0.6907  3.4382 -0.5531
 2634TIP3   OH229392   0.895   0.366  93.201  0.1602 -0.3189  0.1513
 2634TIP3    H129393   0.887   0.420  93.280 -2.8547 -0.5795  0.1251
 2634TIP3    H229394   0.843   0.412  93.136  2.8621  0.0686 -1.8959
 2635TIP3   OH229395   0.070   0.821  37.612  0.0386  0.1145  0.7118
 2635TIP3    H129396   0.022   0.845  37.533 -0.2229 -2.4677 -0.0157
 2635TIP3    H229397   0.068   0.725  37.613  2.0041  0.0107  2.6444
 2636TIP3   OH229398   1.253   2.339   9.919 -0.6063 -0.4606 -0.2917
 2636TIP3    H129399   1.288   2.393   9.989 -1.4571 -0.1802 -0.0718
 2636TIP3    H229400   1.162   2.322   9.945 -0.7044 -0.9819 -0.9514
 2637TIP3   OH229401   1.683   0.855  23.304  0.2770  0.1331  0.3921
 2637TIP3    H129402   1.768   0.882  23.338  0.0491 -0.1587  1.2166
 2637TIP3    H229403   1.670   0.909  23.225  0.5966  1.1813  1.0334
 2638TIP3   OH229404   0.928   0.320  81.209  0.0791 -0.9060  0.2740
 2638TIP3    H129405   1.003   0.347  81.157 -0.2092 -1.2842 -0.3523
 2638TIP3    H229406   0.864   0.391  81.198 -0.5340 -1.6328 -1.0709
 2639TIP3   OH229407   1.699   1.766 106.901  0.1312 -0.0276  0.5336
 2639TIP3    H129408   1.651   1.704 106.957  0.8789 -0.6041  0.5557
 2639TIP3    H229409   1.790   1.737 106.906  0.7358  1.9003  1.6242
 2640TIP3   OH229410   0.321   1.115 109.365 -0.0017  0.5320 -0.1208
 2640TIP3    H129411   0.372   1.063 109.427 -0.7813 -0.5163 -0.3371
 2640TIP3    H229412   0.286   1.188 109.417 -0.9575 -0.5415  0.7876
 2641TIP3   OH229413   1.431   1.597  81.507  0.0092 -0.2410 -0.2051
 2641TIP3    H129414   1.389   1.511  81.504  1.0400 -0.7647 -0.2036
 2641TIP3    H229415   1.525   1.578  81.499  0.4096  0.7437  1.6025
 2642TIP3   OH229416   1.108   0.386  89.731  0.8214  0.1074  0.2320
 2642TIP3    H129417   1.068   0.473  89.728 -1.1170 -0.7442 -0.0570
 2642TIP3    H229418   1.175   0.388  89.662  2.7457  2.1881  1.9806
 2643TIP3   OH229419   1.132   2.327  16.895 -0.1268  0.7273 -0.0923
 2643TIP3    H129420   1.099   2.413  16.870  2.5098  1.4273 -1.5213
 2643TIP3    H229421   1.180   2.296  16.818  3.3664  0.3168  2.0363
 2644TIP3   OH229422   1.208   1.049  36.889  0.3611  0.1969  0.1829
 2644TIP3    H129423   1.264   1.024  36.962  1.5696 -0.7816 -1.0159
 2644TIP3    H229424   1.123   1.069  36.929  0.0214 -3.2809  1.6178
 2645TIP3   OH229425   0.705   0.783  67.934  0.9519  0.8525 -0.1487
 2645TIP3    H129426   0.678   0.861  67.885  1.5092  1.4004  0.3863
 2645TIP3    H229427   0.628   0.759  67.986  1.1075  1.7209  0.5135
 2646TIP3   OH229428   0.988   0.955  64.092  0.2433  0.0934  0.2605
 2646TIP3    H129429   1.069   0.971  64.140 -0.3582  0.9340  1.0240
 2646TIP3    H229430   0.932   1.029  64.113 -0.8644 -0.6499  0.0329
 2647TIP3   OH229431   0.139   0.886   9.353  0.5945 -0.2499 -0.0686
 2647TIP3    H129432   0.051   0.919   9.370  0.0353 -1.9846  0.6021
 2647TIP3    H229433   0.143   0.879   9.257 -0.3303 -0.9481 -0.0750
 2648TIP3   OH229434   1.071   1.485   4.018  0.0589 -0.3176  0.1096
 2648TIP3    H129435   1.138   1.548   4.043 -0.0490  0.1595 -0.7708
 2648TIP3    H229436   1.024   1.526   3.945 -1.4691 -0.4623  0.9626
 2649TIP3   OH229437   0.162   0.853  21.544  0.1081  0.4711  0.1209
 2649TIP3    H129438   0.074   0.889  21.559 -0.1932 -0.0412 -0.3615
 2649TIP3    H229439   0.208   0.867  21.627 -0.0935  1.6788  0.0459
 2650TIP3   OH229440   1.938   0.844 103.497 -0.1300  0.1785 -0.1799
 2650TIP3    H129441   1.914   0.766 103.547 -2.1945  1.1050  0.3805
 2650TIP3    H229442   2.032   0.854 103.511  0.0163 -1.6959  0.4514
 2651TIP3   OH229443   2.470   1.224  33.691  0.2908  0.5085  0.8846
 2651TIP3    H129444   2.545   1.230  33.750  0.4439  0.6348  0.6798
 2651TIP3    H229445   2.406   1.169  33.738  0.1844  1.0703  1.4040
 2652TIP3   OH229446   1.610   2.666  36.376  0.0860 -0.4304 -0.4349
 2652TIP3    H129447   1.610   2.720  36.455  0.1999 -0.7805 -0.1934
 2652TIP3    H229448   1.674   2.597  36.394  0.3662 -0.3154 -0.9662
 2653TIP3   OH229449   0.804   0.578  80.058  0.2156 -0.0420 -0.1604
 2653TIP3    H129450   0.819   0.672  80.053  2.7938 -0.3408  0.4874
 2653TIP3    H229451   0.817   0.546  79.969 -3.3624  0.4270 -0.9973
 2654TIP3   OH229452   2.567   1.652  86.482 -0.2581 -0.4612 -0.2333
 2654TIP3    H129453   2.558   1.707  86.404 -0.7170 -1.6257 -1.0356
 2654TIP3    H229454   2.661   1.647  86.496 -0.2325  1.7746  0.8036
 2655TIP3   OH229455   1.403   0.741  94.997 -0.3713  0.0757  0.3316
 2655TIP3    H129456   1.323   0.701  94.966  0.0429  0.1756 -0.8959
 2655TIP3    H229457   1.473   0.682  94.969  0.2988  1.8111 -1.9782
 2656TIP3   OH229458   0.608   0.465  13.919  0.2767  0.0281 -0.0561
 2656TIP3    H129459   0.568   0.543  13.880  1.1823 -0.6089 -2.4252
 2656TIP3    H229460   0.555   0.392  13.886 -0.7468 -0.4422  2.3736
 2657TIP3   OH229461   0.659   0.647  98.999  0.6925  0.1960  0.3080
 2657TIP3    H129462   0.684   0.619  98.910  0.4641 -0.5487  0.4715
 2657TIP3    H229463   0.661   0.566  99.050  1.7196  0.7768  1.2004
 2658TIP3   OH229464   0.366   1.908  12.949 -0.0003  0.0041  0.1800
 2658TIP3    H129465   0.414   1.826  12.941 -0.0665 -0.0559  0.3732
 2658TIP3    H229466   0.306   1.909  12.875 -0.4038 -0.3956  0.4940
 2659TIP3   OH229467   0.907   1.554  81.305 -0.1370 -0.0169  0.3395
 2659TIP3    H129468   0.995   1.516  81.313  0.9838  2.0747 -1.1268
 2659TIP3    H229469   0.860   1.522  81.382  2.4319  0.1356  2.1174
 2660TIP3   OH229470   1.797   0.948 110.579 -0.1464 -0.4356 -0.2854
 2660TIP3    H129471   1.785   0.879 110.644 -1.5779 -0.6751 -0.7675
 2660TIP3    H229472   1.857   0.910 110.515  3.7887  0.8200  2.2449
 2661TIP3   OH229473   1.042   1.946  98.786 -0.0649  0.1469  0.6256
 2661TIP3    H129474   1.015   1.889  98.714  1.3005 -0.3887  0.5101
 2661TIP3    H229475   0.960   1.984  98.818 -0.7209  0.2556 -1.0735
 2662TIP3   OH229476   1.583   1.387 109.073  0.5204  0.0275  0.2581
 2662TIP3    H129477   1.657   1.447 109.083  0.3448  0.2137  0.4560
 2662TIP3    H229478   1.534   1.396 109.155 -0.3291  0.7485 -0.3023
 2663TIP3   OH229479   0.853   1.780  28.555 -0.1864  0.3405 -0.4047
 2663TIP3    H129480   0.869   1.858  28.608 -1.3235  0.9130 -0.8666
 2663TIP3    H229481   0.851   1.812  28.465  0.4059 -0.4129 -0.7071
 2664TIP3   OH229482   1.417   0.269  32.792 -0.2133 -0.1249  0.2551
 2664TIP3    H129483   1.358   0.336  32.825 -0.6657 -0.1511 -0.4840
 2664TIP3    H229484   1.480   0.255  32.863  0.4550  1.7366  0.0778
 2665TIP3   OH229485   0.890   2.678  20.005  0.2999 -0.1229 -0.2403
 2665TIP3    H129486   0.821   2.684  20.071  0.2369 -0.0172 -0.3143
 2665TIP3    H229487   0.883   2.760  19.956  2.2127  1.1400  1.4445
 2666TIP3   OH229488   0.892   1.675 106.051 -0.2524 -1.0756 -0.2723
 2666TIP3    H129489   0.856   1.587 106.066  0.0134 -1.1010  0.2396
 2666TIP3    H229490   0.865   1.725 106.128  1.0303 -1.1722  0.2583
 2667TIP3   OH229491   1.666   0.005  14.953  0.3894 -0.3530 -0.2224
 2667TIP3    H129492   1.627   0.047  15.029  0.8950 -0.0546 -0.1226
 2667TIP3    H229493   1.601   0.015  14.884  0.3267  0.2260 -0.0835
 2668TIP3   OH229494   0.752   1.220  38.013 -0.0085  0.0011  0.3130
 2668TIP3    H129495   0.752   1.127  38.035  1.0389  0.1351  0.9578
 2668TIP3    H229496   0.677   1.231  37.955 -0.7761 -1.0504  1.0668
 2669TIP3   OH229497   1.046   1.624  26.604  0.1111  0.1236 -0.5401
 2669TIP3    H129498   1.025   1.708  26.646 -3.2719 -1.1717  0.6681
 2669TIP3    H229499   1.126   1.596  26.647  0.0529  1.6682  0.6866
 2670TIP3   OH229500   0.392   0.528  95.351  0.6167 -0.1208 -0.1366
 2670TIP3    H129501   0.331   0.467  95.393  1.3783  0.8025  2.4759
 2670TIP3    H229502   0.394   0.604  95.409  0.9228  1.7543 -2.4663
 2671TIP3   OH229503   1.887   1.542  78.075  0.3012 -0.2365 -0.0115
 2671TIP3    H129504   1.884   1.460  78.124 -1.5250  0.6558  1.5105
 2671TIP3    H229505   1.840   1.524  77.994 -0.0991 -0.7109  0.3203
 2672TIP3   OH229506   1.443   0.140  14.798  0.3294 -0.4362  0.5847
 2672TIP3    H129507   1.478   0.213  14.849 -0.8922 -0.0154  0.8583
 2672TIP3    H229508   1.409   0.180  14.718 -0.4751 -0.6751  0.7997
 2673TIP3   OH229509   0.134   2.551  95.605 -0.0743  0.3930  0.1288
 2673TIP3    H129510   0.197   2.623  95.596  1.5330 -0.8427  0.9671
 2673TIP3    H229511   0.185   2.472  95.591 -1.6660 -0.6443 -0.1122
 2674TIP3   OH229512   1.216   2.683  99.940 -0.1806  0.4724 -0.2619
 2674TIP3    H129513   1.277   2.733  99.887 -0.8378  0.9970 -0.5326
 2674TIP3    H229514   1.200   2.603  99.889  1.8362 -0.6593  0.7448
 2675TIP3   OH229515   2.053   0.856  24.086 -0.4088  0.4658  0.2641
 2675TIP3    H129516   1.957   0.863  24.087 -0.5031 -0.3215 -0.9448
 2675TIP3    H229517   2.081   0.898  24.167 -1.8213  0.1287  0.9566
 2676TIP3   OH229518   0.555   0.126  77.061 -0.4598 -0.2084  0.1431
 2676TIP3    H129519   0.582   0.214  77.090  2.4061 -0.1413 -2.1878
 2676TIP3    H229520   0.534   0.080  77.142 -0.8137  2.2210  1.5582
 2677TIP3   OH229521   0.784   0.521 107.158 -0.0736 -0.5340  0.5477
 2677TIP3    H129522   0.865   0.558 107.122 -0.7616 -0.1360 -0.6766
 2677TIP3    H229523   0.813   0.462 107.227  1.2586 -0.4186  0.1193
 2678TIP3   OH229524   0.156   2.017  23.815  0.2013  0.1577  0.1361
 2678TIP3    H129525   0.118   2.102  23.838  0.8146  0.4772 -0.0058
 2678TIP3    H229526   0.250   2.034  23.808  0.1267 -0.0776 -1.9120
 2679TIP3   OH229527   2.647   1.853  93.925 -0.3965 -0.3770  0.0194
 2679TIP3    H129528   2.725   1.831  93.875 -0.1623  1.7209 -0.6353
 2679TIP3    H229529   2.575   1.850  93.861 -0.1523  1.9262 -0.4701
 2680TIP3   OH229530   0.896   0.480  68.332  0.4576 -0.3410  0.1979
 2680TIP3    H129531   0.909   0.386  68.344 -0.2446 -0.5798 -0.7325
 2680TIP3    H229532   0.917   0.495  68.240 -3.0702 -0.3345 -0.7468
 2681TIP3   OH229533   1.672   1.990  75.340  0.4057  0.3069 -0.9100
 2681TIP3    H129534   1.593   2.043  75.347  1.2772  1.5814 -0.1714
 2681TIP3    H229535   1.743   2.052  75.356  1.5666 -0.7688 -1.7219
 2682TIP3   OH229536   1.634   2.290 101.656  0.0274  0.4774  0.6973
 2682TIP3    H129537   1.544   2.276 101.685  0.3663 -0.1793  1.4610
 2682TIP3    H229538   1.670   2.202 101.646  0.0774  0.6778 -1.3078
 2683TIP3   OH229539   2.619   1.026 104.181  0.3991  0.5304  0.6405
 2683TIP3    H129540   2.611   1.046 104.274  0.8587 -1.0743  1.0661
 2683TIP3    H229541   2.706   0.985 104.172 -0.5044 -1.3518 -0.0649
 2684TIP3   OH229542   2.432   0.894  69.711  0.4009 -0.4352 -0.1090
 2684TIP3    H129543   2.449   0.970  69.766  0.4863 -0.2995 -0.3244
 2684TIP3    H229544   2.398   0.931  69.629 -0.4247 -0.6684  0.1138
 2685TIP3   OH229545   2.483   1.545 111.738 -0.3887  0.0803  0.2232
 2685TIP3    H129546   2.445   1.489 111.670  0.9454  0.1004 -0.5651
 2685TIP3    H229547   2.577   1.548 111.717  0.1119 -0.1930  2.2728
 2686TIP3   OH229548   2.250   1.747  75.340 -0.1373 -0.2397 -0.0185
 2686TIP3    H129549   2.195   1.823  75.320  2.5292  1.7930 -0.1566
 2686TIP3    H229550   2.279   1.715  75.254 -0.7242 -1.0350  0.0676
 2687TIP3   OH229551   1.239   0.337 102.445  0.2936 -0.0400 -0.0841
 2687TIP3    H129552   1.293   0.328 102.523  0.0284 -0.3027  0.0754
 2687TIP3    H229553   1.230   0.431 102.431 -0.4064  0.0247  0.7387
 2688TIP3   OH229554   0.063   2.621  94.311  0.1933  0.0930  0.0439
 2688TIP3    H129555  -0.027   2.606  94.281  0.5403 -0.5872 -0.6794
 2688TIP3    H229556   0.057   2.614  94.407 -0.0364 -3.0358 -0.0659
 2689TIP3   OH229557   0.063   1.036  22.312 -0.1966  0.4244 -0.0076
 2689TIP3    H129558   0.112   1.111  22.344  0.0942  0.2882 -0.1383
 2689TIP3    H229559   0.125   0.964  22.313 -0.8422 -0.1594  1.4981
 2690TIP3   OH229560   1.385   0.589  63.820 -0.4049  0.3540  0.7700
 2690TIP3    H129561   1.391   0.667  63.874 -2.7755  0.5051  0.9115
 2690TIP3    H229562   1.410   0.517  63.879  0.4673  0.8378  1.0118
 2691TIP3   OH229563   1.789   0.544 100.558  0.2422 -0.1060 -0.1395
 2691TIP3    H129564   1.840   0.554 100.478  0.6698  0.4632  0.1866
 2691TIP3    H229565   1.698   0.548 100.530  0.3843 -0.2957 -0.6435
 2692TIP3   OH229566   1.782   1.256   9.597 -0.7209  0.0298  0.2741
 2692TIP3    H129567   1.742   1.264   9.510  0.6995  1.8830 -0.3033
 2692TIP3    H229568   1.868   1.216   9.579 -1.3165 -1.7484  1.1759
 2693TIP3   OH229569   0.976   0.077  91.134  0.1932  0.1877  0.4556
 2693TIP3    H129570   1.038   0.007  91.115  1.4239  0.9600  1.4522
 2693TIP3    H229571   0.903   0.061  91.075  0.6753 -1.6152  0.2804
 2694TIP3   OH229572   0.255   0.633  24.679 -0.0822 -0.0209 -0.1469
 2694TIP3    H129573   0.283   0.714  24.638  0.7163 -0.5762 -0.7302
 2694TIP3    H229574   0.204   0.588  24.612  0.1756 -0.3762 -0.1044
 2695TIP3   OH229575   0.956   0.737 104.563  0.1134 -0.0235 -0.2749
 2695TIP3    H129576   0.942   0.702 104.474 -1.4755  0.9495 -0.4422
 2695TIP3    H229577   0.941   0.831 104.555  0.1968  0.1163  0.9812
 2696TIP3   OH229578   2.637   0.909  39.653  0.2171 -0.0230 -0.5159
 2696TIP3    H129579   2.677   0.846  39.713 -0.5548 -0.4390 -0.4207
 2696TIP3    H229580   2.552   0.929  39.692 -0.5229 -0.6892 -1.7024
 2697TIP3   OH229581   2.427   1.797 102.229  0.3348 -0.1246  0.1020
 2697TIP3    H129582   2.420   1.701 102.231  0.9964 -0.1787  0.0176
 2697TIP3    H229583   2.519   1.815 102.247 -0.2005  0.6056  2.4569
 2698TIP3   OH229584   0.160   1.061  26.347 -0.0024 -0.1123  0.3957
 2698TIP3    H129585   0.253   1.084  26.351  0.3393 -0.0421 -3.4976
 2698TIP3    H229586   0.114   1.144  26.335 -0.0739 -0.3444 -1.3313
 2699TIP3   OH229587   2.222   2.172  68.383 -0.0961  0.2466 -0.0536
 2699TIP3    H129588   2.209   2.132  68.297 -2.1856 -0.3967  0.5109
 2699TIP3    H229589   2.265   2.255  68.364  0.1060 -0.1783 -1.6526
 2700TIP3   OH229590   0.892   0.612   7.609  0.4206  0.0687  0.1545
 2700TIP3    H129591   0.942   0.668   7.551 -2.5615  0.6701 -2.0852
 2700TIP3    H229592   0.909   0.523   7.579 -0.1515  0.2978 -0.8809
 2701TIP3   OH229593   2.409   0.987   3.381  0.5242 -0.2824 -0.0155
 2701TIP3    H129594   2.369   0.914   3.428 -0.7491  0.1847 -0.3159
 2701TIP3    H229595   2.334   1.036   3.347  1.3885  0.4107 -0.9549
 2702TIP3   OH229596   0.134   1.418 103.761 -0.1765  0.5129  0.0508
 2702TIP3    H129597   0.098   1.402 103.673 -0.1247  1.0589 -0.0715
 2702TIP3    H229598   0.133   1.332 103.802 -2.8402  0.6630  0.4980
 2703TIP3   OH229599   2.344   1.265  98.707 -0.5097  0.0961  0.4245
 2703TIP3    H129600   2.372   1.177  98.683  1.2707  0.8421 -0.4183
 2703TIP3    H229601   2.253   1.255  98.734 -0.4355 -1.9437  0.0490
 2704TIP3   OH229602   1.378   0.999  11.734 -0.3802 -0.1935 -0.0997
 2704TIP3    H129603   1.351   0.962  11.818 -0.7504  1.4411  0.5445
 2704TIP3    H229604   1.471   1.017  11.745 -0.7342  1.4269  0.5606
 2705TIP3   OH229605   0.566   0.378  63.500 -0.4438  0.5563  0.5239
 2705TIP3    H129606   0.563   0.289  63.534  0.4307  0.8147  1.3519
 2705TIP3    H229607   0.644   0.379  63.445 -1.0961  0.5104 -0.4153
 2706TIP3   OH229608   1.921   1.969  85.089  0.1433 -0.4722  0.4064
 2706TIP3    H129609   1.941   1.937  85.177 -0.3066 -1.6420  0.0976
 2706TIP3    H229610   1.860   2.042  85.103  2.0914  1.0990  1.1875
 2707TIP3   OH229611   1.093   1.675  37.640  0.1447 -0.1723 -0.6364
 2707TIP3    H129612   1.186   1.653  37.647  0.3207  0.5616 -0.5598
 2707TIP3    H229613   1.087   1.764  37.674 -0.6312 -0.3080 -0.3878
 2708TIP3   OH229614   0.417   2.564  69.870 -0.7503  0.2619 -0.8519
 2708TIP3    H129615   0.443   2.490  69.814  0.1198 -1.4530  1.6138
 2708TIP3    H229616   0.322   2.561  69.871 -0.7384 -0.4377 -1.2999
 2709TIP3   OH229617   2.675   0.493  12.244  0.0243  0.1340 -0.1254
 2709TIP3    H129618   2.759   0.522  12.208 -0.0400 -0.0167 -0.4050
 2709TIP3    H229619   2.676   0.398  12.233  0.2998  0.0063  0.9321
 2710TIP3   OH229620   1.832   2.023  20.423 -0.3842 -0.4170 -0.1276
 2710TIP3    H129621   1.753   2.076  20.435 -0.2688 -0.4242  0.7181
 2710TIP3    H229622   1.898   2.085  20.393 -0.1849 -0.0116  1.0910
 2711TIP3   OH229623   1.700   0.490  20.875  0.3743 -0.1179  0.3645
 2711TIP3    H129624   1.751   0.459  20.800 -0.5238  0.7490 -0.6303
 2711TIP3    H229625   1.747   0.456  20.951  2.0192  0.0351 -0.5324
 2712TIP3   OH229626   0.340   1.055  30.370  0.1492  0.3219 -0.0820
 2712TIP3    H129627   0.347   1.143  30.334  1.3148 -0.0556 -0.8651
 2712TIP3    H229628   0.426   1.016  30.353  0.2727 -0.3570  1.9027
 2713TIP3   OH229629   0.214   1.244  22.449  0.1029 -0.3157  0.2828
 2713TIP3    H129630   0.280   1.200  22.502  0.8442  0.7120  0.2430
 2713TIP3    H229631   0.198   1.327  22.494  1.9341  1.3353 -1.8652
 2714TIP3   OH229632   1.643   0.108  31.871 -0.1736 -0.2624  0.1835
 2714TIP3    H129633   1.597   0.053  31.934  0.5156 -1.7924 -0.5662
 2714TIP3    H229634   1.579   0.123  31.801 -0.9318  1.4222  1.1855
 2715TIP3   OH229635   0.391   1.857  75.665  0.4936  0.6539  0.4446
 2715TIP3    H129636   0.382   1.949  75.688  0.2659  0.6284  0.4584
 2715TIP3    H229637   0.353   1.810  75.739  1.1105  0.5325  0.6981
 2716TIP3   OH229638   1.134   0.817  13.558 -0.1963  0.2560 -0.1719
 2716TIP3    H129639   1.101   0.727  13.545  0.1876  0.2242 -0.9862
 2716TIP3    H229640   1.184   0.813  13.639  1.5184 -0.7720 -1.2187
 2717TIP3   OH229641   1.088   1.428  26.083 -0.3254  0.2139  0.1018
 2717TIP3    H129642   1.123   1.459  26.167  0.7613  1.6753 -0.8486
 2717TIP3    H229643   1.148   1.357  26.058 -1.9079 -1.7353  1.5328
 2718TIP3   OH229644   2.683   1.186  79.696  0.5147 -0.4065  0.0785
 2718TIP3    H129645   2.666   1.261  79.638 -0.5936 -0.6458  0.0840
 2718TIP3    H229646   2.607   1.184  79.755  1.1707 -0.7452  0.9365
 2719TIP3   OH229647   0.112   2.595 109.515 -0.0084  0.6826 -0.0520
 2719TIP3    H129648   0.205   2.590 109.539  0.1842  2.8525 -0.0664
 2719TIP3    H229649   0.101   2.533 109.444  1.3246  0.0680  0.2526
 2720TIP3   OH229650   0.471   2.066 103.107 -0.7456 -0.3336  0.2252
 2720TIP3    H129651   0.517   2.110 103.178  0.4575 -0.7985 -0.2462
 2720TIP3    H229652   0.504   1.976 103.109  0.2686 -0.0434 -1.7154
 2721TIP3   OH229653   0.616   1.609   3.686  0.0075  0.4558  0.1483
 2721TIP3    H129654   0.658   1.523   3.691  0.6452  0.7059 -0.7655
 2721TIP3    H229655   0.525   1.592   3.712 -0.5087 -0.9576 -2.2386
 2722TIP3   OH229656   0.369   0.500   2.620  0.0561  0.5320  0.3305
 2722TIP3    H129657   0.391   0.553   2.697  0.0334  1.3471 -0.2095
 2722TIP3    H229658   0.279   0.470   2.637 -0.7547  2.4552 -0.2920
 2723TIP3   OH229659   2.444   0.303  16.308 -0.1478  0.6685 -0.0134
 2723TIP3    H129660   2.385   0.266  16.242 -0.9626  2.0404 -0.1059
 2723TIP3    H229661   2.385   0.329  16.379  0.5564  0.5704  0.6100
 2724TIP3   OH229662   1.944   0.777  74.326 -0.4594 -0.5039  0.2955
 2724TIP3    H129663   1.896   0.816  74.398 -0.7938  0.2414 -0.3137
 2724TIP3    H229664   1.883   0.779  74.252  0.6084  0.8016 -0.5987
 2725TIP3   OH229665   1.932   1.431  48.343  0.9848  0.0135 -0.6464
 2725TIP3    H129666   1.968   1.513  48.311  1.5693 -0.4625 -1.2201
 2725TIP3    H229667   1.844   1.454  48.373  1.8234  1.2523  1.0503
 2726TIP3   OH229668   0.407   1.323  33.799 -0.2886 -0.2933  0.1373
 2726TIP3    H129669   0.440   1.402  33.842 -0.6400 -0.7567  1.3007
 2726TIP3    H229670   0.391   1.261  33.871  0.2724 -1.5363 -0.7670
 2727TIP3   OH229671   2.332   2.072 110.072  0.4433  0.8351  0.1876
 2727TIP3    H129672   2.324   1.989 110.120  2.6016  0.0702 -0.6310
 2727TIP3    H229673   2.315   2.140 110.137 -1.8901 -0.2245  0.7747
 2728TIP3   OH229674   1.001   1.454  79.562 -0.6533 -0.4287 -0.2944
 2728TIP3    H129675   1.017   1.370  79.519  3.5703  0.3435 -0.6396
 2728TIP3    H229676   1.068   1.459  79.630 -2.6945  1.4523  1.7629
 2729TIP3   OH229677   1.583   1.911  76.495 -0.3587  0.3349 -0.2957
 2729TIP3    H129678   1.629   1.827  76.500 -0.9227  0.0842  1.5182
 2729TIP3    H229679   1.652   1.975  76.478  0.5590 -0.1622  1.2999
 2730TIP3   OH229680   1.263   1.106  17.105 -0.1062 -0.2956  0.5624
 2730TIP3    H129681   1.212   1.091  17.184  0.3734 -1.4752  0.6679
 2730TIP3    H229682   1.263   1.201  17.094 -1.5125 -0.2166  1.0783
 2731TIP3   OH229683   1.907   0.083   0.990 -0.3786  0.4121 -0.2552
 2731TIP3    H129684   1.866   0.012   0.942 -0.0182 -0.0086  0.0491
 2731TIP3    H229685   1.851   0.159   0.974 -0.0719  0.3668 -1.6045
 2732TIP3   OH229686   1.487   0.336  29.639  0.4304 -0.0323  0.6822
 2732TIP3    H129687   1.392   0.325  29.628  0.6021 -1.1025  0.1983
 2732TIP3    H229688   1.498   0.429  29.660 -0.5535  0.5472 -1.2114
 2733TIP3   OH229689   2.470   0.440  80.320  0.3710 -0.2206  0.5237
 2733TIP3    H129690   2.468   0.357  80.273 -0.0839  1.0469 -1.8458
 2733TIP3    H229691   2.526   0.423  80.396  1.3115 -2.3506 -0.5471
 2734TIP3   OH229692   2.457   2.585  33.412 -0.2985 -0.0146 -0.3156
 2734TIP3    H129693   2.432   2.518  33.476  0.2883  0.1099  0.0506
 2734TIP3    H229694   2.403   2.567  33.335  0.1964 -1.2022 -0.3950
 2735TIP3   OH229695   0.482   2.451 100.787 -0.1697 -0.2148 -0.1828
 2735TIP3    H129696   0.411   2.513 100.803 -0.1386 -0.2798  0.2169
 2735TIP3    H229697   0.552   2.504 100.749 -0.6076 -0.2401 -1.0442
 2736TIP3   OH229698   2.480   1.725   8.601 -0.1154 -0.1425 -1.0219
 2736TIP3    H129699   2.386   1.742   8.586 -0.8400 -2.4704  0.4138
 2736TIP3    H229700   2.492   1.634   8.575  1.1236 -0.7082  1.3329
 2737TIP3   OH229701   0.807   2.579  19.483  0.3147 -0.7453 -0.1618
 2737TIP3    H129702   0.776   2.651  19.428  0.6811 -0.3956  0.0837
 2737TIP3    H229703   0.902   2.579  19.470  0.4900 -0.1879  1.0342
 2738TIP3   OH229704   0.512   1.553  26.800 -0.0772 -0.1297 -0.1609
 2738TIP3    H129705   0.452   1.525  26.869  1.6885  2.3780  2.6621
 2738TIP3    H229706   0.462   1.617  26.749 -0.5272  0.2447  0.7256
 2739TIP3   OH229707   0.111   1.839 106.013 -0.2035  0.8880  0.7626
 2739TIP3    H129708   0.048   1.895 106.058  0.4371  1.6952  0.6927
 2739TIP3    H229709   0.166   1.804 106.083 -1.1197 -0.3582  0.8870
 2740TIP3   OH229710   2.492   1.366  18.772 -0.2568  0.0228  0.6363
 2740TIP3    H129711   2.547   1.424  18.720  0.3081  0.0400  1.2425
 2740TIP3    H229712   2.414   1.418  18.793 -0.6978 -0.1335 -0.5622
 2741TIP3   OH229713   1.798   2.162  81.237 -0.2973  0.1510  0.3697
 2741TIP3    H129714   1.883   2.153  81.192  0.6079  0.7400  1.8905
 2741TIP3    H229715   1.739   2.106  81.187  1.3057 -1.3673  0.0594
 2742TIP3   OH229716   2.123   0.745  95.930  0.1145  0.3012  0.0973
 2742TIP3    H129717   2.147   0.658  95.962  0.1633 -0.0513 -0.8845
 2742TIP3    H229718   2.193   0.768  95.869 -1.3876 -0.2615 -1.9463
 2743TIP3   OH229719   0.941   0.429   4.325 -0.1488  0.0290 -0.0160
 2743TIP3    H129720   0.966   0.520   4.343 -0.1019  0.0288 -0.0787
 2743TIP3    H229721   0.851   0.436   4.292 -0.8326 -0.1193  1.7560
 2744TIP3   OH229722   2.460   1.515  78.968 -0.8872 -0.0532 -0.2927
 2744TIP3    H129723   2.532   1.481  79.021 -2.8822 -2.6929  0.9570
 2744TIP3    H229724   2.427   1.591  79.016  0.4036  0.5786 -0.3799
 2745TIP3   OH229725   1.263   1.733 106.631  0.4943 -0.4184 -0.3694
 2745TIP3    H129726   1.355   1.732 106.658  0.3110 -1.2732  0.2617
 2745TIP3    H229727   1.237   1.825 106.641  0.9842 -0.3585  0.5183
 2746TIP3   OH229728   1.240   0.292   1.163 -0.0902 -0.2641  0.0450
 2746TIP3    H129729   1.158   0.339   1.177 -0.0220 -0.0480 -0.2742
 2746TIP3    H229730   1.284   0.341   1.094  0.0871 -0.6629 -0.1263
 2747TIP3   OH229731   2.070   1.373 106.972 -0.4985  0.3556 -0.2715
 2747TIP3    H129732   2.136   1.322 106.926  0.5763  2.0289 -0.6505
 2747TIP3    H229733   2.091   1.362 107.064  0.6248  1.2127 -0.3946
 2748TIP3   OH229734   0.951   2.128  82.123 -0.1767  0.1895 -0.3065
 2748TIP3    H129735   0.929   2.045  82.166 -1.8054 -0.3557 -2.0381
 2748TIP3    H229736   0.976   2.186  82.194 -1.3947 -1.0642  1.2238
 2749TIP3   OH229737   1.158   0.678  81.728 -0.2731 -0.7132 -0.2995
 2749TIP3    H129738   1.228   0.634  81.681 -0.4508 -1.0353 -0.2595
 2749TIP3    H229739   1.077   0.643  81.691 -0.4499  0.7917 -1.4427
 2750TIP3   OH229740   0.291   0.445  97.598  0.2649 -0.1148 -0.2771
 2750TIP3    H129741   0.346   0.448  97.520  1.3150 -1.1268  0.3914
 2750TIP3    H229742   0.286   0.352  97.621  0.8134  0.2321  1.4206
 2751TIP3   OH229743   1.601   0.949   3.374 -0.2615 -0.4566  0.1035
 2751TIP3    H129744   1.589   0.869   3.425  0.0239 -0.5638  0.0056
 2751TIP3    H229745   1.692   0.974   3.389 -0.0122 -0.7959 -0.7740
 2752TIP3   OH229746   0.382   1.263  84.070 -0.2500  0.4004 -0.1093
 2752TIP3    H129747   0.371   1.211  83.990  0.7463  0.4899 -0.3180
 2752TIP3    H229748   0.353   1.350  84.046  0.5314  0.5492 -0.5376
 2753TIP3   OH229749   0.714   0.732  13.124 -0.6004  0.1148  0.2254
 2753TIP3    H129750   0.795   0.759  13.081  0.4817  1.1000  2.6732
 2753TIP3    H229751   0.672   0.814  13.149 -0.8362 -0.3779  1.5566
 2754TIP3   OH229752   1.583   1.730  14.947  0.2369  0.0059 -0.0045
 2754TIP3    H129753   1.637   1.677  14.890  1.5926  0.6613  0.6275
 2754TIP3    H229754   1.620   1.818  14.942 -0.8755  0.5220  0.3193
 2755TIP3   OH229755   0.677   0.766  69.155 -0.4405 -0.0476 -0.0612
 2755TIP3    H129756   0.589   0.775  69.118 -0.1557 -1.8993 -1.3818
 2755TIP3    H229757   0.734   0.807  69.091 -0.3044  1.1329  0.7834
 2756TIP3   OH229758   0.834   0.636  95.932 -0.0592 -0.2325 -0.4384
 2756TIP3    H129759   0.909   0.575  95.934 -0.5229 -0.8024  0.0625
 2756TIP3    H229760   0.873   0.721  95.912  0.7545 -0.4904 -0.0217
 2757TIP3   OH229761   1.522   2.015  15.192 -0.4519 -0.5050 -0.7784
 2757TIP3    H129762   1.516   1.932  15.240 -0.3396 -0.3574 -0.5035
 2757TIP3    H229763   1.431   2.036  15.170 -0.4787 -0.7097 -0.8622
 2758TIP3   OH229764   1.548   2.017  22.807  0.1692  0.4491  0.0247
 2758TIP3    H129765   1.584   2.078  22.743  1.1160 -1.7569 -1.6952
 2758TIP3    H229766   1.453   2.020  22.791  0.2375  1.1859 -0.2840
 2759TIP3   OH229767   0.875   2.260  23.176  0.9920 -0.8671  0.5191
 2759TIP3    H129768   0.883   2.354  23.188  1.1308 -0.9379  1.0004
 2759TIP3    H229769   0.936   2.240  23.105 -0.9446 -0.2304 -1.4382
 2760TIP3   OH229770   0.405   0.002 108.379  0.3008  0.1745 -0.7036
 2760TIP3    H129771   0.463   0.058 108.430 -0.1474 -1.2449  1.4911
 2760TIP3    H229772   0.337   0.061 108.346 -0.1798  0.9729  1.5554
 2761TIP3   OH229773   2.268   1.555  18.859  0.1703 -0.5133  0.0703
 2761TIP3    H129774   2.180   1.578  18.890  0.5368  0.4594  0.4214
 2761TIP3    H229775   2.262   1.560  18.764 -0.2763 -0.9309  0.0724
 2762TIP3   OH229776   0.422   1.344   0.676  0.1600  0.7541  0.8262
 2762TIP3    H129777   0.471   1.318   0.754  0.0678  0.3573  0.7498
 2762TIP3    H229778   0.488   1.351   0.607  0.0243 -0.3844  0.5744
 2763TIP3   OH229779   1.751   1.923  92.926 -0.2081  0.0998  0.0432
 2763TIP3    H129780   1.768   1.924  93.020 -2.0436 -1.1605  0.4568
 2763TIP3    H229781   1.738   2.014  92.902  0.3425  0.4347  0.9841
 2764TIP3   OH229782   1.383   2.460  11.873 -0.2957  0.0052  0.0983
 2764TIP3    H129783   1.368   2.447  11.966  1.2768 -2.0088  0.1432
 2764TIP3    H229784   1.412   2.374  11.841 -0.2190  0.7930 -2.1166
 2765TIP3   OH229785   1.367   2.249  77.624 -0.2286  0.5899  0.6961
 2765TIP3    H129786   1.457   2.281  77.628  0.0381  0.8421 -3.3201
 2765TIP3    H229787   1.315   2.317  77.667  1.1312  2.7152 -0.8097
 2766TIP3   OH229788   1.331   0.852  11.971 -0.0637 -0.2568 -0.6669
 2766TIP3    H129789   1.396   0.782  11.981 -1.3109 -1.5792 -1.4018
 2766TIP3    H229790   1.316   0.884  12.060  0.4244 -1.0322 -0.2960
 2767TIP3   OH229791   1.389   2.088  34.589 -0.1386  0.1872 -0.1056
 2767TIP3    H129792   1.482   2.108  34.593 -0.1154  0.1147 -0.2856
 2767TIP3    H229793   1.356   2.108  34.677 -0.0010  0.4360 -0.1107
 2768TIP3   OH229794   1.761   1.298   4.888  0.6343  0.0308 -0.6895
 2768TIP3    H129795   1.762   1.268   4.979  0.0541 -0.3328 -0.7981
 2768TIP3    H229796   1.803   1.383   4.890  0.0388  0.3163  0.0264
 2769TIP3   OH229797   0.465   0.862  14.832 -0.3688  0.2379 -0.2139
 2769TIP3    H129798   0.414   0.788  14.799 -0.7037 -0.3087  1.4440
 2769TIP3    H229799   0.454   0.858  14.927  2.1279  0.5859  0.1530
 2770TIP3   OH229800   1.422   2.539  79.574 -0.0025  0.2062  0.4342
 2770TIP3    H129801   1.428   2.631  79.599 -2.1164  0.1989  1.1889
 2770TIP3    H229802   1.439   2.491  79.655 -0.5473  0.0069  0.4452
 2771TIP3   OH229803   1.843   0.395   1.321  0.1039 -0.3707 -0.8265
 2771TIP3    H129804   1.761   0.357   1.288 -0.0618 -0.9140  0.1714
 2771TIP3    H229805   1.836   0.388   1.417  1.4260 -0.6511 -0.7289
 2772TIP3   OH229806   0.747   0.407  86.085 -0.1009  0.0083 -0.4308
 2772TIP3    H129807   0.720   0.490  86.124  1.3300 -0.0132  0.6854
 2772TIP3    H229808   0.682   0.390  86.017 -1.1024  1.4304  0.1289
 2773TIP3   OH229809   2.271   1.127  13.449 -0.1014  0.3715 -0.7836
 2773TIP3    H129810   2.365   1.140  13.438 -0.0982 -1.5236 -4.2791
 2773TIP3    H229811   2.231   1.203  13.408 -0.0108 -0.5295 -2.6617
 2774TIP3   OH229812   1.465   2.302  86.200 -0.5123 -0.0972  0.3963
 2774TIP3    H129813   1.453   2.391  86.165  1.3490  0.4260  0.9646
 2774TIP3    H229814   1.474   2.314  86.294  0.3049 -0.8126  0.4277
 2775TIP3   OH229815   1.205   1.528  97.429 -0.5980  0.0500 -0.2685
 2775TIP3    H129816   1.174   1.577  97.353 -0.2765 -1.2694 -1.2980
 2775TIP3    H229817   1.225   1.440  97.395  2.0497  0.1451  0.7749
 2776TIP3   OH229818   1.344   2.414  88.384  0.0028 -0.1920  0.1621
 2776TIP3    H129819   1.369   2.410  88.477 -0.3427 -1.3402  0.2225
 2776TIP3    H229820   1.409   2.359  88.340 -0.7508 -0.9130 -0.0603
 2777TIP3   OH229821   2.534   1.960  75.457 -0.6094 -0.1082 -0.6063
 2777TIP3    H129822   2.569   1.870  75.452  0.3346  0.3133 -3.1135
 2777TIP3    H229823   2.465   1.962  75.392 -1.7247  0.5949  0.5674
 2778TIP3   OH229824   1.623   0.366  87.538 -0.0861 -0.5132 -0.1390
 2778TIP3    H129825   1.715   0.344  87.553  0.4654 -0.6096 -3.0472
 2778TIP3    H229826   1.613   0.453  87.574  1.2421 -0.3809 -0.0379
 2779TIP3   OH229827   2.643   2.404 109.339  0.3667  0.2147  0.4085
 2779TIP3    H129828   2.683   2.344 109.403 -0.6235 -1.2273 -0.2835
 2779TIP3    H229829   2.554   2.417 109.371 -0.0304 -0.2542 -0.4621
 2780TIP3   OH229830   2.251   0.228  33.894  0.4496 -0.2108 -0.0369
 2780TIP3    H129831   2.172   0.268  33.859  0.6193  0.6465  0.5155
 2780TIP3    H229832   2.312   0.226  33.821  0.0969 -0.3960 -0.3248
 2781TIP3   OH229833   2.617   0.871  15.971  0.0266 -0.0103 -0.0907
 2781TIP3    H129834   2.673   0.937  16.013  0.6747 -1.5415  1.5872
 2781TIP3    H229835   2.600   0.906  15.884  1.8205  1.5396  0.1149
 2782TIP3   OH229836   1.899   0.237  40.488 -0.5046 -0.2895 -0.3672
 2782TIP3    H129837   1.980   0.229  40.438 -0.2174 -1.3003  0.2322
 2782TIP3    H229838   1.864   0.148  40.492 -1.5225  0.0919 -0.4041
 2783TIP3   OH229839   2.274   2.376  84.872 -0.2412  0.8403 -0.2358
 2783TIP3    H129840   2.360   2.402  84.904  1.1247 -4.0036  0.8706
 2783TIP3    H229841   2.212   2.429  84.922  2.0469  0.6289  3.1248
 2784TIP3   OH229842   0.173   2.453   3.010  0.1076 -0.2421  0.0381
 2784TIP3    H129843   0.172   2.454   3.106  0.7031 -1.4251  0.0820
 2784TIP3    H229844   0.189   2.361   2.988 -1.8409 -0.3310 -1.2330
 2785TIP3   OH229845   1.987   1.099  11.208 -0.3046 -0.1892 -0.1590
 2785TIP3    H129846   1.904   1.146  11.200 -1.0047 -1.2650  0.4917
 2785TIP3    H229847   2.049   1.164  11.242 -0.0662  1.4380 -3.4211
 2786TIP3   OH229848   0.554   1.757  76.545 -0.7694  0.1563  0.0979
 2786TIP3    H129849   0.646   1.750  76.570 -1.1357 -0.0172  1.4548
 2786TIP3    H229850   0.509   1.692  76.600 -1.9586  1.5481  0.8304
 2787TIP3   OH229851   1.495   1.018   0.386 -0.4327  0.2536  0.3049
 2787TIP3    H129852   1.463   1.010   0.296  0.1317 -1.9439  0.2431
 2787TIP3    H229853   1.583   0.981   0.383  0.7454  2.7277  1.2385
 2788TIP3   OH229854   1.998   1.412  22.310  0.5872  0.2141 -0.2885
 2788TIP3    H129855   2.066   1.466  22.271  1.1949 -0.6518 -0.4518
 2788TIP3    H229856   1.931   1.403  22.242 -0.3082  2.0765  0.2733
 2789TIP3   OH229857   0.438   0.325  11.995  0.0624 -0.2626 -0.0216
 2789TIP3    H129858   0.444   0.303  11.902  0.0714 -2.0828  0.3830
 2789TIP3    H229859   0.396   0.249  12.036 -1.5193  1.1792  1.2325
 2790TIP3   OH229860   1.529   2.678 110.462  0.3361 -0.2685  0.3116
 2790TIP3    H129861   1.607   2.644 110.505  3.1158  1.4538 -2.8942
 2790TIP3    H229862   1.500   2.750 110.518  0.5475 -1.3904  1.9310
 2791TIP3   OH229863   0.208   0.803  97.886 -0.3446 -0.2035 -0.0157
 2791TIP3    H129864   0.127   0.765  97.851 -0.8418  1.3539 -0.6314
 2791TIP3    H229865   0.199   0.793  97.981 -0.9401 -0.6592 -0.1114
 2792TIP3   OH229866   2.054   2.126  46.190  0.9305  0.5804  0.1468
 2792TIP3    H129867   2.134   2.123  46.138  1.7490 -0.0526  1.3812
 2792TIP3    H229868   2.083   2.102  46.278 -0.6013  0.5115  0.6503
 2793TIP3   OH229869   2.590   2.259  34.485  0.6556 -0.5372  0.4701
 2793TIP3    H129870   2.626   2.185  34.534  1.7572 -0.1775  0.2430
 2793TIP3    H229871   2.657   2.279  34.420  0.5368  0.8750  0.7414
 2794TIP3   OH229872   0.949   2.018 109.043 -0.0597  0.4197 -0.5474
 2794TIP3    H129873   0.983   2.055 109.125  0.5052 -2.3904  0.6034
 2794TIP3    H229874   0.854   2.027 109.050 -0.0133  0.2745  0.3960
 2795TIP3   OH229875   1.371   2.391  95.554 -0.2988  0.4793 -0.3655
 2795TIP3    H129876   1.419   2.395  95.471 -1.6445  2.7558 -1.1393
 2795TIP3    H229877   1.429   2.432  95.618  0.3869 -0.4814 -0.3548
 2796TIP3   OH229878   2.378   1.375  99.031  0.1005 -0.5845  0.0934
 2796TIP3    H129879   2.361   1.288  98.995 -3.2185  0.6047 -1.6193
 2796TIP3    H229880   2.429   1.358  99.111  3.1541 -3.7079 -2.2006
 2797TIP3   OH229881   2.101   0.373  75.550  0.2117 -0.0581  0.3590
 2797TIP3    H129882   2.049   0.368  75.630  0.2437  0.0821  0.3892
 2797TIP3    H229883   2.088   0.463  75.519 -0.6121 -0.4058 -0.3311
 2798TIP3   OH229884   0.684   0.440  58.451 -0.2156 -0.3320 -0.0461
 2798TIP3    H129885   0.676   0.344  58.446  2.0058 -0.5471 -0.4175
 2798TIP3    H229886   0.637   0.464  58.531  2.9108 -2.3143  2.6433
 2799TIP3   OH229887   2.019   2.284  83.344 -0.1033 -0.1817 -0.5584
 2799TIP3    H129888   2.070   2.314  83.269 -1.2117  1.7385 -0.5882
 2799TIP3    H229889   2.074   2.216  83.384  2.1140  1.1954 -1.0600
 2800TIP3   OH229890   1.838   0.980  97.140 -0.1698 -0.4169  0.0862
 2800TIP3    H129891   1.789   1.033  97.203 -0.2498 -0.5076  0.1020
 2800TIP3    H229892   1.791   0.896  97.137 -0.1586 -0.4186 -0.0861
 2801TIP3   OH229893   1.492   0.163  22.455 -0.4697  0.1286 -0.7254
 2801TIP3    H129894   1.549   0.219  22.402  0.2401 -0.3175 -0.4456
 2801TIP3    H229895   1.448   0.106  22.392 -0.9502  0.7757 -0.9812
 2802TIP3   OH229896   0.879   2.179  98.327  0.0473 -0.2265 -0.5217
 2802TIP3    H129897   0.826   2.131  98.391  0.1219 -0.1536 -0.4043
 2802TIP3    H229898   0.825   2.255  98.304  0.7656  0.7386  0.8344
 2803TIP3   OH229899   1.677   2.204  31.030 -0.8295 -0.4754 -0.1446
 2803TIP3    H129900   1.601   2.229  30.978  0.0701  2.4073 -0.2436
 2803TIP3    H229901   1.737   2.164  30.966 -0.1497  2.1195 -1.2724
 2804TIP3   OH229902   2.114   1.845  12.100 -0.4554 -0.1727  0.4047
 2804TIP3    H129903   2.201   1.876  12.127  0.5216 -0.8329 -1.7698
 2804TIP3    H229904   2.099   1.767  12.154  1.2602 -1.2378 -0.5661
 2805TIP3   OH229905   1.803   2.408   1.828  0.2175 -0.3347  0.0795
 2805TIP3    H129906   1.727   2.374   1.780  0.3661  0.0534 -0.4469
 2805TIP3    H229907   1.843   2.331   1.868 -0.1214 -0.6174 -0.1211
 2806TIP3   OH229908   0.949   2.373  89.056 -0.2070  0.2030  0.0690
 2806TIP3    H129909   0.875   2.405  89.109 -1.2505 -1.7059 -0.1624
 2806TIP3    H229910   0.993   2.310  89.112  0.2749  0.1113 -0.4047
 2807TIP3   OH229911   0.828   0.775  91.189 -0.0454 -0.5524 -0.2856
 2807TIP3    H129912   0.899   0.711  91.186  1.2283  0.7972  0.0399
 2807TIP3    H229913   0.856   0.846  91.131 -2.3612 -1.1455 -2.2946
 2808TIP3   OH229914   1.088   1.305  78.691 -0.9468  0.2255  0.5247
 2808TIP3    H129915   1.179   1.335  78.695 -1.1432  0.7689  1.0283
 2808TIP3    H229916   1.040   1.378  78.651 -1.3412  0.3778  1.2553
 2809TIP3   OH229917   1.769   0.232   5.857 -0.0096  0.5555  0.1793
 2809TIP3    H129918   1.760   0.235   5.953  0.3059  0.0615  0.2262
 2809TIP3    H229919   1.706   0.296   5.825 -1.1008 -0.2451  0.6643
 2810TIP3   OH229920   0.872   2.683  87.324 -0.1759 -0.3250 -0.2997
 2810TIP3    H129921   0.821   2.623  87.378 -2.3325  1.7823  0.1972
 2810TIP3    H229922   0.955   2.691  87.370  0.0869 -2.6382 -0.2492
 2811TIP3   OH229923   2.013   0.074   6.605 -0.0721  0.3655 -0.2232
 2811TIP3    H129924   2.038  -0.006   6.652 -1.2781 -1.2774 -2.2274
 2811TIP3    H229925   1.929   0.052   6.563  0.4697  2.0371 -2.3372
 2812TIP3   OH229926   0.362   1.427   2.902  0.0778 -0.1301  0.6251
 2812TIP3    H129927   0.271   1.435   2.932  0.1136  0.1125  0.6733
 2812TIP3    H229928   0.392   1.518   2.895 -0.1646 -0.1448 -0.8744
 2813TIP3   OH229929   0.368   1.764 108.180 -0.1447 -0.2343  0.1220
 2813TIP3    H129930   0.453   1.794 108.148 -0.4766  0.3294 -0.2271
 2813TIP3    H229931   0.377   1.766 108.275  0.5105 -0.9678  0.0914
 2814TIP3   OH229932   1.709   2.250  82.626  0.7646  0.0131  0.1968
 2814TIP3    H129933   1.642   2.209  82.571  0.0309  1.1251  0.2246
 2814TIP3    H229934   1.661   2.317  82.675  1.9037  0.7932  0.2554
 2815TIP3   OH229935   0.817   1.029 102.002  0.1437  0.4464  0.5232
 2815TIP3    H129936   0.822   0.976 102.081  0.0777 -0.5459 -0.1288
 2815TIP3    H229937   0.732   1.074 102.009 -0.1982 -0.2037  0.6692
 2816TIP3   OH229938   0.375   0.727  91.961  0.2355 -0.1537 -0.1605
 2816TIP3    H129939   0.330   0.735  91.877 -1.3102 -0.3401  0.6168
 2816TIP3    H229940   0.314   0.679  92.017  1.2346 -0.0497  1.0689
 2817TIP3   OH229941   1.852   0.145  93.255  0.0786  0.7101  0.1414
 2817TIP3    H129942   1.770   0.101  93.233  0.6278  0.2487 -1.0493
 2817TIP3    H229943   1.825   0.218  93.310 -1.1010  0.3536  0.0703
 2818TIP3   OH229944   1.735   2.354  13.577 -0.1776 -0.3833 -0.0089
 2818TIP3    H129945   1.815   2.316  13.611 -0.4290  0.1733  1.2988
 2818TIP3    H229946   1.674   2.351  13.651 -0.5634  1.4370 -0.1951
 2819TIP3   OH229947   2.492   2.318  14.428  0.4126 -0.0366 -0.1666
 2819TIP3    H129948   2.426   2.343  14.363 -1.6093  0.1601  1.8487
 2819TIP3    H229949   2.525   2.401  14.463 -0.0984 -0.1372  0.5713
 2820TIP3   OH229950   1.792   0.232  31.394 -0.0068 -0.6944 -0.3196
 2820TIP3    H129951   1.735   0.284  31.449  1.4720 -2.6541  3.4156
 2820TIP3    H229952   1.738   0.158  31.366 -0.1473 -0.9207  0.5432
 2821TIP3   OH229953   0.070   0.581  98.032  0.1854  0.3372  0.4287
 2821TIP3    H129954   0.111   0.532  97.961 -0.9253 -0.8388  0.5786
 2821TIP3    H229955   0.001   0.631  97.989  2.3294  3.2017 -0.0093
 2822TIP3   OH229956   2.574   2.225  47.395 -0.3939  0.3209 -0.2363
 2822TIP3    H129957   2.626   2.299  47.365  2.9148 -1.5167  0.4784
 2822TIP3    H229958   2.578   2.162  47.323  0.1626 -0.6586  0.6222
 2823TIP3   OH229959   2.386   2.551  26.023  0.6094  0.1057 -0.1189
 2823TIP3    H129960   2.332   2.473  26.033 -1.3300  1.2848 -0.7730
 2823TIP3    H229961   2.414   2.550  25.931  0.5706  0.1815 -0.1318
 2824TIP3   OH229962   0.292   2.277   3.451 -0.4713  0.4806 -0.3633
 2824TIP3    H129963   0.287   2.341   3.380  0.3883  1.8042  0.7066
 2824TIP3    H229964   0.265   2.326   3.529 -0.6473 -0.7182  0.3403
 2825TIP3   OH229965   0.893   0.584  30.219 -0.1974 -0.3003  0.1862
 2825TIP3    H129966   0.927   0.507  30.174  0.8364 -0.0771  0.5500
 2825TIP3    H229967   0.965   0.647  30.218 -1.0138  0.6694 -0.0844
 2826TIP3   OH229968   0.519   0.493 100.082  0.2313  0.0368  0.1890
 2826TIP3    H129969   0.486   0.500 100.172 -0.4372  1.4643 -0.1341
 2826TIP3    H229970   0.442   0.474 100.029  0.0943  2.0617 -0.4066
 2827TIP3   OH229971   0.782   0.457  17.985 -0.4366  0.0435 -0.2774
 2827TIP3    H129972   0.811   0.547  17.994  1.3017 -0.3676 -1.3657
 2827TIP3    H229973   0.805   0.433  17.895 -0.7757 -1.5158  0.0180
 2828TIP3   OH229974   1.186   1.198  10.199  0.7162  0.1362 -0.0403
 2828TIP3    H129975   1.269   1.226  10.162  1.1462 -0.1061  0.7118
 2828TIP3    H229976   1.144   1.148  10.130  0.1512  2.1615 -1.2422
 2829TIP3   OH229977   1.786   2.368  27.571  0.2729  0.2010  0.5957
 2829TIP3    H129978   1.747   2.432  27.511 -0.9123 -1.8232 -0.9032
 2829TIP3    H229979   1.837   2.310  27.514  0.4525 -0.8327  1.7695
 2830TIP3   OH229980   1.294   1.598  12.444 -0.5991  0.1445  0.0716
 2830TIP3    H129981   1.339   1.632  12.522 -0.8106  0.3498  0.1053
 2830TIP3    H229982   1.245   1.523  12.475  0.4188 -0.6254 -0.1380
 2831TIP3   OH229983   2.499   0.051 107.423  0.3524 -0.0979  0.4270
 2831TIP3    H129984   2.567   0.021 107.484 -1.2913 -0.7997  2.0263
 2831TIP3    H229985   2.461  -0.030 107.390 -0.5346  0.2590  0.5512
 2832TIP3   OH229986   1.843   2.212 111.851 -0.1805 -0.0453 -0.1970
 2832TIP3    H129987   1.882   2.282 111.799 -0.4821  0.0058 -0.3543
 2832TIP3    H229988   1.749   2.218 111.833 -0.3231  0.1674  0.5794
 2833TIP3   OH229989   1.575   2.444  95.746  0.2663  0.1208  0.3497
 2833TIP3    H129990   1.567   2.368  95.804  0.8254  0.7293  1.2412
 2833TIP3    H229991   1.604   2.515  95.803 -2.1985  1.5536 -0.0460
 2834TIP3   OH229992   1.593   0.394  87.224 -0.2962 -0.0125 -0.4227
 2834TIP3    H129993   1.630   0.306  87.236 -1.9999 -0.5906  0.9774
 2834TIP3    H229994   1.603   0.436  87.309 -2.0995  0.0767 -0.2199
 2835TIP3   OH229995   1.182   0.831  93.915  0.4530 -0.6122 -0.5480
 2835TIP3    H129996   1.133   0.857  93.837 -0.3050  0.2310  0.1862
 2835TIP3    H229997   1.185   0.910  93.969  1.0400 -1.1589  0.2470
 2836TIP3   OH229998   2.637   2.658  57.354  0.1762 -0.3199  0.1231
 2836TIP3    H129999   2.719   2.706  57.363  0.2323 -0.3786 -0.0639
 2836TIP3    H230000   2.661   2.567  57.371  0.3064 -0.4483 -0.6895
 2837TIP3   OH230001   1.383   0.218  35.295  0.3810  0.2154  0.0545
 2837TIP3    H130002   1.357   0.145  35.240  1.5008  1.0702 -1.7038
 2837TIP3    H230003   1.386   0.182  35.384 -1.5477 -1.1844 -0.3955
 2838TIP3   OH230004   1.506   2.566  35.574  0.1993 -0.5047 -0.6613
 2838TIP3    H130005   1.547   2.485  35.605  0.0555 -0.0575  0.7552
 2838TIP3    H230006   1.445   2.590  35.643 -0.7825  0.0905 -1.6973
 2839TIP3   OH230007   2.235   1.445  19.281 -0.0586 -0.0353 -0.4153
 2839TIP3    H130008   2.204   1.389  19.210 -0.5072 -1.6931  1.0180
 2839TIP3    H230009   2.309   1.398  19.318  1.1003  1.5085 -0.6585
 2840TIP3   OH230010   1.956   0.797  81.260  0.5707 -0.2790  0.0673
 2840TIP3    H130011   2.004   0.858  81.317  2.3700 -2.0309  0.5186
 2840TIP3    H230012   2.023   0.759  81.203 -0.2119 -2.8854  0.7731
 2841TIP3   OH230013   0.030   1.385  22.305  0.7125 -0.3162  0.2226
 2841TIP3    H130014  -0.001   1.442  22.376  0.8310 -1.0433  0.8790
 2841TIP3    H230015   0.097   1.330  22.346  0.1275 -1.3892 -0.2106
 2842TIP3   OH230016   0.279   0.880  82.603 -0.0437  0.4203  0.3841
 2842TIP3    H130017   0.311   0.806  82.654  0.9942 -0.8391 -1.9242
 2842TIP3    H230018   0.214   0.842  82.544 -0.6828  1.6672  0.2586
 2843TIP3   OH230019   1.826   0.980  26.031  0.0970 -0.2189  0.1728
 2843TIP3    H130020   1.918   0.955  26.026  0.3432  0.5391  0.6214
 2843TIP3    H230021   1.820   1.060  25.980 -0.5606 -0.8748 -0.7992
 2844TIP3   OH230022   0.822   0.753  92.429  0.5285  0.2219  0.5049
 2844TIP3    H130023   0.890   0.793  92.482 -0.8168  1.9651  1.0105
 2844TIP3    H230024   0.810   0.812  92.355  1.5617 -1.5797 -1.1930
 2845TIP3   OH230025   2.339   1.085  12.745  0.2900  0.0359  0.5390
 2845TIP3    H130026   2.289   1.082  12.664 -0.2444  1.5847  0.7730
 2845TIP3    H230027   2.430   1.092  12.718  0.1864 -0.3066  0.0934
 2846TIP3   OH230028   0.261   2.541  41.655  0.6173  0.6780  0.2105
 2846TIP3    H130029   0.178   2.495  41.662  0.8693  0.2808  0.6487
 2846TIP3    H230030   0.319   2.495  41.716  0.8362  1.6546  0.7565
 2847TIP3   OH230031   1.966   1.454  64.253  0.3862 -0.4188  0.2353
 2847TIP3    H130032   1.931   1.508  64.324 -0.2320 -0.3970 -0.0765
 2847TIP3    H230033   1.937   1.498  64.173  1.1922 -0.3696 -0.0434
 2848TIP3   OH230034   1.703   0.520  24.852  0.0149 -0.3603  0.0296
 2848TIP3    H130035   1.651   0.570  24.915  2.2114 -0.0373  1.7027
 2848TIP3    H230036   1.748   0.454  24.905  0.9137 -0.9444 -1.4024
 2849TIP3   OH230037   2.026   1.776  31.232  0.6746 -0.1213 -1.0341
 2849TIP3    H130038   2.097   1.712  31.233  1.5485  0.8428 -0.8316
 2849TIP3    H230039   1.949   1.725  31.206  1.1541 -1.4612  0.0249
 2850TIP3   OH230040   1.502   0.252  97.494  0.0244  0.0099  0.1445
 2850TIP3    H130041   1.538   0.307  97.563 -1.1471  0.2733  0.5680
 2850TIP3    H230042   1.451   0.185  97.540  0.6276 -0.8491 -0.4067
 2851TIP3   OH230043   1.716   1.488   7.358 -0.1852  0.2807 -0.2598
 2851TIP3    H130044   1.799   1.473   7.402  1.0125  1.2504 -2.0580
 2851TIP3    H230045   1.650   1.482   7.427  1.2398 -1.6289  1.0139
 2852TIP3   OH230046   2.073   1.185  75.712 -0.1591  0.0931  0.2276
 2852TIP3    H130047   2.034   1.100  75.691  0.9319 -0.1072 -1.1989
 2852TIP3    H230048   2.121   1.209  75.633 -0.4178  2.0459  0.6071
 2853TIP3   OH230049   1.369   0.737  32.923 -0.3725 -0.1723 -0.5447
 2853TIP3    H130050   1.290   0.786  32.899 -0.3817 -0.4281 -1.0423
 2853TIP3    H230051   1.422   0.801  32.971 -0.0927  0.5423 -1.7420
 2854TIP3   OH230052   2.371   0.441  12.387  0.1748 -0.1311  0.4651
 2854TIP3    H130053   2.351   0.381  12.459 -1.5677  0.0573  0.1779
 2854TIP3    H230054   2.410   0.385  12.320 -0.1813 -0.7109  0.7311
 2855TIP3   OH230055   0.816   2.669  15.265  0.5418 -0.6951 -0.6744
 2855TIP3    H130056   0.753   2.658  15.193 -0.6150  1.0906 -0.0132
 2855TIP3    H230057   0.771   2.633  15.341  0.5460  0.0637 -0.3055
 2856TIP3   OH230058   1.219   1.929  24.499 -0.5095  0.1107  0.1728
 2856TIP3    H130059   1.168   1.976  24.433  0.8369 -0.4889 -1.3752
 2856TIP3    H230060   1.264   1.998  24.548  0.0841  0.5266 -0.9169
 2857TIP3   OH230061   0.821   0.691   5.300  0.5661 -0.3531  0.3805
 2857TIP3    H130062   0.831   0.785   5.286 -0.4187 -0.3109 -0.1062
 2857TIP3    H230063   0.911   0.656   5.298  0.9135  0.5366  0.3191
 2858TIP3   OH230064   0.599   2.618  28.146 -0.0065 -0.3919  0.1540
 2858TIP3    H130065   0.674   2.678  28.149 -0.0428 -0.3849  1.0795
 2858TIP3    H230066   0.637   2.531  28.157 -0.1915 -0.3285  1.4726
 2859TIP3   OH230067   0.818   0.249  97.546  0.4281  0.4278  0.5449
 2859TIP3    H130068   0.896   0.202  97.515  0.4352  0.7382  0.0896
 2859TIP3    H230069   0.841   0.341  97.541  0.0510  0.5196  0.4610
 2860TIP3   OH230070   1.820   2.352   8.570 -0.2132 -0.1946 -0.2685
 2860TIP3    H130071   1.892   2.405   8.536 -0.4990  0.5950  0.3076
 2860TIP3    H230072   1.859   2.300   8.639  0.0948 -0.8342 -0.9124
 2861TIP3   OH230073   0.226   0.289   6.350 -0.0780  0.2431  0.0432
 2861TIP3    H130074   0.289   0.334   6.293 -0.3684 -0.1038 -0.5619
 2861TIP3    H230075   0.207   0.207   6.305  0.5585 -0.5701  1.2012
 2862TIP3   OH230076   0.016   2.369  89.722  0.5918 -0.9718 -1.0199
 2862TIP3    H130077   0.059   2.302  89.776  0.3518  0.9708  1.7094
 2862TIP3    H230078   0.059   2.451  89.746  0.1392  0.0801 -3.4875
 2863TIP3   OH230079   0.979   1.499  33.933  0.4234  0.1445 -0.5764
 2863TIP3    H130080   0.959   1.423  33.987  1.1551 -0.5452 -1.2355
 2863TIP3    H230081   1.075   1.501  33.928  0.4049  0.8875 -0.8770
 2864TIP3   OH230082   0.841   2.336 109.783 -0.3085 -0.2474 -0.1247
 2864TIP3    H130083   0.824   2.247 109.751 -0.3748  0.3125 -1.7718
 2864TIP3    H230084   0.924   2.329 109.831 -0.8373 -1.3774  0.6910
 2865TIP3   OH230085   1.025   1.715  21.639 -0.1192 -0.1249 -0.0526
 2865TIP3    H130086   1.060   1.793  21.597  0.6363 -0.7792 -0.6849
 2865TIP3    H230087   0.964   1.748  21.705 -0.2445  0.9657 -0.6951
 2866TIP3   OH230088   0.833   1.186  29.213  0.5502  0.1410 -0.1201
 2866TIP3    H130089   0.756   1.139  29.247 -0.1832  1.9793  0.9197
 2866TIP3    H230090   0.867   1.129  29.144 -1.7750 -0.7318 -0.6612
 2867TIP3   OH230091   1.640   2.481  17.475  0.5335  0.3958 -0.1067
 2867TIP3    H130092   1.674   2.392  17.484 -1.0461 -0.2932 -0.5332
 2867TIP3    H230093   1.611   2.504  17.563  1.8154  0.8986  0.2111
 2868TIP3   OH230094   0.107   0.716 100.008  0.0346  0.1590  0.5939
 2868TIP3    H130095   0.138   0.726 100.098  0.0750 -1.0465  0.7339
 2868TIP3    H230096   0.167   0.652  99.969 -0.0822  0.5511 -0.2486
 2869TIP3   OH230097   0.024   0.806  75.890 -0.5141 -0.7652 -0.1681
 2869TIP3    H130098   0.096   0.847  75.938 -0.1727  3.0589 -3.3831
 2869TIP3    H230099   0.065   0.735  75.841  0.0980 -1.4179  1.2155
 2870TIP3   OH230100   1.546   2.368  21.680 -0.2881  0.1866  0.1644
 2870TIP3    H130101   1.581   2.296  21.627  0.0266 -1.8054  2.8337
 2870TIP3    H230102   1.618   2.431  21.686  0.8135 -1.0725  0.7425
 2871TIP3   OH230103   2.055   1.167  86.240  0.1072  0.4754 -0.0485
 2871TIP3    H130104   1.963   1.167  86.214 -0.3961 -1.9658  1.4938
 2871TIP3    H230105   2.064   1.095  86.302  3.2983 -0.0627 -0.9146
 2872TIP3   OH230106   1.723   2.029 112.213 -0.2749 -0.2355  0.1069
 2872TIP3    H130107   1.706   1.936 112.198  0.6670 -0.2063 -1.4222
 2872TIP3    H230108   1.671   2.074 112.147  0.6098  0.1941 -0.3240
 2873TIP3   OH230109   1.464   1.649  99.542 -0.1394 -0.0265 -0.1828
 2873TIP3    H130110   1.388   1.706  99.554 -0.9860 -1.1868  0.1438
 2873TIP3    H230111   1.456   1.615  99.453 -0.6767 -1.0813  0.2526
 2874TIP3   OH230112   1.147   0.246 110.972  0.0521 -0.4511  0.3074
 2874TIP3    H130113   1.171   0.161 111.010 -1.1820 -0.5292  0.9697
 2874TIP3    H230114   1.082   0.225 110.905 -1.6638  0.0732  1.7387
 2875TIP3   OH230115   1.369   0.914 100.704  0.0297  0.3761  0.6757
 2875TIP3    H130116   1.306   0.862 100.753 -1.5041  0.8528 -0.6957
 2875TIP3    H230117   1.398   0.857 100.633 -0.2884  0.7646  0.2250
 2876TIP3   OH230118   2.416   0.752   3.872  0.0290  0.2010  0.2296
 2876TIP3    H130119   2.400   0.765   3.779  0.6485  0.8005  0.2019
 2876TIP3    H230120   2.497   0.800   3.890  0.9860 -1.4808  0.6776
 2877TIP3   OH230121   1.449   0.053  80.315  0.0371  0.3984 -0.4762
 2877TIP3    H130122   1.516   0.079  80.379 -1.2688  0.4340  0.9573
 2877TIP3    H230123   1.452  -0.042  80.315 -1.4587  0.2909  1.4167
 2878TIP3   OH230124   0.474   2.123  85.300 -0.0808 -0.5181  0.0721
 2878TIP3    H130125   0.482   2.164  85.386 -0.1757 -0.6745  0.1543
 2878TIP3    H230126   0.382   2.096  85.294 -0.3191  0.4033 -0.5093
 2879TIP3   OH230127   1.209   1.954  76.174  0.1447 -0.2011 -0.1363
 2879TIP3    H130128   1.294   1.916  76.154  0.1388 -0.2497 -0.0698
 2879TIP3    H230129   1.189   1.924  76.262  0.9114  1.3256  0.6017
 2880TIP3   OH230130   1.978   0.199  98.016  0.3137 -0.3960  0.5348
 2880TIP3    H130131   1.982   0.104  98.018 -2.1605 -0.5518  1.8700
 2880TIP3    H230132   1.980   0.221  97.923 -1.1230 -1.9245  0.0977
 2881TIP3   OH230133   0.175   2.511  16.621 -0.1160  0.1142  0.0029
 2881TIP3    H130134   0.137   2.571  16.685 -0.1286  0.2914 -0.1704
 2881TIP3    H230135   0.268   2.531  16.621 -0.2971  1.0717 -1.0323
 2882TIP3   OH230136   0.794   1.102  89.280  0.0484 -0.3851 -0.6073
 2882TIP3    H130137   0.836   1.162  89.341 -0.8350  0.4711 -0.8127
 2882TIP3    H230138   0.857   1.094  89.208 -0.2438  1.1543 -1.0793
 2883TIP3   OH230139   0.691   2.233 102.954  0.0394 -0.4172 -0.4410
 2883TIP3    H130140   0.733   2.148 102.955 -1.0138 -1.0046  1.8347
 2883TIP3    H230141   0.608   2.219 102.908  0.1341 -0.4869 -0.5885
 2884TIP3   OH230142   0.987   1.619  80.508  0.2985 -0.2086  0.0920
 2884TIP3    H130143   0.913   1.677  80.524  1.0370  0.6546  0.5025
 2884TIP3    H230144   1.035   1.660  80.436  0.0307 -1.1153 -0.6258
 2885TIP3   OH230145   2.069   0.525  47.811  0.8896 -0.5656  0.0882
 2885TIP3    H130146   2.036   0.518  47.721  1.9553 -0.7043 -0.3057
 2885TIP3    H230147   2.129   0.451  47.820 -0.6744 -1.7379  1.5895
 2886TIP3   OH230148   1.392   2.312  36.256  0.7288 -0.1976 -0.3349
 2886TIP3    H130149   1.469   2.290  36.309  0.7940 -1.6566 -0.9996
 2886TIP3    H230150   1.318   2.284  36.309  0.7951 -1.6871 -0.9722
 2887TIP3   OH230151   0.607   0.679  66.437  0.5370 -0.1192  0.0620
 2887TIP3    H130152   0.673   0.722  66.382 -1.2093 -0.4927 -2.4766
 2887TIP3    H230153   0.621   0.586  66.421 -1.1925 -0.1867 -1.3669
 2888TIP3   OH230154   1.461   1.491  76.130 -0.1499 -0.2697 -0.1528
 2888TIP3    H130155   1.554   1.513  76.138  0.4808 -2.7782  0.5305
 2888TIP3    H230156   1.440   1.510  76.039  1.4379 -0.8384 -0.6875
 2889TIP3   OH230157   0.392   1.987 101.575 -0.0014  0.1594  0.2783
 2889TIP3    H130158   0.405   1.903 101.620  0.3314  0.7736  1.3699
 2889TIP3    H230159   0.423   2.053 101.637  1.1501  1.0196 -1.1178
 2890TIP3   OH230160   0.299   2.337  23.837 -0.2610  0.1931  0.1034
 2890TIP3    H130161   0.244   2.303  23.908  0.8299 -3.5256 -0.6491
 2890TIP3    H230162   0.388   2.332  23.871 -0.0071  3.4992  0.2729
 2891TIP3   OH230163   0.066   2.549  14.232 -0.1252  0.4587 -0.0540
 2891TIP3    H130164   0.077   2.501  14.149  0.2860  0.0391  0.2394
 2891TIP3    H230165   0.028   2.484  14.292  0.2705  0.5471  0.2953
 2892TIP3   OH230166   0.341   2.028   0.850  0.1985 -0.1871 -0.0522
 2892TIP3    H130167   0.398   2.087   0.899 -0.8322 -0.7749  1.9487
 2892TIP3    H230168   0.279   2.086   0.807  0.2967  0.2937  0.4349
 2893TIP3   OH230169   1.117   1.134  16.237  0.2589 -0.1320  0.1954
 2893TIP3    H130170   1.038   1.171  16.277  0.4336 -1.4219  1.8373
 2893TIP3    H230171   1.093   1.119  16.146 -0.3764  2.3283 -0.1373
 2894TIP3   OH230172   0.563   0.340  88.250  0.2478  0.0661 -0.2431
 2894TIP3    H130173   0.527   0.340  88.339  0.4419 -0.0529 -0.1636
 2894TIP3    H230174   0.587   0.432  88.235  0.3077  0.0684 -0.1369
 2895TIP3   OH230175   0.761   0.156  96.707 -0.2957  0.1254 -0.0583
 2895TIP3    H130176   0.841   0.196  96.741  1.2214 -1.7003 -1.2378
 2895TIP3    H230177   0.727   0.220  96.644 -0.1588  1.2097  0.9311
 2896TIP3   OH230178   0.256   1.676  92.177  0.3190 -0.3917  0.7087
 2896TIP3    H130179   0.199   1.703  92.248 -0.3494 -0.5802  0.2518
 2896TIP3    H230180   0.318   1.616  92.218  0.2188 -0.1530  1.2154
 2897TIP3   OH230181   0.500   0.397  98.095 -0.3321 -0.0265 -0.1447
 2897TIP3    H130182   0.541   0.320  98.054 -0.5094  0.1961 -0.7602
 2897TIP3    H230183   0.569   0.433  98.152  0.3512  0.3370 -1.1559
 2898TIP3   OH230184   0.938   0.025  33.354 -0.4714 -0.1731  0.3152
 2898TIP3    H130185   0.911   0.012  33.445 -0.3727  0.8845  0.5107
 2898TIP3    H230186   1.033   0.011  33.355 -0.4379  0.0541  0.4228
 2899TIP3   OH230187   2.209   2.142  27.858  0.5514 -0.0371 -0.2252
 2899TIP3    H130188   2.217   2.047  27.842 -0.2936 -0.1224 -0.1903
 2899TIP3    H230189   2.125   2.165  27.818  0.0978  0.4367  0.9772
 2900TIP3   OH230190   1.434   1.628 112.150 -0.4978 -0.2502 -0.5467
 2900TIP3    H130191   1.364   1.673 112.103  1.2709  0.1919 -2.9557
 2900TIP3    H230192   1.458   1.555 112.094  0.8209 -0.5080  0.3009
 2901TIP3   OH230193   0.438   1.908  81.913  0.5972 -0.2918 -0.2396
 2901TIP3    H130194   0.450   1.818  81.943 -1.4570 -1.7907 -3.3772
 2901TIP3    H230195   0.520   1.930  81.868  0.7936 -0.9332 -0.1976
 2902TIP3   OH230196   0.675   2.501  82.657 -0.4910 -0.2856  0.2160
 2902TIP3    H130197   0.630   2.417  82.642 -0.2825 -0.9033  2.7246
 2902TIP3    H230198   0.614   2.566  82.621 -0.9967 -1.4295 -1.1085
 2903TIP3   OH230199   1.484   0.806  14.410 -0.2459  0.1444  0.2935
 2903TIP3    H130200   1.521   0.817  14.322 -0.9214  1.0510  0.1116
 2903TIP3    H230201   1.530   0.730  14.446 -0.1912 -0.4563 -0.9731
 2904TIP3   OH230202   0.356   0.153  94.817  0.6261  0.1068  0.3342
 2904TIP3    H130203   0.338   0.075  94.869  1.8239 -0.5734 -0.2443
 2904TIP3    H230204   0.347   0.226  94.879  0.4624 -0.5603  1.1056
 2905TIP3   OH230205   1.557   2.550  21.049  0.0864  0.0804 -0.2777
 2905TIP3    H130206   1.526   2.632  21.086  0.2591  0.1032 -0.1819
 2905TIP3    H230207   1.649   2.566  21.027 -0.4658  0.6507 -2.4262
 2906TIP3   OH230208   1.844   1.760   7.749 -0.1764  0.3252 -0.0800
 2906TIP3    H130209   1.838   1.669   7.778 -0.8911  0.7601  1.2069
 2906TIP3    H230210   1.807   1.811   7.821  2.3698  1.8598  0.2676
 2907TIP3   OH230211   0.730   1.214 110.235  0.3674  0.0515  0.1331
 2907TIP3    H130212   0.682   1.159 110.298  0.7468  0.7074  1.0082
 2907TIP3    H230213   0.706   1.303 110.258  2.7269  0.4773  1.2614
 2908TIP3   OH230214   1.409   2.345  96.807  0.1607 -0.1637  0.2105
 2908TIP3    H130215   1.348   2.419  96.807  0.3681  0.0746 -2.0848
 2908TIP3    H230216   1.365   2.278  96.755  2.3992  0.6113 -3.0038
 2909TIP3   OH230217   2.332   1.737 107.884 -0.5237 -0.2296 -0.2334
 2909TIP3    H130218   2.282   1.757 107.805 -1.9015  0.0034  0.6548
 2909TIP3    H230219   2.329   1.641 107.891 -0.0838 -0.2731 -0.6647
 2910TIP3   OH230220   0.406   0.043  77.329  0.9920  0.2193 -0.1270
 2910TIP3    H130221   0.376   0.105  77.396 -0.2579 -1.7635  1.2415
 2910TIP3    H230222   0.500   0.036  77.344  0.6877 -0.4843  1.7559
 2911TIP3   OH230223   0.232   0.797  89.247  0.0903  0.1992 -0.1715
 2911TIP3    H130224   0.226   0.892  89.258  1.5157  0.2526  0.2472
 2911TIP3    H230225   0.141   0.769  89.235 -0.5188  1.4168  1.2920
 2912TIP3   OH230226   2.054   2.065   4.906  0.1868 -0.3186  0.2079
 2912TIP3    H130227   2.083   2.092   4.818 -1.3283 -2.3895 -1.0322
 2912TIP3    H230228   2.010   2.142   4.942 -0.2437  0.2061 -1.3642
 2913TIP3   OH230229   2.414   0.929 112.101  0.0148  0.6139  0.2633
 2913TIP3    H130230   2.401   0.979 112.182  0.7968 -1.7149  1.9074
 2913TIP3    H230231   2.480   0.863 112.123 -1.2694 -1.4524 -1.6563
 2914TIP3   OH230232   0.233   1.787  80.109 -0.1719  0.8190 -0.3527
 2914TIP3    H130233   0.258   1.758  80.197 -2.1422  0.1893  0.0754
 2914TIP3    H230234   0.296   1.855  80.087  2.9213 -1.7426 -0.1729
 2915TIP3   OH230235   0.740   1.281  23.284 -0.2699  0.2184  0.2692
 2915TIP3    H130236   0.797   1.345  23.326  1.9978 -1.6210  0.1615
 2915TIP3    H230237   0.755   1.200  23.332 -2.6140 -0.4259  0.0260
 2916TIP3   OH230238   2.455   1.427  37.501 -0.1745  0.0458 -0.3675
 2916TIP3    H130239   2.469   1.333  37.494 -0.5185 -0.0431  0.0864
 2916TIP3    H230240   2.535   1.459  37.544 -1.2852 -0.4733  2.2887
 2917TIP3   OH230241   1.609   1.975  21.802  0.0581 -0.1588 -0.8773
 2917TIP3    H130242   1.693   2.017  21.783 -0.7623  1.6015 -0.7797
 2917TIP3    H230243   1.558   1.986  21.722 -0.2477 -0.8344 -0.7832
 2918TIP3   OH230244   0.521   2.578  13.828 -0.1219  0.0491 -0.3790
 2918TIP3    H130245   0.445   2.630  13.802  0.3916  1.3150  0.5257
 2918TIP3    H230246   0.552   2.538  13.746 -1.0264  0.5060 -0.9588
 2919TIP3   OH230247   0.552   0.840  37.240 -0.8856  0.4555  0.0420
 2919TIP3    H130248   0.484   0.783  37.205 -1.3014  0.2802  1.1046
 2919TIP3    H230249   0.616   0.780  37.280 -0.9872  0.6852  0.5655
 2920TIP3   OH230250   2.127   0.236  73.744  0.5456  0.5548  0.1945
 2920TIP3    H130251   2.151   0.323  73.710  0.2276  0.4878 -0.2107
 2920TIP3    H230252   2.106   0.185  73.666  2.2689 -0.3847  0.3010
 2921TIP3   OH230253   1.059   2.572   9.290 -0.1122  0.0006  0.0391
 2921TIP3    H130254   1.007   2.496   9.263 -0.1590  0.8664 -2.6004
 2921TIP3    H230255   1.146   2.555   9.254 -0.0802  1.0904 -0.4249
 2922TIP3   OH230256   2.505   2.027 103.474  0.5889 -0.3728  0.1150
 2922TIP3    H130257   2.509   2.072 103.558  0.5452 -0.5884  0.2267
 2922TIP3    H230258   2.417   1.990 103.470  0.4985 -0.1349 -0.1450
 2923TIP3   OH230259   0.846   1.283  32.647 -0.4246 -0.1087  0.2789
 2923TIP3    H130260   0.754   1.307  32.644 -0.4109 -0.0961 -0.1551
 2923TIP3    H230261   0.855   1.217  32.578 -0.2914 -0.7381  0.8938
 2924TIP3   OH230262   2.528   2.543  31.050  0.0760  0.2971  0.0386
 2924TIP3    H130263   2.447   2.592  31.063  1.6057  3.0109  0.0801
 2924TIP3    H230264   2.553   2.513  31.137 -0.7304 -0.3288  0.0616
 2925TIP3   OH230265   1.278   1.513 103.885  0.2062 -0.6109  0.1002
 2925TIP3    H130266   1.291   1.518 103.980 -0.0862 -0.4704  0.1390
 2925TIP3    H230267   1.344   1.571 103.848 -0.8536  0.7789  0.3205
 2926TIP3   OH230268   1.554   0.676 105.333  0.3815 -0.3227  0.0734
 2926TIP3    H130269   1.488   0.722 105.385  0.7510  0.6435 -0.2956
 2926TIP3    H230270   1.560   0.589 105.374 -0.8612 -0.3180  0.3240
 2927TIP3   OH230271   1.612   0.823  92.320 -0.1246 -0.0108  0.1960
 2927TIP3    H130272   1.553   0.752  92.294  0.2876 -0.0487 -0.6697
 2927TIP3    H230273   1.588   0.897  92.264 -0.1469  0.3472  0.6736
 2928TIP3   OH230274   2.028   0.421  21.039 -0.0093  0.0252  0.1802
 2928TIP3    H130275   2.113   0.450  21.071  1.1096 -3.1812  0.4536
 2928TIP3    H230276   2.047   0.374  20.958 -1.7610  0.6725 -0.6696
 2929TIP3   OH230277   2.181   0.460  11.584 -0.3446  0.0347 -0.2493
 2929TIP3    H130278   2.263   0.420  11.553 -0.4475  0.2827 -0.8360
 2929TIP3    H230279   2.198   0.477  11.677 -0.4234 -1.7039  0.1323
 2930TIP3   OH230280   1.874   2.150   7.932 -0.5358  0.2719  0.4648
 2930TIP3    H130281   1.797   2.118   7.884  0.6462  1.1647 -2.2159
 2930TIP3    H230282   1.929   2.072   7.942 -0.7761  0.0762  0.2949
 2931TIP3   OH230283   0.593   2.039   3.743 -0.3511 -0.1054 -0.0034
 2931TIP3    H130284   0.598   2.131   3.771 -1.9988  0.2756 -0.8869
 2931TIP3    H230285   0.511   2.032   3.695  1.1200 -1.3430 -2.5646
 2932TIP3   OH230286   0.353   0.725 106.625  0.3866 -0.4517 -0.1655
 2932TIP3    H130287   0.428   0.784 106.629 -0.5087  0.9805 -2.6778
 2932TIP3    H230288   0.287   0.767 106.681  1.1725 -1.3967  1.5449
 2933TIP3   OH230289   2.585   1.720 102.712  0.4059 -0.4695  0.5983
 2933TIP3    H130290   2.501   1.718 102.665  0.9118  0.0689 -0.3777
 2933TIP3    H230291   2.577   1.792 102.773  0.3037 -0.1333  0.1974
 2934TIP3   OH230292   1.875   2.298 105.791 -0.4136  0.4812  0.1812
 2934TIP3    H130293   1.912   2.232 105.849  0.2878 -0.2912 -1.1101
 2934TIP3    H230294   1.786   2.311 105.824 -0.5829 -1.1440  0.4494
 2935TIP3   OH230295   0.715   1.309  35.528 -0.2329 -0.2284  0.3471
 2935TIP3    H130296   0.640   1.312  35.469  0.0266  0.4723  0.0259
 2935TIP3    H230297   0.780   1.256  35.482 -1.0738 -2.1703  1.3176
 2936TIP3   OH230298   2.240   2.189   7.311  0.4219  0.3075  0.2505
 2936TIP3    H130299   2.257   2.109   7.262  2.3441 -0.0048  1.3067
 2936TIP3    H230300   2.287   2.176   7.394 -3.3839  0.3900  2.6596
 2937TIP3   OH230301   1.237   1.380  32.613  0.8798 -0.1733  0.2881
 2937TIP3    H130302   1.215   1.289  32.631  0.3317 -0.3247 -0.9797
 2937TIP3    H230303   1.324   1.393  32.649  1.1934 -1.3724 -0.0225
 2938TIP3   OH230304   0.183   1.918  85.245 -0.0013  0.0102 -0.6715
 2938TIP3    H130305   0.262   1.893  85.197  0.7667  0.2253  0.4288
 2938TIP3    H230306   0.125   1.843  85.237  1.5493 -1.4561  1.0875
 2939TIP3   OH230307   1.988   1.188   7.333  0.3606 -0.5873 -0.4405
 2939TIP3    H130308   2.016   1.228   7.251  0.4620  0.2048 -0.0248
 2939TIP3    H230309   1.956   1.261   7.386  0.1260 -1.1137  0.1589
 2940TIP3   OH230310   2.369   1.750  88.689  0.1226  0.4823 -0.6612
 2940TIP3    H130311   2.434   1.811  88.655  0.4801  0.1586 -0.5697
 2940TIP3    H230312   2.289   1.802  88.698  0.9282  1.4509  1.3227
 2941TIP3   OH230313   0.955   2.393 109.286 -0.0457  0.4028 -0.1132
 2941TIP3    H130314   0.870   2.354 109.264  0.0923 -1.7580  2.5968
 2941TIP3    H230315   1.019   2.337 109.242  0.0372  0.8393 -0.5547
 2942TIP3   OH230316   0.623   2.488  29.025  0.2405  0.5709  0.1513
 2942TIP3    H130317   0.533   2.501  28.997 -0.5595  0.2714  2.3887
 2942TIP3    H230318   0.641   2.396  29.005 -0.5750  0.1550  1.2298
 2943TIP3   OH230319   1.162   2.173   9.300  0.1378  0.3676  0.4479
 2943TIP3    H130320   1.119   2.100   9.256  0.0332  0.4495  0.4118
 2943TIP3    H230321   1.098   2.244   9.297  0.7724  0.9203 -0.8285
 2944TIP3   OH230322   0.311   1.148  91.484  0.0148 -0.3928 -0.1276
 2944TIP3    H130323   0.255   1.123  91.557 -0.6499  1.7007  0.1655
 2944TIP3    H230324   0.328   1.066  91.438 -1.3743 -1.4479  1.1097
 2945TIP3   OH230325   0.084   1.211  74.173  0.4025 -0.5184 -0.3256
 2945TIP3    H130326   0.118   1.299  74.154  0.2121  0.1016  2.0016
 2945TIP3    H230327   0.162   1.160  74.197  0.6619 -1.3475 -2.6267
 2946TIP3   OH230328   1.258   1.366  21.574 -0.3708 -0.7450 -0.3137
 2946TIP3    H130329   1.207   1.331  21.501 -1.4234  0.2327 -0.0651
 2946TIP3    H230330   1.337   1.403  21.533 -0.0400 -1.8666 -0.7405
 2947TIP3   OH230331   1.285   2.018  62.993 -0.0949 -0.6001  0.0948
 2947TIP3    H130332   1.351   1.952  63.013 -0.1411 -0.7381 -0.2065
 2947TIP3    H230333   1.284   2.022  62.897  1.1074  1.0281  0.1057
 2948TIP3   OH230334   2.536   0.228 109.663 -0.2014 -0.5293 -0.3321
 2948TIP3    H130335   2.572   0.295 109.722 -0.9350 -1.2128  0.9601
 2948TIP3    H230336   2.515   0.155 109.721 -0.3029 -1.5129 -1.5708
 2949TIP3   OH230337   2.193   0.358   9.253 -0.2056  0.0028  0.0113
 2949TIP3    H130338   2.177   0.444   9.214  4.0725  0.3901 -1.4671
 2949TIP3    H230339   2.161   0.295   9.188  1.4253  0.6186 -1.4635
 2950TIP3   OH230340   2.682   2.550   4.710 -0.0284 -0.2571 -0.0807
 2950TIP3    H130341   2.698   2.566   4.803  0.3315  1.4404 -0.4029
 2950TIP3    H230342   2.723   2.465   4.693 -1.1168 -1.1685  1.5386
 2951TIP3   OH230343   2.030   2.460   4.729 -0.1408 -0.2523  0.1973
 2951TIP3    H130344   2.102   2.516   4.758  0.8517 -1.4431  0.1072
 2951TIP3    H230345   2.023   2.477   4.635  0.4198 -0.5498  0.0960
 2952TIP3   OH230346   2.067   0.072  28.416  0.0546 -0.1656  0.0240
 2952TIP3    H130347   2.001   0.017  28.459  0.6892 -0.8390  0.1530
 2952TIP3    H230348   2.127   0.096  28.487  0.4832 -0.3550 -0.2707
 2953TIP3   OH230349   1.633   1.390  82.377 -0.1397  0.2486  0.5673
 2953TIP3    H130350   1.635   1.456  82.446  1.4130 -0.3048  1.0955
 2953TIP3    H230351   1.693   1.423  82.310 -0.3995  0.0216  0.2163
 2954TIP3   OH230352   0.176   2.662  85.707  0.0384  0.3396 -0.4224
 2954TIP3    H130353   0.088   2.675  85.743  0.1347  0.7648 -0.3317
 2954TIP3    H230354   0.211   2.751  85.698  0.8701  0.1260  0.5613
 2955TIP3   OH230355   0.933   0.248  32.485  0.3291 -0.0192  0.8505
 2955TIP3    H130356   1.018   0.270  32.523  0.3953  0.6235  0.3515
 2955TIP3    H230357   0.871   0.262  32.556  0.3317  2.1626  0.4906
 2956TIP3   OH230358   2.078   2.602  28.168  0.0212  0.5840 -0.3153
 2956TIP3    H130359   1.987   2.606  28.136 -0.8390 -0.4901  1.7960
 2956TIP3    H230360   2.075   2.644  28.254  1.2175 -0.6579  0.3676
 2957TIP3   OH230361   1.547   2.042  85.483 -0.0226  0.2672 -0.1279
 2957TIP3    H130362   1.534   2.129  85.446 -0.9967 -0.0816 -0.6340
 2957TIP3    H230363   1.523   1.982  85.412  0.3154 -0.4153  0.3265
 2958TIP3   OH230364   1.060   0.699 101.019  0.3523 -0.2369 -0.3273
 2958TIP3    H130365   0.965   0.704 101.011  0.3413 -0.0928 -0.1234
 2958TIP3    H230366   1.079   0.606 101.026  0.1302 -0.2068  0.7832
 2959TIP3   OH230367   2.144   1.608   9.539 -0.0631  0.0128 -0.1287
 2959TIP3    H130368   2.197   1.530   9.550 -0.5840 -0.3062  0.1690
 2959TIP3    H230369   2.128   1.639   9.629  1.0617  1.0946 -0.2750
 2960TIP3   OH230370   1.309   1.453  20.891  0.2550 -0.0197 -0.5592
 2960TIP3    H130371   1.288   1.362  20.868  0.5552  0.0103 -0.9612
 2960TIP3    H230372   1.360   1.446  20.971 -0.8707 -0.1221  0.1775
 2961TIP3   OH230373   1.040   2.486   2.312  0.1889 -0.0247 -0.1335
 2961TIP3    H130374   0.956   2.441   2.313 -0.1366  0.5585 -0.5681
 2961TIP3    H230375   1.044   2.527   2.226  0.9835 -0.1577 -0.1712
 2962TIP3   OH230376   0.438   1.448  92.221  0.2106  0.2719  0.5943
 2962TIP3    H130377   0.532   1.454  92.239  0.2803 -0.8437  0.6491
 2962TIP3    H230378   0.416   1.356  92.237 -0.9425  0.5728  0.8264
 2963TIP3   OH230379   0.601   0.565   2.498 -0.2043 -0.3231  0.0639
 2963TIP3    H130380   0.645   0.556   2.583  1.0171  0.6699 -0.4276
 2963TIP3    H230381   0.508   0.555   2.518  0.1516 -1.4678  1.2987
 2964TIP3   OH230382   0.739   2.323 104.506 -0.4723 -0.1029  0.0438
 2964TIP3    H130383   0.704   2.399 104.460 -0.3034  0.0717  0.1936
 2964TIP3    H230384   0.792   2.278 104.440 -1.3266 -0.6000 -0.3111
 2965TIP3   OH230385   0.085   0.707 105.596 -0.3903 -0.1328  0.2255
 2965TIP3    H130386   0.013   0.651 105.569  0.0007 -0.8425  0.6289
 2965TIP3    H230387   0.078   0.712 105.692  1.5373 -2.2892  0.5688
 2966TIP3   OH230388   0.159   2.632  34.307 -0.0593  0.6782  0.0059
 2966TIP3    H130389   0.083   2.657  34.360  0.4126  1.2917  0.3928
 2966TIP3    H230390   0.234   2.638  34.366  0.0302 -2.4102  0.3610
 2967TIP3   OH230391   1.348   1.168  20.869  0.0581 -0.1307  0.1540
 2967TIP3    H130392   1.345   1.088  20.816  2.6340 -0.1317 -0.1234
 2967TIP3    H230393   1.439   1.198  20.862 -0.0282  1.0702  2.8354
 2968TIP3   OH230394   0.192   1.779   0.105  0.0229  0.5109  0.7974
 2968TIP3    H130395   0.157   1.868   0.110 -1.9974 -0.2760  1.3455
 2968TIP3    H230396   0.262   1.785   0.039 -1.6211  2.0237 -0.9256
 2969TIP3   OH230397   1.118   1.363  15.761  0.2975  0.1457 -0.0035
 2969TIP3    H130398   1.146   1.320  15.841 -1.0648 -1.9850 -0.6053
 2969TIP3    H230399   1.197   1.405  15.727  1.4157 -0.8723  1.2522
 2970TIP3   OH230400   0.003   0.671  82.804  0.0086 -0.1034 -0.1373
 2970TIP3    H130401   0.055   0.734  82.853 -0.2606 -1.5928  2.2335
 2970TIP3    H230402   0.067   0.605  82.775 -0.2474 -0.9202  1.0931
 2971TIP3   OH230403   1.854   0.382   4.586  0.3339  0.4148 -0.1489
 2971TIP3    H130404   1.908   0.460   4.574  0.1709  0.6787  0.7289
 2971TIP3    H230405   1.907   0.325   4.642  0.7180 -0.3876 -1.3058
 2972TIP3   OH230406   0.586   0.999 105.474  0.6253 -0.1439 -0.3661
 2972TIP3    H130407   0.539   1.002 105.557  1.6650 -0.4977  0.2443
 2972TIP3    H230408   0.542   1.065 105.420 -0.4783 -0.3597  0.2279
 2973TIP3   OH230409   1.612   1.689  81.074 -0.1180  0.0259 -0.1570
 2973TIP3    H130410   1.685   1.628  81.081  0.3001  0.4766 -0.5252
 2973TIP3    H230411   1.576   1.674  80.986 -0.0029  0.3181 -0.2560
 2974TIP3   OH230412   2.402   2.378 101.808  0.6394 -0.1921 -0.1048
 2974TIP3    H130413   2.441   2.411 101.727 -2.6548  1.9416 -1.0319
 2974TIP3    H230414   2.448   2.426 101.877  0.8854  0.9213 -0.9992
 2975TIP3   OH230415   2.426   2.269  22.069  0.1021 -0.2601 -0.2296
 2975TIP3    H130416   2.476   2.267  21.987 -0.2712 -1.0104 -0.4429
 2975TIP3    H230417   2.336   2.250  22.043 -0.5560  2.2030 -0.0006
 2976TIP3   OH230418   1.536   1.373 107.867  0.3302  0.3119  0.1162
 2976TIP3    H130419   1.613   1.332 107.905  0.6491  0.9386  0.1567
 2976TIP3    H230420   1.469   1.305 107.869  0.9493 -0.3159 -0.1450
 2977TIP3   OH230421   2.452   1.358  11.569  0.3394 -0.4692  0.2235
 2977TIP3    H130422   2.474   1.422  11.501 -0.6201  1.0424  1.2500
 2977TIP3    H230423   2.506   1.384  11.644  1.5436 -2.2391  0.0168
 2978TIP3   OH230424   2.016   0.585  85.597  0.5020 -0.2286  0.8646
 2978TIP3    H130425   2.052   0.504  85.561 -0.1977 -0.7161  1.2328
 2978TIP3    H230426   2.074   0.607  85.670  0.9878 -0.1099  0.4533
 2979TIP3   OH230427   1.099   1.920 100.714 -0.2031 -0.0539 -0.2157
 2979TIP3    H130428   1.012   1.950 100.688  0.1974  0.0567 -1.5277
 2979TIP3    H230429   1.139   1.890 100.632  0.8468 -0.4645  0.4263
 2980TIP3   OH230430   1.283   1.381  16.992 -0.1279 -0.0402  0.1799
 2980TIP3    H130431   1.266   1.452  16.931  0.4787 -1.0599 -1.2156
 2980TIP3    H230432   1.363   1.408  17.038 -0.0314  0.2850 -0.1750
 2981TIP3   OH230433   0.349   0.149  38.145 -0.4298  0.5071 -0.0661
 2981TIP3    H130434   0.428   0.110  38.183 -0.5792  0.2062 -0.0576
 2981TIP3    H230435   0.350   0.240  38.174 -0.7349  0.1948  0.9750
 2982TIP3   OH230436   0.180   2.570  23.709 -0.2344  0.2918 -0.1372
 2982TIP3    H130437   0.211   2.483  23.734  1.6648  0.8277 -0.4248
 2982TIP3    H230438   0.128   2.599  23.784 -1.2842 -1.2489 -0.2387
 2983TIP3   OH230439   0.986   0.915  87.910 -0.2215 -0.5372  0.2646
 2983TIP3    H130440   0.947   0.951  87.990 -0.3816  0.2591 -0.1655
 2983TIP3    H230441   0.918   0.860  87.873 -1.4735  1.7674 -1.1057
 2984TIP3   OH230442   0.948   1.156  29.799  0.2005  0.4837  0.0036
 2984TIP3    H130443   0.861   1.134  29.765  0.1050 -0.0601  0.5820
 2984TIP3    H230444   0.985   1.073  29.827  1.1830  0.6259 -0.8369
 2985TIP3   OH230445   0.919   2.429  97.123 -0.0514  0.5304 -0.5687
 2985TIP3    H130446   0.863   2.455  97.050  0.1522  0.0382 -0.9022
 2985TIP3    H230447   0.918   2.334  97.122  0.4015  0.5189 -0.2780
 2986TIP3   OH230448   1.616   0.615  20.096  0.2320 -0.0165  0.6796
 2986TIP3    H130449   1.533   0.661  20.084  0.2052  0.1023  1.2812
 2986TIP3    H230450   1.601   0.528  20.059 -0.7913 -0.6485  2.4493
 2987TIP3   OH230451   0.051   0.599  17.728  0.2008  0.0591  0.0945
 2987TIP3    H130452   0.074   0.510  17.755  0.2415 -0.1488 -0.6062
 2987TIP3    H230453   0.134   0.637  17.699  0.0865  0.1331 -0.1399
 2988TIP3   OH230454   0.874   2.288  36.425  0.2527 -0.5048  0.3275
 2988TIP3    H130455   0.856   2.194  36.419 -1.4279 -0.4687  3.2405
 2988TIP3    H230456   0.789   2.329  36.407  1.1643  0.5853 -1.8504
 2989TIP3   OH230457   0.384   2.362   7.181 -0.0684  0.1109  0.1971
 2989TIP3    H130458   0.353   2.406   7.260 -0.0623  0.8082 -0.1788
 2989TIP3    H230459   0.477   2.348   7.196 -0.3434 -1.0413  0.8944
 2990TIP3   OH230460   1.735   1.716  79.127  0.3175  0.0823 -0.1946
 2990TIP3    H130461   1.703   1.715  79.037 -1.6686  1.1821  0.4361
 2990TIP3    H230462   1.828   1.737  79.120  0.4435 -0.9414 -2.0294
 2991TIP3   OH230463   2.524   0.901   5.883  0.2837 -0.3478 -0.1440
 2991TIP3    H130464   2.543   0.988   5.919  0.7482 -0.4700 -0.0894
 2991TIP3    H230465   2.431   0.904   5.860  0.3757  0.2634 -0.4300
 2992TIP3   OH230466   0.847   2.229 105.616 -0.3713  0.5129 -0.1259
 2992TIP3    H130467   0.837   2.149 105.565 -0.4820  0.8144 -0.5754
 2992TIP3    H230468   0.817   2.299 105.558  1.2618  1.0731 -0.3418
 2993TIP3   OH230469   0.991   0.878  27.156 -0.6498  0.5134 -0.4891
 2993TIP3    H130470   0.906   0.875  27.199  0.1240 -2.1083  1.0728
 2993TIP3    H230471   0.992   0.800  27.100  0.0500  1.5410 -1.9806
 2994TIP3   OH230472   2.669   0.093   1.936  0.0972  0.3738 -0.1672
 2994TIP3    H130473   2.710   0.071   2.019 -0.6835  1.0183  0.3990
 2994TIP3    H230474   2.576   0.103   1.957 -0.0126  1.1940 -0.9892
 2995TIP3   OH230475   2.132   0.668  10.237  0.3488 -0.6199  0.2182
 2995TIP3    H130476   2.190   0.726  10.187 -0.9370  0.8957  0.3884
 2995TIP3    H230477   2.092   0.611  10.171  1.4143 -1.1403  0.0060
 2996TIP3   OH230478   1.536   1.683 101.030 -0.5462 -0.1477 -0.0841
 2996TIP3    H130479   1.590   1.691 100.951 -0.3714  1.0336  0.1362
 2996TIP3    H230480   1.592   1.636 101.092 -0.6704 -1.0445 -0.6354
 2997TIP3   OH230481   1.970   1.709  74.632 -0.3480 -0.0487 -0.0601
 2997TIP3    H130482   2.029   1.635  74.644  2.1783  1.8778  0.0212
 2997TIP3    H230483   1.927   1.720  74.717 -1.0955 -1.6184 -0.1919
 2998TIP3   OH230484   2.101   0.307  90.932 -0.7273 -0.5736  0.1671
 2998TIP3    H130485   2.054   0.305  91.015  0.5926  0.2925  0.9822
 2998TIP3    H230486   2.154   0.386  90.936 -0.0474 -0.9208 -1.1764
 2999TIP3   OH230487   0.097   2.534  24.673  0.2079 -0.0303 -0.7146
 2999TIP3    H130488   0.184   2.505  24.644 -0.5851 -1.1276 -2.1427
 2999TIP3    H230489   0.049   2.550  24.591 -1.5025 -1.2411 -0.0051
 3000TIP3   OH230490   2.542   0.929  35.594 -0.2747  0.2763 -0.6026
 3000TIP3    H130491   2.590   0.956  35.672  0.4024 -0.6905 -0.6621
 3000TIP3    H230492   2.606   0.877  35.544 -0.3426  1.7675 -2.3318
 3001TIP3   OH230493   1.317   2.456 112.017 -0.2586 -0.0625  0.3201
 3001TIP3    H130494   1.406   2.487 111.998 -0.5629  0.1267 -0.8706
 3001TIP3    H230495   1.292   2.408 111.938 -1.1567 -0.2632  0.7178
 3002TIP3   OH230496   0.514   2.627  33.614 -0.1720 -0.0705 -0.1848
 3002TIP3    H130497   0.563   2.547  33.633 -0.0472  0.1254  0.3298
 3002TIP3    H230498   0.530   2.644  33.521 -1.1322 -1.2878 -0.6101
 3003TIP3   OH230499   2.273   1.880  68.419  0.3559 -0.2920  0.6591
 3003TIP3    H130500   2.233   1.957  68.378 -2.2164 -0.8240  1.9237
 3003TIP3    H230501   2.319   1.836  68.348 -2.3513 -0.2010 -1.3077
 3004TIP3   OH230502   1.223   1.823  86.000  0.2768  0.2065  0.0468
 3004TIP3    H130503   1.194   1.750  86.055  2.5714 -1.6774 -1.1087
 3004TIP3    H230504   1.283   1.872  86.056  0.5325 -0.1393  0.0754
 3005TIP3   OH230505   0.412   2.541 111.968 -0.1145 -0.4254 -0.0956
 3005TIP3    H130506   0.327   2.501 111.984  0.4094 -0.5064  3.1965
 3005TIP3    H230507   0.395   2.635 111.969 -0.3322 -0.4485 -0.8484
 3006TIP3   OH230508   0.740   0.807  22.638 -0.5784 -0.2896  0.0775
 3006TIP3    H130509   0.822   0.841  22.601 -2.0912  2.2901 -1.2107
 3006TIP3    H230510   0.747   0.824  22.732 -0.5787  2.2737 -0.3225
 3007TIP3   OH230511   2.384   2.246  13.543 -0.6946 -0.3414 -0.2575
 3007TIP3    H130512   2.479   2.255  13.550 -0.5817  0.0587 -1.7578
 3007TIP3    H230513   2.366   2.257  13.449 -2.0298 -2.3322 -0.3093
 3008TIP3   OH230514   1.953   0.252  99.157  0.3214  0.0947 -0.0676
 3008TIP3    H130515   2.017   0.188  99.190  0.0717  0.4815  1.2454
 3008TIP3    H230516   2.002   0.334  99.153  0.0876  0.2618  0.3505
 3009TIP3   OH230517   1.348   0.036  14.411 -0.7444 -0.3032  0.5210
 3009TIP3    H130518   1.328   0.120  14.453  0.6096 -0.6814  2.0532
 3009TIP3    H230519   1.419   0.055  14.351 -1.4781 -0.0910 -0.2961
 3010TIP3   OH230520   0.400   2.596 101.417  0.1019  0.0601 -0.1510
 3010TIP3    H130521   0.485   2.614 101.457 -0.4690  0.6649  0.8434
 3010TIP3    H230522   0.420   2.543 101.340  1.4834  1.1751 -0.6118
 3011TIP3   OH230523   1.732   0.353   6.899 -0.2195  0.0330 -0.0490
 3011TIP3    H130524   1.818   0.328   6.932 -0.0206  0.7802  0.0259
 3011TIP3    H230525   1.679   0.367   6.977 -0.1028  0.5915 -0.0629
 3012TIP3   OH230526   2.542   1.067  20.980 -0.0013 -0.0093 -0.3545
 3012TIP3    H130527   2.619   1.011  20.968 -0.1543  0.1914 -2.7414
 3012TIP3    H230528   2.500   1.068  20.894 -0.9174  2.4479  0.0537
 3013TIP3   OH230529   1.627   1.657  80.809 -0.1776  0.0782 -0.0681
 3013TIP3    H130530   1.601   1.565  80.822 -0.9901  0.2305 -0.5147
 3013TIP3    H230531   1.636   1.665  80.714  1.1649  0.1383  0.0476
 3014TIP3   OH230532   0.035   2.191  28.770  0.4425  0.0249 -0.2862
 3014TIP3    H130533   0.018   2.270  28.821  0.5404 -0.5351  0.6377
 3014TIP3    H230534   0.092   2.138  28.826 -2.4040 -2.2707  0.7070
 3015TIP3   OH230535   0.039   1.311  24.071  0.1295  0.5879 -0.6299
 3015TIP3    H130536   0.067   1.274  23.987  1.9087 -0.9127  0.5363
 3015TIP3    H230537   0.076   1.399  24.071  1.6016  0.0114 -0.7833
 3016TIP3   OH230538   2.670   0.860  88.379 -0.6642 -0.0986  0.0306
 3016TIP3    H130539   2.689   0.781  88.430  0.5201  0.7363  0.9437
 3016TIP3    H230540   2.739   0.863  88.313  0.5353  1.1919  1.2729
 3017TIP3   OH230541   0.354   0.443  41.463 -0.5044  0.6924 -0.1766
 3017TIP3    H130542   0.300   0.446  41.384  1.3234  0.5771 -1.4871
 3017TIP3    H230543   0.391   0.532  41.470 -1.7946  1.1559  1.4330
 3018TIP3   OH230544   0.997   0.958  74.582  0.1774 -0.2666  0.1848
 3018TIP3    H130545   0.945   1.034  74.610 -1.9039 -1.3510 -0.5086
 3018TIP3    H230546   0.937   0.907  74.527  1.5124 -2.4069  0.5979
 3019TIP3   OH230547   0.032   1.957 107.966 -0.1965  0.1725  0.4660
 3019TIP3    H130548   0.069   1.988 108.049  1.3243  1.3883 -0.6028
 3019TIP3    H230549   0.090   1.993 107.899 -1.3078 -0.8808 -1.1336
 3020TIP3   OH230550   0.210   0.130   5.106  0.0687 -0.0399 -0.4700
 3020TIP3    H130551   0.289   0.121   5.053 -0.2360  1.7325 -1.3101
 3020TIP3    H230552   0.204   0.224   5.123 -2.4466  0.0430 -1.3872
 3021TIP3   OH230553   2.485   0.900 105.030  0.1242  0.2732  0.2879
 3021TIP3    H130554   2.537   0.838 105.082 -1.3834 -1.1396  0.1980
 3021TIP3    H230555   2.398   0.860 105.025 -0.7173  2.0772 -0.3951
 3022TIP3   OH230556   1.013   2.399  79.986  0.0015 -0.0977  0.5556
 3022TIP3    H130557   1.020   2.491  80.010 -0.7992  0.0326  0.2962
 3022TIP3    H230558   0.919   2.382  79.983 -0.0817  0.1639 -3.5481
 3023TIP3   OH230559   1.969   1.104  17.162 -0.1750 -0.2059 -0.0537
 3023TIP3    H130560   1.936   1.047  17.232  1.4866 -1.8849 -0.5762
 3023TIP3    H230561   1.945   1.059  17.081 -0.5864  0.8746 -0.5522
 3024TIP3   OH230562   2.503   2.227  25.809 -0.0213  0.4397  0.6008
 3024TIP3    H130563   2.459   2.233  25.724  0.5558 -0.9473  0.1725
 3024TIP3    H230564   2.542   2.313  25.822 -1.2198  1.0917  0.0963
 3025TIP3   OH230565   0.611   1.058 103.327 -0.1383 -0.1491 -0.0604
 3025TIP3    H130566   0.651   1.045 103.241  0.0575  0.1665 -0.0167
 3025TIP3    H230567   0.557   0.980 103.340 -1.3206  0.4636 -1.1012
 3026TIP3   OH230568   1.960   1.353   9.362  0.2328 -0.2028 -0.0079
 3026TIP3    H130569   1.949   1.447   9.375  0.0786 -0.0293 -1.2608
 3026TIP3    H230570   1.871   1.321   9.344 -0.0734 -0.9723  2.4591
 3027TIP3   OH230571   2.079   1.732  28.000 -0.1582 -0.5758  0.0472
 3027TIP3    H130572   2.160   1.723  28.050 -0.3841  0.2837  0.5928
 3027TIP3    H230573   2.021   1.783  28.057 -1.3855 -1.8660  0.0082
 3028TIP3   OH230574   0.990   2.145  34.728  0.2078  0.0444  0.5586
 3028TIP3    H130575   0.984   2.086  34.653 -0.7058  0.7698  0.0351
 3028TIP3    H230576   1.084   2.164  34.737  0.2428  1.0275 -1.2826
 3029TIP3   OH230577   0.586   0.531  13.477  0.7148  0.4278  0.1069
 3029TIP3    H130578   0.605   0.502  13.388  1.1763 -1.7769  0.8440
 3029TIP3    H230579   0.659   0.589  13.500  2.5245 -1.7531  0.1974
 3030TIP3   OH230580   0.137   2.483  13.964  0.0204  0.1098 -0.4148
 3030TIP3    H130581   0.055   2.471  13.916  0.3506 -0.5212 -0.8395
 3030TIP3    H230582   0.198   2.518  13.899  0.0544  0.6854 -0.0719
 3031TIP3   OH230583   1.656   1.283  17.722  0.3717 -0.3956 -0.0824
 3031TIP3    H130584   1.634   1.363  17.770  1.9894 -0.8933  1.6202
 3031TIP3    H230585   1.733   1.306  17.671  1.1582 -0.9660  0.8132
 3032TIP3   OH230586   1.109   1.836  34.321 -0.2119  0.1077 -0.6884
 3032TIP3    H130587   1.039   1.791  34.274  0.5713  0.8911 -2.7572
 3032TIP3    H230588   1.172   1.767  34.342 -1.5040 -0.5913  1.1437
 3033TIP3   OH230589   2.613   1.080  89.130 -0.3945  0.2239 -0.3565
 3033TIP3    H130590   2.564   1.045  89.205  0.4004 -1.7000 -0.6897
 3033TIP3    H230591   2.554   1.072  89.056 -1.1819  2.1286  0.0003
 3034TIP3   OH230592   0.491   2.163  10.739  0.1607  0.3247 -0.0977
 3034TIP3    H130593   0.515   2.077  10.704 -1.9840 -0.6146  0.5910
 3034TIP3    H230594   0.420   2.194  10.683  0.7181  1.5556 -0.1665
 3035TIP3   OH230595   1.987   1.862  36.502  0.6371 -0.1066 -0.4036
 3035TIP3    H130596   2.083   1.851  36.503  0.5257 -1.2783  0.9242
 3035TIP3    H230597   1.953   1.773  36.503 -0.4330  0.2309  2.4707
 3036TIP3   OH230598   0.813   2.637 101.887 -0.2444 -0.0296  0.0736
 3036TIP3    H130599   0.834   2.635 101.981 -1.4387 -1.1440  0.3539
 3036TIP3    H230600   0.830   2.547 101.857  0.8887  0.5159 -0.9722
 3037TIP3   OH230601   0.675   0.897 100.786 -0.1349  0.0839  0.0944
 3037TIP3    H130602   0.628   0.977 100.810  0.3436  0.0902  1.0332
 3037TIP3    H230603   0.621   0.857 100.718  0.1880  1.7992 -1.2644
 3038TIP3   OH230604   0.987   1.083  78.368  0.1386 -0.4153 -0.3019
 3038TIP3    H130605   0.978   1.160  78.425 -1.0550  0.6652 -1.8477
 3038TIP3    H230606   1.080   1.062  78.370  0.2981  0.3049  1.1105
 3039TIP3   OH230607   2.656   0.762  73.464  0.5887 -0.2259 -0.4216
 3039TIP3    H130608   2.579   0.780  73.519  0.8204 -1.1293  0.2343
 3039TIP3    H230609   2.702   0.846  73.460  0.5349 -0.1124  0.7449
 3040TIP3   OH230610   1.342   0.679  11.199 -0.1213  0.4175  0.0999
 3040TIP3    H130611   1.277   0.704  11.265 -0.5454 -1.5530  0.4997
 3040TIP3    H230612   1.407   0.628  11.247 -0.9883 -1.9543 -1.1105
 3041TIP3   OH230613   0.878   1.144  14.032  0.2430  0.1874  0.1816
 3041TIP3    H130614   0.793   1.106  14.012 -0.1202  0.8728  0.3919
 3041TIP3    H230615   0.869   1.236  14.009  0.2391  0.7243  2.1310
 3042TIP3   OH230616   1.807   1.637  88.651 -0.2049  0.6880  0.2268
 3042TIP3    H130617   1.869   1.652  88.579 -0.2883  0.1703  0.0423
 3042TIP3    H230618   1.845   1.564  88.700 -0.9004  0.0607 -0.1557
 3043TIP3   OH230619   0.737   2.038  18.795  0.0447  0.0631 -0.2933
 3043TIP3    H130620   0.744   2.008  18.886  1.8955 -1.0145 -0.7289
 3043TIP3    H230621   0.727   2.133  18.802 -1.1627 -0.1292  1.0392
 3044TIP3   OH230622   0.553   1.132  84.856 -0.0687 -0.3893  0.2624
 3044TIP3    H130623   0.459   1.149  84.860  0.0575  0.3465  0.2109
 3044TIP3    H230624   0.587   1.163  84.940 -0.0346 -1.7649  0.7774
 3045TIP3   OH230625   1.786   2.050  30.135 -0.1047 -0.1169  0.1706
 3045TIP3    H130626   1.839   2.108  30.191  2.2206  0.3954 -2.3601
 3045TIP3    H230627   1.819   2.065  30.047 -3.9911 -0.4508 -1.5346
 3046TIP3   OH230628   0.944   1.028  16.976  0.2141 -0.5236  0.0003
 3046TIP3    H130629   0.999   0.961  17.017 -0.3855 -0.3411  1.1419
 3046TIP3    H230630   1.006   1.086  16.932  0.8858 -0.7705  0.5960
 3047TIP3   OH230631   0.414   0.335  24.771 -0.3308  0.0936  0.4876
 3047TIP3    H130632   0.343   0.279  24.739  0.4391  0.0371 -1.2685
 3047TIP3    H230633   0.493   0.280  24.765 -0.0158  0.3605  1.8046
 3048TIP3   OH230634   2.173   1.337   2.035 -0.1896  0.5197 -0.0607
 3048TIP3    H130635   2.127   1.381   2.106  0.5868  2.1706 -0.5371
 3048TIP3    H230636   2.118   1.352   1.958  0.3159  1.0942 -0.3165
 3049TIP3   OH230637   0.977   1.821  74.342  0.0038 -0.0755 -0.9373
 3049TIP3    H130638   1.006   1.880  74.272  1.9021  1.3664  0.9200
 3049TIP3    H230639   1.046   1.826  74.408 -1.7398 -1.2470  1.1245
 3050TIP3   OH230640   1.175   1.550  96.198  0.2856  0.2236  0.0523
 3050TIP3    H130641   1.237   1.611  96.158 -0.3896  1.1761  0.4217
 3050TIP3    H230642   1.215   1.464  96.188  2.0911  0.9036  1.0728
 3051TIP3   OH230643   2.077   1.662  23.154  0.3153 -0.0049 -0.0680
 3051TIP3    H130644   2.035   1.619  23.229  2.4396  0.6305  1.6037
 3051TIP3    H230645   2.098   1.750  23.185 -1.0452  1.2226 -2.3540
 3052TIP3   OH230646   2.390   2.147  94.270  0.2869  0.1627  0.4011
 3052TIP3    H130647   2.357   2.058  94.283 -0.2024  0.1921 -0.5576
 3052TIP3    H230648   2.471   2.135  94.220  0.1373  0.2659  0.1356
 3053TIP3   OH230649   2.424   0.247 110.875  0.7747  0.1266 -0.5616
 3053TIP3    H130650   2.388   0.184 110.814  1.2572  0.2801 -1.0143
 3053TIP3    H230651   2.377   0.328 110.858 -1.5465 -0.6240  1.6151
 3054TIP3   OH230652   0.516   0.395  88.532 -0.1835 -0.6713  0.4448
 3054TIP3    H130653   0.450   0.356  88.587 -1.9856 -0.0629 -1.1663
 3054TIP3    H230654   0.552   0.467  88.584 -2.4244  0.4191  0.5770
 3055TIP3   OH230655   1.657   1.660 110.000 -0.0564  0.1341  0.5236
 3055TIP3    H130656   1.563   1.645 110.012 -0.1727  1.9366  2.4881
 3055TIP3    H230657   1.665   1.755 109.997  1.7537  0.0221  0.8971
 3056TIP3   OH230658   2.057   2.325  43.754  0.1378 -0.3107 -0.7268
 3056TIP3    H130659   2.071   2.400  43.812  1.2841 -0.6099 -0.5771
 3056TIP3    H230660   2.045   2.251  43.813 -2.1961 -0.1015 -0.8537
 3057TIP3   OH230661   2.648   0.859  78.330  0.4427  0.8834  0.0096
 3057TIP3    H130662   2.605   0.870  78.245 -0.6232 -0.8047  0.2748
 3057TIP3    H230663   2.576   0.854  78.393  1.1054 -0.1093  0.7257
 3058TIP3   OH230664   2.027   0.620  36.875 -0.6536  0.4105  0.5500
 3058TIP3    H130665   2.107   0.570  36.893 -0.5203 -0.4558 -2.0052
 3058TIP3    H230666   2.023   0.685  36.944  2.8580  1.1935  0.1917
 3059TIP3   OH230667   2.529   2.356  76.685 -0.1812  0.2162 -0.2982
 3059TIP3    H130668   2.552   2.340  76.777  0.8329  0.9733 -0.4019
 3059TIP3    H230669   2.441   2.322  76.676 -0.1821 -0.1400  0.8895
 3060TIP3   OH230670   0.593   0.555  82.482  0.4017 -0.3939 -0.1343
 3060TIP3    H130671   0.609   0.473  82.528 -1.4396 -0.2155  0.9033
 3060TIP3    H230672   0.498   0.563  82.477  0.5319  1.3793 -0.7538
 3061TIP3   OH230673   0.554   0.549  63.230 -0.1461  0.0461 -1.1084
 3061TIP3    H130674   0.551   0.510  63.318 -1.8569  1.4447 -0.4758
 3061TIP3    H230675   0.633   0.513  63.191 -1.1759 -3.4404 -0.3547
 3062TIP3   OH230676   0.852   2.159  17.989  0.5163 -0.2964  0.1147
 3062TIP3    H130677   0.873   2.142  18.081  1.4220 -0.1860 -0.0617
 3062TIP3    H230678   0.769   2.206  17.992 -0.4404 -1.9285  0.7755
 3063TIP3   OH230679   1.326   1.783  95.518 -0.2658  0.1016 -0.0122
 3063TIP3    H130680   1.315   1.688  95.519 -1.9129  0.2581  1.4454
 3063TIP3    H230681   1.264   1.814  95.452  2.8795  0.0249 -3.3246
 3064TIP3   OH230682   1.253   1.990  80.566 -0.4705 -0.3275  0.0398
 3064TIP3    H130683   1.263   1.900  80.538  2.5661 -0.1496  0.1749
 3064TIP3    H230684   1.284   2.042  80.492 -0.8761  0.5264  0.4548
 3065TIP3   OH230685   1.869   0.054  19.013  0.0090  0.1834  0.1121
 3065TIP3    H130686   1.898   0.145  19.011  0.0108  0.2014  0.9049
 3065TIP3    H230687   1.784   0.055  18.970 -1.0004  0.9391  2.0316
 3066TIP3   OH230688   1.126   0.450 100.881  0.3792 -0.1092  0.0790
 3066TIP3    H130689   1.195   0.433 100.818 -0.0306 -1.0985 -0.1229
 3066TIP3    H230690   1.045   0.444 100.831  0.1016  0.1601  0.4831
 3067TIP3   OH230691   1.197   1.244 108.776 -0.3181  0.1047  0.0189
 3067TIP3    H130692   1.264   1.264 108.711 -0.3782  0.2434 -0.0015
 3067TIP3    H230693   1.215   1.154 108.804 -0.2822  0.0528 -0.1756
 3068TIP3   OH230694   0.196   0.059  22.722 -0.0577 -0.3687 -0.0085
 3068TIP3    H130695   0.231   0.097  22.641  0.6227  0.1416  0.5177
 3068TIP3    H230696   0.216   0.123  22.790 -0.4136 -0.8984  0.6113
 3069TIP3   OH230697   1.797   2.218  14.875 -0.1275  0.3013 -0.3253
 3069TIP3    H130698   1.727   2.284  14.872  0.3242  0.8916  1.2101
 3069TIP3    H230699   1.877   2.269  14.890  0.3368 -0.5334  0.1031
 3070TIP3   OH230700   1.643   1.294  96.743  0.1243  0.2463 -0.3646
 3070TIP3    H130701   1.714   1.297  96.807  0.8882  0.7495 -1.2095
 3070TIP3    H230702   1.673   1.231  96.677 -1.2766 -1.3687  0.4570
 3071TIP3   OH230703   1.658   1.077  29.086  0.2501 -0.1320 -0.4825
 3071TIP3    H130704   1.725   1.136  29.121 -0.2798 -0.2823  0.8324
 3071TIP3    H230705   1.583   1.134  29.068 -0.2980 -0.3879  0.8838
 3072TIP3   OH230706   2.172   1.147  99.380 -0.4223  0.0689 -0.2736
 3072TIP3    H130707   2.161   1.087  99.454 -0.6039 -1.0809 -1.2055
 3072TIP3    H230708   2.250   1.198  99.403 -0.6943 -0.0038  0.8819
 3073TIP3   OH230709   0.549   1.564  85.009 -0.3787 -0.3467  0.3221
 3073TIP3    H130710   0.558   1.556  84.914  0.7862 -0.9049  0.4711
 3073TIP3    H230711   0.470   1.513  85.029  0.6232 -2.1268 -0.0822
 3074TIP3   OH230712   2.043   2.090  94.623  0.1394  0.8215 -0.2286
 3074TIP3    H130713   2.073   2.078  94.713 -0.5226  1.6313  0.1114
 3074TIP3    H230714   2.087   2.021  94.573  0.3293  0.2147  0.7504
 3075TIP3   OH230715   2.567   2.393  19.201 -0.2621  0.5502 -0.0699
 3075TIP3    H130716   2.641   2.337  19.226  0.6375  1.2471 -1.1239
 3075TIP3    H230717   2.548   2.370  19.111 -0.1831  1.6145 -0.3697
 3076TIP3   OH230718   0.232   0.564  87.329  0.1332 -0.3825  0.3864
 3076TIP3    H130719   0.147   0.543  87.290 -0.7701 -0.3864  2.2665
 3076TIP3    H230720   0.294   0.508  87.282 -0.8446 -0.2376 -1.1502
 3077TIP3   OH230721   1.025   0.941   1.449 -0.3285  0.1827  0.5375
 3077TIP3    H130722   1.107   0.924   1.402 -0.7460 -0.6660  0.0951
 3077TIP3    H230723   0.975   0.860   1.440 -1.3491  0.7997  0.5416
 3078TIP3   OH230724   2.500   2.382  17.715 -0.0927  0.0729  0.0322
 3078TIP3    H130725   2.529   2.320  17.782  0.7898 -0.7963 -1.1035
 3078TIP3    H230726   2.563   2.372  17.644 -0.1706  1.9890 -0.3759
 3079TIP3   OH230727   1.805   1.352 102.255 -0.1378  0.0657 -0.0954
 3079TIP3    H130728   1.759   1.312 102.329  1.7961  1.5141  2.0107
 3079TIP3    H230729   1.758   1.434 102.241 -1.1227 -0.6525 -1.2164
 3080TIP3   OH230730   0.703   0.408  77.254 -0.1700 -0.1169 -0.4509
 3080TIP3    H130731   0.610   0.387  77.242 -0.4560 -1.7842  3.2329
 3080TIP3    H230732   0.704   0.483  77.314  0.7820 -0.8649  0.5220
 3081TIP3   OH230733   2.599   0.284  33.951  0.3537 -0.0255 -0.5144
 3081TIP3    H130734   2.615   0.372  33.919  0.6030  0.0834 -0.0981
 3081TIP3    H230735   2.569   0.296  34.041 -1.9118 -0.2348 -1.1779
 3082TIP3   OH230736   2.268   2.120   7.842  0.2555  0.6656 -0.0889
 3082TIP3    H130737   2.187   2.079   7.873  0.7217 -0.5879 -0.4845
 3082TIP3    H230738   2.335   2.053   7.854  0.5511  0.2524 -3.2851
 3083TIP3   OH230739   0.584   2.278  11.595 -0.2128  0.0258 -0.3209
 3083TIP3    H130740   0.647   2.245  11.530  1.6419  0.9504  0.9056
 3083TIP3    H230741   0.620   2.363  11.621 -1.7631  0.3722  0.7687
 3084TIP3   OH230742   1.726   1.365  22.132 -0.0923 -0.2896 -0.1371
 3084TIP3    H130743   1.665   1.388  22.202  1.6480 -0.4191  1.5112
 3084TIP3    H230744   1.735   1.445  22.080 -0.5452  0.1684  0.4808
 3085TIP3   OH230745   2.194   0.504 106.154 -0.3369  0.0752 -0.1304
 3085TIP3    H130746   2.128   0.508 106.223 -0.3285  0.3193 -0.1366
 3085TIP3    H230747   2.272   0.543 106.193 -0.4291  0.5169 -0.3876
 3086TIP3   OH230748   1.158   0.020  97.346 -0.0320  0.7069  0.2684
 3086TIP3    H130749   1.165   0.091  97.410 -0.4673 -0.1436  1.3002
 3086TIP3    H230750   1.115  -0.051  97.394  0.0602 -0.1232 -0.8383
 3087TIP3   OH230751   1.585   2.643  89.282  0.1650 -0.1721 -0.2128
 3087TIP3    H130752   1.577   2.586  89.358 -0.3832 -0.2119 -0.2885
 3087TIP3    H230753   1.526   2.716  89.300  0.4231  0.0775 -0.3674
 3088TIP3   OH230754   1.254   2.371 100.952  0.4877  0.2063 -0.2954
 3088TIP3    H130755   1.275   2.412 100.868  0.9788  0.0363 -0.2582
 3088TIP3    H230756   1.246   2.278 100.932  2.4675 -0.1034  0.1718
 3089TIP3   OH230757   0.307   2.165  36.532 -0.1570  0.4254 -0.1090
 3089TIP3    H130758   0.283   2.258  36.528 -0.7732  0.2672 -0.2368
 3089TIP3    H230759   0.230   2.122  36.570 -0.5358 -0.2624 -1.5866
 3090TIP3   OH230760   2.105   0.117  94.051 -0.1681 -0.2729  1.1387
 3090TIP3    H130761   2.021   0.075  94.035 -0.8112  0.6744  1.9331
 3090TIP3    H230762   2.161   0.087  93.979 -1.9836  1.2947 -1.0809
 3091TIP3   OH230763   0.897   0.529  85.729 -0.2038 -0.4481 -0.2738
 3091TIP3    H130764   0.809   0.559  85.752 -0.2788 -0.6242 -0.3243
 3091TIP3    H230765   0.884   0.439  85.697  0.1736 -1.0321  1.1184
 3092TIP3   OH230766   0.901   1.464   4.986 -0.4746 -0.3370  0.3916
 3092TIP3    H130767   0.904   1.373   4.958  0.3464 -0.5304  1.0511
 3092TIP3    H230768   0.932   1.462   5.077  0.6185  0.7193  0.0654
 3093TIP3   OH230769   1.806   2.542  73.848 -0.2498  0.6653 -0.2366
 3093TIP3    H130770   1.757   2.624  73.843 -0.1954  0.6436 -1.2559
 3093TIP3    H230771   1.803   2.518  73.941 -0.0014  1.9715  0.1292
 3094TIP3   OH230772   0.638   2.393  18.535  0.1654  0.1540 -0.5478
 3094TIP3    H130773   0.651   2.340  18.456 -0.3659  1.3002 -1.4406
 3094TIP3    H230774   0.632   2.483  18.502 -0.4842  0.6165  0.7727
 3095TIP3   OH230775   2.595   1.700  75.616  0.3755 -0.4701  0.5582
 3095TIP3    H130776   2.567   1.780  75.660  1.7878 -0.1404  0.9015
 3095TIP3    H230777   2.613   1.639  75.687 -0.0428 -0.8639  0.3241
 3096TIP3   OH230778   2.684   2.247 107.295  0.1410 -0.1421  0.4115
 3096TIP3    H130779   2.596   2.215 107.314  0.3173 -0.4846  0.6541
 3096TIP3    H230780   2.742   2.188 107.342  0.6607 -1.5888 -1.8657
 3097TIP3   OH230781   1.230   0.582  11.727 -0.0189 -0.5631 -0.0052
 3097TIP3    H130782   1.280   0.640  11.670 -0.4209  0.1707  0.3844
 3097TIP3    H230783   1.235   0.496  11.684  0.2015 -0.1517 -0.8159
 3098TIP3   OH230784   1.794   1.695  31.825 -0.1356  0.0081 -0.0743
 3098TIP3    H130785   1.797   1.602  31.800 -0.1517 -0.3551  1.1947
 3098TIP3    H230786   1.857   1.737  31.767  0.1710 -0.8665 -0.4003
 3099TIP3   OH230787   0.275   2.063   3.917  0.6330  0.4442 -0.2621
 3099TIP3    H130788   0.215   2.134   3.939 -0.6390 -1.2887  2.3582
 3099TIP3    H230789   0.361   2.095   3.942  0.0009  0.9029  1.4042
 3100TIP3   OH230790   1.967   2.669  26.144  0.2649 -0.4146  0.1593
 3100TIP3    H130791   1.973   2.577  26.118  0.1409 -0.2438 -0.4834
 3100TIP3    H230792   1.901   2.669  26.214 -0.5903 -0.6588 -0.6277
 3101TIP3   OH230793   0.520   2.223  14.280 -0.3439  0.2997 -0.3814
 3101TIP3    H130794   0.461   2.164  14.325  0.1671  1.1609  1.5076
 3101TIP3    H230795   0.464   2.269  14.216 -0.7643 -2.0336 -1.8038
 3102TIP3   OH230796   0.341   0.548  68.777  0.0964  0.4295 -0.3429
 3102TIP3    H130797   0.292   0.518  68.701  0.3839  1.3412 -0.8987
 3102TIP3    H230798   0.418   0.591  68.740  0.4771  0.4685  0.4829
 3103TIP3   OH230799   2.416   0.472  14.285  0.6474  0.2946  0.1913
 3103TIP3    H130800   2.464   0.509  14.211  1.1370 -0.7564 -0.0470
 3103TIP3    H230801   2.332   0.517  14.285  1.0104  0.9841 -0.4160
 3104TIP3   OH230802   0.979   0.481  92.279  0.1079 -0.4226  0.2551
 3104TIP3    H130803   1.059   0.498  92.329  1.3454  0.7100 -1.9113
 3104TIP3    H230804   0.923   0.556  92.298  1.1080  0.6939 -0.9330
 3105TIP3   OH230805   2.313   2.645  14.081 -0.2904  0.5523  0.1338
 3105TIP3    H130806   2.339   2.554  14.096  0.1037  0.5144 -0.7034
 3105TIP3    H230807   2.245   2.640  14.013  1.6392  1.0219 -1.9694
 3106TIP3   OH230808   2.370   1.417 109.174  0.1268 -0.0731 -0.0300
 3106TIP3    H130809   2.462   1.432 109.154  0.0166  0.5480 -0.0828
 3106TIP3    H230810   2.367   1.407 109.269  0.4072 -1.2968 -0.1313
 3107TIP3   OH230811   2.645   0.692 100.336  0.4557 -0.0972 -0.1926
 3107TIP3    H130812   2.620   0.783 100.316 -1.2779 -0.2325  1.1249
 3107TIP3    H230813   2.705   0.700 100.410  1.0617  0.0086 -0.6861
 3108TIP3   OH230814   2.196   1.454 107.557  0.7198 -0.4702 -0.0163
 3108TIP3    H130815   2.155   1.476 107.641  0.2221 -0.8409 -0.1600
 3108TIP3    H230816   2.259   1.525 107.543 -0.0858  0.2917  0.0592
 3109TIP3   OH230817   2.129   0.489   2.881  0.2818 -0.3140 -0.6856
 3109TIP3    H130818   2.097   0.576   2.906  0.8107 -0.4694  0.6253
 3109TIP3    H230819   2.224   0.497   2.886  0.3302 -1.0021 -0.4409
 3110TIP3   OH230820   1.716   1.246  12.887 -0.0692 -0.2466  0.2525
 3110TIP3    H130821   1.775   1.263  12.814  0.8121 -1.6570  0.5833
 3110TIP3    H230822   1.666   1.327  12.898  0.4873  0.3240 -1.2530
 3111TIP3   OH230823   1.990   1.477   9.957  0.3727  0.1859 -0.0053
 3111TIP3    H130824   2.057   1.409   9.942  0.5893  0.1847  0.8687
 3111TIP3    H230825   1.933   1.472   9.881 -0.6208 -2.1647  0.8171
 3112TIP3   OH230826   0.711   2.383  14.384 -0.1291  0.2853 -0.2223
 3112TIP3    H130827   0.679   2.466  14.349 -0.0863  0.0028 -0.9464
 3112TIP3    H230828   0.642   2.320  14.366  0.4409 -0.1387 -0.9828
 3113TIP3   OH230829   1.235   0.114  16.981  0.0604 -0.2533 -0.3683
 3113TIP3    H130830   1.265   0.069  17.059 -0.5725 -0.3823 -0.1918
 3113TIP3    H230831   1.315   0.143  16.937  0.4592 -1.2779 -0.3273
 3114TIP3   OH230832   0.536   2.304 104.739 -0.3130  0.6706 -0.2914
 3114TIP3    H130833   0.456   2.345 104.773 -0.1653  0.7174 -0.0054
 3114TIP3    H230834   0.514   2.211 104.731  0.0311  0.4464  1.0836
 3115TIP3   OH230835   2.005   0.603  78.225 -0.1932  0.2296 -0.5834
 3115TIP3    H130836   2.041   0.533  78.170 -1.4137 -1.8701  1.1363
 3115TIP3    H230837   1.914   0.611  78.196 -0.5628 -0.1989  0.4119
 3116TIP3   OH230838   0.131   2.664  97.459  0.2006  0.1370 -0.0071
 3116TIP3    H130839   0.099   2.718  97.531  0.0397  1.3661 -0.9767
 3116TIP3    H230840   0.108   2.574  97.485  0.0190  0.5567  1.3936
 3117TIP3   OH230841   0.008   0.476  63.504  0.4300 -0.2891  1.0095
 3117TIP3    H130842  -0.077   0.443  63.535  1.0673 -2.8656  0.2779
 3117TIP3    H230843   0.070   0.452  63.573  0.8775 -0.3316  0.5978
 3118TIP3   OH230844   0.033   2.471   6.205  0.2656  0.1959  0.3205
 3118TIP3    H130845   0.123   2.454   6.232  0.9140  2.6455 -0.0950
 3118TIP3    H230846   0.015   2.403   6.139  1.8616 -0.2184  0.2685
 3119TIP3   OH230847   0.212   1.711 110.147 -0.1057  0.1114  0.1864
 3119TIP3    H130848   0.196   1.781 110.084  1.1065  0.1121 -0.1384
 3119TIP3    H230849   0.213   1.756 110.232  0.4757  0.4629 -0.0030
 3120TIP3   OH230850   0.027   1.818 106.595  0.2458  0.1869  0.3037
 3120TIP3    H130851   0.030   1.728 106.627 -1.9937 -0.4639 -1.0546
 3120TIP3    H230852   0.009   1.870 106.673 -0.3322 -0.7841  0.8471
 3121TIP3   OH230853   2.314   0.234  94.706 -0.2032 -0.1541  0.3466
 3121TIP3    H130854   2.312   0.298  94.778 -0.3120 -0.5001  0.6580
 3121TIP3    H230855   2.402   0.243  94.669 -0.8896  1.6665 -0.9826
 3122TIP3   OH230856   1.178   1.176  24.876 -0.7956  0.0319 -0.1756
 3122TIP3    H130857   1.269   1.159  24.851 -1.6231 -1.8309 -2.2189
 3122TIP3    H230858   1.169   1.271  24.867  0.7509  0.1730 -0.6355
 3123TIP3   OH230859   2.097   0.195   0.027  0.4092  0.0655 -0.0867
 3123TIP3    H130860   2.034   0.265   0.045 -0.7617 -0.8057 -0.6177
 3123TIP3    H230861   2.178   0.224   0.068 -0.3033  1.2936  0.5093
 3124TIP3   OH230862   1.572   0.595  25.714 -0.1283 -0.3761  0.2108
 3124TIP3    H130863   1.642   0.614  25.652 -0.6719  0.6043 -0.1350
 3124TIP3    H230864   1.602   0.518  25.762  0.2682 -1.2212 -1.3321
 3125TIP3   OH230865   0.144   0.481   5.913  0.6396  0.4327 -0.1897
 3125TIP3    H130866   0.056   0.469   5.949  1.7154  0.9754  2.9160
 3125TIP3    H230867   0.131   0.536   5.836 -1.9907 -1.9681 -1.6551
 3126TIP3   OH230868   1.197   2.174 102.994  0.2059  0.6025  0.2504
 3126TIP3    H130869   1.246   2.235 103.049 -1.3451  1.5362  0.6815
 3126TIP3    H230870   1.128   2.140 103.051  0.7368 -1.2286 -0.1323
 3127TIP3   OH230871   1.622   1.460  12.523 -0.0269 -0.2545 -0.8563
 3127TIP3    H130872   1.610   1.460  12.429  0.0797 -1.3095 -0.8827
 3127TIP3    H230873   1.617   1.368  12.548  1.4095 -0.1306 -0.0241
 3128TIP3   OH230874   2.304   2.054  87.135  0.5355  0.2671 -0.2915
 3128TIP3    H130875   2.397   2.054  87.112  0.6286 -2.1810 -0.1997
 3128TIP3    H230876   2.303   2.038  87.230  0.0082  1.8251 -0.0054
 3129TIP3   OH230877   2.659   0.629 108.526  0.2344 -0.2916 -0.3014
 3129TIP3    H130878   2.580   0.652 108.477 -0.0872 -0.3218  0.1968
 3129TIP3    H230879   2.730   0.676 108.480 -0.2569  0.8174  0.0264
 3130TIP3   OH230880   1.245   2.470  24.847  0.0487 -0.9060  0.6462
 3130TIP3    H130881   1.280   2.556  24.822 -1.1672 -0.4877  0.3064
 3130TIP3    H230882   1.204   2.437  24.767  0.4709 -1.7924  0.7905
 3131TIP3   OH230883   2.344   2.359  80.984 -0.2334 -0.3121 -0.2932
 3131TIP3    H130884   2.428   2.371  80.938  0.2809 -0.4655  0.5833
 3131TIP3    H230885   2.343   2.267  81.008 -1.3580 -0.6771 -1.5993
 3132TIP3   OH230886   2.230   2.649 107.984 -0.2976  0.2091  0.3917
 3132TIP3    H130887   2.296   2.588 107.952 -0.9985 -0.6676  0.5861
 3132TIP3    H230888   2.263   2.677 108.070  0.5782  1.0027 -0.1698
 3133TIP3   OH230889   2.173   0.509  94.311 -0.0093 -0.1136 -0.3291
 3133TIP3    H130890   2.089   0.487  94.271  0.1472  0.9428 -1.3051
 3133TIP3    H230891   2.160   0.494  94.405 -1.0491 -0.6605 -0.5451
 3134TIP3   OH230892   1.341   0.505  36.135  1.6152  1.0871 -0.0413
 3134TIP3    H130893   1.284   0.458  36.196  0.4291  0.8193 -1.2993
 3134TIP3    H230894   1.301   0.592  36.127  2.5443  1.5885  0.5830
 3135TIP3   OH230895   2.399   2.060  23.662  0.0636  0.5771  0.1998
 3135TIP3    H130896   2.307   2.062  23.685  0.5984  0.0961  2.7195
 3135TIP3    H230897   2.400   2.051  23.566 -2.4837 -0.3714  0.1841
 3136TIP3   OH230898   0.980   0.854  32.843 -0.0634 -0.3903  0.3604
 3136TIP3    H130899   0.991   0.773  32.892  1.4809 -0.4427 -0.0277
 3136TIP3    H230900   1.059   0.904  32.861  1.2187 -0.9265 -2.9940
 3137TIP3   OH230901   1.621   1.094  22.715 -0.2686  0.1710  0.2647
 3137TIP3    H130902   1.663   1.013  22.742 -1.1182 -0.2868  0.2307
 3137TIP3    H230903   1.573   1.071  22.635 -0.2214  0.7961  0.0432
 3138TIP3   OH230904   1.382   1.106  96.084  0.1526  0.1055 -0.6575
 3138TIP3    H130905   1.323   1.107  96.159  1.6330 -0.0695  0.5780
 3138TIP3    H230906   1.374   1.017  96.049 -0.9578  0.3549 -1.0796
 3139TIP3   OH230907   0.964   2.608 105.985  0.2449  0.2091 -0.2866
 3139TIP3    H130908   1.040   2.594 105.929  0.1297  0.6238 -0.5642
 3139TIP3    H230909   0.989   2.680 106.042 -0.4314  1.3547 -1.3663
 3140TIP3   OH230910   0.455   2.487  75.857  0.1911 -0.1748  0.4174
 3140TIP3    H130911   0.417   2.491  75.945 -2.4740  1.7648 -0.6965
 3140TIP3    H230912   0.545   2.517  75.869 -0.6200  1.7821  2.2855
 3141TIP3   OH230913   1.040   1.354  15.130  0.0870 -0.4969  0.1963
 3141TIP3    H130914   1.099   1.404  15.187 -0.2689  1.6653 -1.2069
 3141TIP3    H230915   1.099   1.309  15.069  0.3724  0.4903 -0.2848
 3142TIP3   OH230916   0.451   1.608 110.145 -0.2890 -0.5801 -0.1481
 3142TIP3    H130917   0.365   1.650 110.139 -0.1127  0.0242  1.0868
 3142TIP3    H230918   0.432   1.514 110.139 -0.9555 -0.4199 -0.6076
 3143TIP3   OH230919   1.362   2.417  11.294  0.1806  0.2311  0.4359
 3143TIP3    H130920   1.353   2.431  11.200  1.0154  0.9186  0.4427
 3143TIP3    H230921   1.456   2.428  11.311  0.3083 -1.5307  1.1013
 3144TIP3   OH230922   2.657   1.594  91.704 -0.2332 -0.3979 -0.5875
 3144TIP3    H130923   2.721   1.622  91.769  1.6568 -0.5774 -2.2771
 3144TIP3    H230924   2.600   1.670  91.691  0.2561  0.1137  0.2224
 3145TIP3   OH230925   1.223   0.076  17.869  0.0908 -0.4839 -0.2620
 3145TIP3    H130926   1.136   0.059  17.833  0.6314 -0.2612 -1.7922
 3145TIP3    H230927   1.246   0.162  17.834  1.2473 -0.9136 -0.6019
 3146TIP3   OH230928   1.143   0.676  37.219  0.1602 -0.1756  0.2416
 3146TIP3    H130929   1.147   0.581  37.212  0.8115 -0.1333 -0.0226
 3146TIP3    H230930   1.125   0.706  37.130  0.0440 -0.0456  0.3081
 3147TIP3   OH230931   0.061   1.151 105.310 -0.6033 -0.0619  0.2356
 3147TIP3    H130932   0.054   1.061 105.277  2.0519 -0.7033  1.1805
 3147TIP3    H230933   0.053   1.206 105.232  0.5464 -1.2966 -0.8020
 3148TIP3   OH230934   0.178   2.454  11.587 -0.1000 -0.0761 -0.2909
 3148TIP3    H130935   0.119   2.449  11.662 -0.5128  2.6208 -0.3409
 3148TIP3    H230936   0.140   2.521  11.531  1.2569 -0.6397 -1.9722
 3149TIP3   OH230937   2.679   1.595  75.373 -0.9279  0.0162  0.1100
 3149TIP3    H130938   2.649   1.644  75.450  0.2103  0.6622  0.1610
 3149TIP3    H230939   2.647   1.646  75.299 -0.6549  0.2568  0.1610
 3150TIP3   OH230940   0.913   0.843  35.676  0.3422  0.5441  0.5456
 3150TIP3    H130941   0.998   0.885  35.663 -0.3048  2.2427  1.4913
 3150TIP3    H230942   0.924   0.793  35.757  0.8090 -0.3191 -0.0352
 3151TIP3   OH230943   0.902   0.127   2.217  0.3533  0.1910  0.0387
 3151TIP3    H130944   0.939   0.043   2.188 -0.6736 -0.2837  0.0678
 3151TIP3    H230945   0.885   0.174   2.135  0.0244 -0.0279 -0.0209
 3152TIP3   OH230946   0.741   0.226  26.920  0.1416  0.4935  0.5574
 3152TIP3    H130947   0.686   0.234  26.998  0.8370  0.4625  1.0595
 3152TIP3    H230948   0.777   0.137  26.925 -2.9651 -1.1570 -1.9404
 3153TIP3   OH230949   1.915   2.338   3.815 -0.2547  0.0654  0.1351
 3153TIP3    H130950   1.951   2.419   3.851  1.6648 -0.8938  0.4931
 3153TIP3    H230951   1.906   2.280   3.890  0.7444 -0.8718 -0.4390
 3154TIP3   OH230952   2.331   2.407  82.856  1.1088 -0.2303  0.2525
 3154TIP3    H130953   2.240   2.396  82.829  1.0770 -1.8640  0.9412
 3154TIP3    H230954   2.382   2.388  82.777  0.8920  0.0302  0.0458
 3155TIP3   OH230955   2.233   1.264   8.174 -0.2963 -0.1674 -0.4823
 3155TIP3    H130956   2.309   1.321   8.163 -2.1209  2.8382  0.9912
 3155TIP3    H230957   2.202   1.284   8.263 -1.2771 -3.3322 -0.0006
 3156TIP3   OH230958   2.342   0.273  31.151 -0.0305  0.0008 -0.6790
 3156TIP3    H130959   2.433   0.299  31.166  0.3978 -1.8222  0.0863
 3156TIP3    H230960   2.291   0.324  31.213  0.5822  0.2507 -0.3802
 3157TIP3   OH230961   2.603   2.155  22.336 -0.2247 -0.2535  0.0646
 3157TIP3    H130962   2.634   2.119  22.252  1.6267  0.8750  0.2198
 3157TIP3    H230963   2.628   2.088  22.400 -1.0837 -0.8321 -0.1809
 3158TIP3   OH230964   1.629   2.266  31.862  0.1945  0.0075  0.0865
 3158TIP3    H130965   1.550   2.251  31.914  0.3218 -0.9013  0.0348
 3158TIP3    H230966   1.597   2.309  31.782 -0.3584 -0.9812 -0.2528
 3159TIP3   OH230967   2.249   0.132  94.283 -0.6138  0.3796  0.2113
 3159TIP3    H130968   2.323   0.191  94.268 -0.0730  0.3626  2.5017
 3159TIP3    H230969   2.199   0.135  94.201  1.3322  1.2077 -1.0185
 3160TIP3   OH230970   2.248   1.092  18.159 -0.2980  0.0204  0.1635
 3160TIP3    H130971   2.343   1.103  18.158 -0.4373  1.5329  0.4685
 3160TIP3    H230972   2.233   1.017  18.217  0.6418  0.8455  1.5271
 3161TIP3   OH230973   0.769   1.556 106.897 -0.0345 -0.1558  0.0914
 3161TIP3    H130974   0.759   1.629 106.957 -1.7066 -1.3170  1.3307
 3161TIP3    H230975   0.717   1.580 106.820  1.1704  0.8283 -0.4526
 3162TIP3   OH230976   0.894   0.893  80.027  0.4432  0.5997 -0.0380
 3162TIP3    H130977   0.943   0.968  80.060  0.6453  1.4811 -2.1534
 3162TIP3    H230978   0.945   0.862  79.952  0.2661 -1.5820  0.6767
 3163TIP3   OH230979   0.829   0.350  67.511  0.1215  0.1799  0.0794
 3163TIP3    H130980   0.914   0.393  67.504  0.8562 -1.2937 -0.4568
 3163TIP3    H230981   0.848   0.257  67.505 -1.7494 -0.1613 -2.4376
 3164TIP3   OH230982   2.036   1.400  85.323  0.4252 -0.2212 -0.2583
 3164TIP3    H130983   2.102   1.382  85.390  0.4265  0.5782 -0.0423
 3164TIP3    H230984   1.954   1.369  85.360  0.5913 -0.7543 -0.3290
 3165TIP3   OH230985   2.596   2.581  90.872  0.6487 -0.1891 -0.4064
 3165TIP3    H130986   2.607   2.609  90.781 -0.4606  1.2294 -0.1347
 3165TIP3    H230987   2.611   2.661  90.924 -0.7479 -0.4931  0.5225
 3166TIP3   OH230988   2.437   1.768   0.925 -0.1755 -0.5996 -0.1873
 3166TIP3    H130989   2.380   1.777   1.001  0.9367  1.1784  0.5105
 3166TIP3    H230990   2.521   1.804   0.953  0.4827 -0.5705 -2.0305
 3167TIP3   OH230991   1.427   0.916  85.281  0.7355  0.2347  0.2642
 3167TIP3    H130992   1.385   0.880  85.359  0.7422 -2.7636 -0.9777
 3167TIP3    H230993   1.507   0.958  85.313  1.3561 -1.9790  1.7777
 3168TIP3   OH230994   1.334   0.993  29.828 -0.1836 -0.8329 -0.5964
 3168TIP3    H130995   1.279   1.026  29.898  0.8133  0.5551 -0.4174
 3168TIP3    H230996   1.419   0.979  29.870 -0.0681 -1.7623 -1.1283
 3169TIP3   OH230997   1.163   1.838  34.761  0.1134 -0.3957  0.3275
 3169TIP3    H130998   1.188   1.885  34.840 -1.3919  2.3669 -0.7135
 3169TIP3    H230999   1.244   1.834  34.710  0.7600 -0.9059  1.3537
 3170TIP3   OH231000   2.271   0.189   5.291 -0.2797 -0.6697 -0.4360
 3170TIP3    H131001   2.337   0.241   5.338 -1.1589 -0.0255  0.1298
 3170TIP3    H231002   2.196   0.187   5.350 -0.8299 -1.2541 -1.1335
 3171TIP3   OH231003   1.289   0.903  29.322 -0.3819  0.7599  0.0703
 3171TIP3    H131004   1.194   0.896  29.321 -0.3274 -0.8044  1.1265
 3171TIP3    H231005   1.311   0.917  29.414  0.3431  3.4721 -0.4328
 3172TIP3   OH231006   1.900   0.511  37.231  0.1969  0.4327  0.3685
 3172TIP3    H131007   1.947   0.561  37.163  2.5416 -0.6858  1.0602
 3172TIP3    H231008   1.970   0.472  37.284 -1.4765 -2.8326  0.4178
 3173TIP3   OH231009   1.247   1.946 102.405 -0.0666 -0.6658 -0.1932
 3173TIP3    H131010   1.174   1.896 102.369  0.9131 -1.4875 -1.1304
 3173TIP3    H231011   1.309   1.954 102.332  1.7002 -1.7964  1.1000
 3174TIP3   OH231012   0.355   0.123  37.641 -0.4259 -0.4654  0.4168
 3174TIP3    H131013   0.385   0.118  37.732  0.9228 -1.3545 -0.0550
 3174TIP3    H231014   0.267   0.161  37.647 -0.5872 -1.0413  2.1269
 3175TIP3   OH231015   2.456   2.213  79.975 -0.3318 -0.3300  0.1131
 3175TIP3    H131016   2.416   2.297  79.955 -0.4470 -0.4594 -0.2070
 3175TIP3    H231017   2.534   2.210  79.921  1.2206  0.7607  2.1577
 3176TIP3   OH231018   0.571   2.589  23.162  0.2767  0.4331 -0.3817
 3176TIP3    H131019   0.539   2.675  23.135 -1.5423  0.7420  2.3440
 3176TIP3    H231020   0.519   2.527  23.110 -0.8492  0.9869  0.0556
 3177TIP3   OH231021   2.267   0.059  13.550 -0.6013  0.7476  0.4539
 3177TIP3    H131022   2.271  -0.018  13.493 -0.0515  1.1199 -0.0317
 3177TIP3    H231023   2.336   0.117  13.516  0.5505  0.4905  2.2278
 3178TIP3   OH231024   1.427   0.394  84.275 -0.1660  0.1856  0.3248
 3178TIP3    H131025   1.486   0.348  84.334 -1.1092 -1.2828  0.1767
 3178TIP3    H231026   1.475   0.400  84.193  1.1444  2.2076  1.1498
 3179TIP3   OH231027   0.522   0.913   4.532  0.3877 -0.3833 -0.1755
 3179TIP3    H131028   0.552   0.990   4.482 -1.8731  1.3977  1.0195
 3179TIP3    H231029   0.587   0.903   4.602  1.2604 -0.2336 -0.9382
 3180TIP3   OH231030   1.636   0.862  24.520  0.1568 -1.0530  0.0793
 3180TIP3    H131031   1.601   0.856  24.608  1.2831 -1.3564  0.5184
 3180TIP3    H231032   1.693   0.939  24.521  1.4546 -1.9684  0.1085
 3181TIP3   OH231033   2.447   1.319   1.157 -0.2866 -0.0971  0.0373
 3181TIP3    H131034   2.410   1.354   1.076 -0.5321 -1.4317 -0.4629
 3181TIP3    H231035   2.522   1.267   1.128 -0.8136 -1.1819  0.5792
 3182TIP3   OH231036   0.205   2.669   4.469  0.1017 -0.5575 -0.2164
 3182TIP3    H131037   0.161   2.733   4.524 -0.9538  1.0802 -2.7673
 3182TIP3    H231038   0.281   2.715   4.433 -0.8683 -0.5000 -2.3705
 3183TIP3   OH231039   0.981   0.567  95.456  0.2309  0.0501  0.1430
 3183TIP3    H131040   0.888   0.550  95.444 -0.1128 -0.3136  2.7099
 3183TIP3    H231041   1.023   0.526  95.381 -1.5083 -1.9190  0.1618
 3184TIP3   OH231042   2.260   0.018  21.485  0.4494 -0.3991  0.0410
 3184TIP3    H131043   2.284  -0.069  21.453  0.9616 -0.3295  0.2339
 3184TIP3    H231044   2.343   0.065  21.491  0.0225  0.6755 -1.7367
 3185TIP3   OH231045   0.410   2.584  24.317  0.3959  0.3113 -0.1981
 3185TIP3    H131046   0.486   2.640  24.335  0.3541 -0.0702  1.2775
 3185TIP3    H231047   0.342   2.614  24.377 -0.0825 -0.4117 -0.3577
 3186TIP3   OH231048   0.178   0.503  12.806 -0.5549  0.1337 -0.5147
 3186TIP3    H131049   0.148   0.585  12.766 -1.6514  0.9499  1.7569
 3186TIP3    H231050   0.173   0.520  12.900  1.4706 -1.7862  0.0130
 3187TIP3   OH231051   0.989   0.344 103.299  0.0054 -0.2002 -0.6430
 3187TIP3    H131052   1.024   0.432 103.287 -0.8005  0.0529 -1.2239
 3187TIP3    H231053   1.062   0.293 103.334  0.7251  0.4845 -1.1340
 3188TIP3   OH231054   0.286   1.765 102.049 -0.0084  0.3152 -0.3216
 3188TIP3    H131055   0.251   1.812 101.973  1.7056 -0.8963 -1.9370
 3188TIP3    H231056   0.302   1.676 102.017  0.4018 -0.3460  1.5956
 3189TIP3   OH231057   2.392   0.955  99.712 -0.2401 -0.1677  0.5616
 3189TIP3    H131058   2.455   0.930  99.646  0.2929 -0.0382  1.0173
 3189TIP3    H231059   2.434   1.026  99.761 -1.4013  1.1185 -0.2088
 3190TIP3   OH231060   1.596   2.341  22.663 -0.1046 -0.0701  0.2831
 3190TIP3    H131061   1.575   2.313  22.574  3.5650 -1.7167 -0.2606
 3190TIP3    H231062   1.630   2.429  22.653  0.9279 -0.4955 -0.1095
 3191TIP3   OH231063   0.248   0.742  75.093  0.0024  0.2854 -0.5064
 3191TIP3    H131064   0.195   0.803  75.042 -1.2401 -0.0936  0.3007
 3191TIP3    H231065   0.288   0.796  75.161  1.8111  0.8276 -1.9268
 3192TIP3   OH231066   1.777   2.335  89.020 -0.4192  0.3729 -0.9429
 3192TIP3    H131067   1.690   2.349  88.983 -1.9750  1.7553  2.6957
 3192TIP3    H231068   1.829   2.410  88.991 -0.8505  0.2861 -1.9801
 3193TIP3   OH231069   1.735   2.674  23.592 -0.5720 -0.1224  0.0016
 3193TIP3    H131070   1.821   2.640  23.568 -1.0413 -0.0474 -1.9235
 3193TIP3    H231071   1.716   2.741  23.526 -1.9024  0.2243  0.6935
 3194TIP3   OH231072   1.162   0.866  92.845 -0.2575 -0.3791  0.0642
 3194TIP3    H131073   1.204   0.800  92.900  1.3836  0.1287 -0.5233
 3194TIP3    H231074   1.173   0.948  92.893  0.1885 -0.1110 -0.4838
 3195TIP3   OH231075   2.520   1.342   1.420  0.3898 -0.2808 -0.1438
 3195TIP3    H131076   2.486   1.430   1.434 -1.3678 -0.8764 -0.4778
 3195TIP3    H231077   2.493   1.319   1.331  1.2336 -0.9992 -0.2353
 3196TIP3   OH231078   1.214   2.127  30.213 -0.1869 -0.3958 -0.2464
 3196TIP3    H131079   1.123   2.106  30.191 -0.4870  0.8083 -0.2426
 3196TIP3    H231080   1.254   2.149  30.129 -0.5467  1.3526  0.0079
 3197TIP3   OH231081   1.211   2.385  30.820 -0.1479  0.0309  0.4126
 3197TIP3    H131082   1.240   2.428  30.740 -1.3643 -0.1021 -0.1242
 3197TIP3    H231083   1.121   2.416  30.832 -0.4204 -0.9623  1.0153
 3198TIP3   OH231084   1.440   2.104  90.317 -0.0734 -0.6839  0.4301
 3198TIP3    H131085   1.525   2.067  90.341 -1.1304 -1.9207  2.5436
 3198TIP3    H231086   1.417   2.160  90.391 -0.1402  1.4788 -1.1175
 3199TIP3   OH231087   0.622   0.182  97.972  0.4678 -0.2304  0.3204
 3199TIP3    H131088   0.707   0.173  98.015  0.8805 -2.7848 -0.8554
 3199TIP3    H231089   0.641   0.173  97.879 -1.1865 -2.5737  0.1178
 3200TIP3   OH231090   1.024   2.109  33.099 -0.6309  0.3079 -0.3530
 3200TIP3    H131091   1.045   2.050  33.026 -0.1736  0.0180  0.0069
 3200TIP3    H231092   1.100   2.165  33.107 -0.8431  0.5951 -0.3453
 3201TIP3   OH231093   1.187   0.238  33.733  0.3071  0.6395  0.3961
 3201TIP3    H131094   1.188   0.263  33.825 -1.3977 -0.0112  0.6178
 3201TIP3    H231095   1.261   0.178  33.724 -1.2093 -1.6386  2.0926
 3202TIP3   OH231096   1.769   1.305 100.641  0.0204  0.0830  0.2017
 3202TIP3    H131097   1.781   1.308 100.736  0.6423 -0.8668  0.1604
 3202TIP3    H231098   1.683   1.346 100.627 -0.6760 -0.9363  1.2851
 3203TIP3   OH231099   0.802   1.470  25.423  0.1109  0.4633  0.0134
 3203TIP3    H131100   0.744   1.518  25.364 -1.3607 -1.8234 -0.5607
 3203TIP3    H231101   0.783   1.505  25.510 -0.4831  1.3125 -0.4490
 3204TIP3   OH231102   1.255   0.370  78.349  0.3527  0.1299 -0.2682
 3204TIP3    H131103   1.176   0.365  78.403  0.1406  1.1513 -0.4641
 3204TIP3    H231104   1.264   0.463  78.328  0.8296 -0.1604 -1.4115
 3205TIP3   OH231105   2.016   0.977  27.023  0.3338 -0.1627 -0.1911
 3205TIP3    H131106   2.022   1.068  27.051 -0.1681 -0.7976  2.1947
 3205TIP3    H231107   2.107   0.947  27.018  0.5091  0.5176 -1.2186
 3206TIP3   OH231108   1.666   1.670  73.577  0.3101 -0.9143  0.1292
 3206TIP3    H131109   1.602   1.710  73.637 -0.8137 -2.3421 -0.0828
 3206TIP3    H231110   1.632   1.690  73.490 -0.0574 -1.9857  0.0208
 3207TIP3   OH231111   2.140   1.716  13.887 -0.7036 -0.2862 -0.5264
 3207TIP3    H131112   2.145   1.770  13.966  0.7372 -0.4124 -0.5145
 3207TIP3    H231113   2.058   1.744  13.845 -0.3343  1.4505 -0.1923
 3208TIP3   OH231114   2.317   0.167  76.769  0.6585 -0.2268 -0.1586
 3208TIP3    H131115   2.301   0.151  76.863  0.3506 -0.6787 -0.2850
 3208TIP3    H231116   2.295   0.259  76.756 -3.3801 -1.0864 -0.6023
 3209TIP3   OH231117   2.479   0.103  87.898  0.5418 -0.4816 -0.1694
 3209TIP3    H131118   2.552   0.094  87.959  0.4417 -0.9372 -0.1120
 3209TIP3    H231119   2.493   0.032  87.834  0.6405 -0.0227 -0.6644
 3210TIP3   OH231120   2.264   1.558  95.329  0.4237  0.0600  0.2894
 3210TIP3    H131121   2.211   1.479  95.336 -0.3550  0.6322  0.9348
 3210TIP3    H231122   2.343   1.538  95.379  0.4163 -0.4513  0.1002
 3211TIP3   OH231123   1.785   0.197 109.028  0.4185 -0.1387  0.0830
 3211TIP3    H131124   1.815   0.141 109.099  1.9052 -0.5351 -0.8055
 3211TIP3    H231125   1.776   0.138 108.953 -1.0608  0.2770 -0.0947
 3212TIP3   OH231126   0.906   0.475  74.717 -0.1611 -0.7374  0.3442
 3212TIP3    H131127   0.863   0.448  74.798 -0.0206  1.0934  1.0951
 3212TIP3    H231128   0.945   0.560  74.738 -1.3589  0.5042 -2.0204
 3213TIP3   OH231129   2.642   2.487   2.041  0.1341  0.1245 -0.0579
 3213TIP3    H131130   2.663   2.506   1.949 -0.0386  1.8839  0.2289
 3213TIP3    H231131   2.726   2.492   2.086  0.1250 -0.0829 -0.0178
 3214TIP3   OH231132   1.341   2.630  88.190 -0.4598  0.6727 -0.6265
 3214TIP3    H131133   1.372   2.590  88.109 -0.3383  2.0388 -1.2768
 3214TIP3    H231134   1.396   2.592  88.259 -1.9911 -2.1966 -0.8158
 3215TIP3   OH231135   2.440   0.205  80.801 -0.0744  0.3275 -0.0223
 3215TIP3    H131136   2.436   0.110  80.789  1.2409  0.4994 -2.1463
 3215TIP3    H231137   2.390   0.220  80.882 -2.2309 -1.9223 -0.7922
 3216TIP3   OH231138   2.381   2.235  15.849 -0.2063  0.3507 -0.5885
 3216TIP3    H131139   2.398   2.155  15.899 -0.6388 -0.1174 -1.1779
 3216TIP3    H231140   2.328   2.206  15.774 -0.0730  1.1336 -0.9966
 3217TIP3   OH231141   1.220   2.249  93.433  0.1114 -0.1164 -0.2250
 3217TIP3    H131142   1.196   2.341  93.431  1.2000  0.2265  1.1199
 3217TIP3    H231143   1.315   2.249  93.440  0.0217 -1.2730  1.7936
 3218TIP3   OH231144   2.414   2.403  33.609  0.2632  0.0887 -0.0611
 3218TIP3    H131145   2.433   2.309  33.605 -0.9839 -0.1892 -0.1087
 3218TIP3    H231146   2.354   2.412  33.683  0.3387  0.8419 -0.0831
 3219TIP3   OH231147   1.216   2.576  13.440 -0.4806 -0.1122 -0.3099
 3219TIP3    H131148   1.281   2.519  13.481 -0.5210  0.7261  1.0100
 3219TIP3    H231149   1.142   2.575  13.501 -0.4581  1.3458 -0.2197
 3220TIP3   OH231150   0.596   2.521  84.907 -0.3425  0.0972 -0.2907
 3220TIP3    H131151   0.525   2.471  84.867  0.6412 -0.4260 -1.4562
 3220TIP3    H231152   0.607   2.482  84.994 -0.9923 -0.2864 -0.3704
 3221TIP3   OH231153   2.320   2.133  23.369 -0.0658  0.0499  0.1925
 3221TIP3    H131154   2.329   2.113  23.276  2.6285  1.1848  0.1023
 3221TIP3    H231155   2.316   2.229  23.372 -0.9181  0.0023  1.2343
 3222TIP3   OH231156   2.459   0.539 105.254 -0.1589  0.2922 -0.2809
 3222TIP3    H131157   2.518   0.559 105.183  0.5803  1.0468  0.5189
 3222TIP3    H231158   2.371   0.543 105.215  0.2677 -0.0148 -1.2856
 3223TIP3   OH231159   1.930   1.309  97.982 -0.1339 -0.4419 -0.1417
 3223TIP3    H131160   1.839   1.295  97.956 -0.3483  0.8705 -0.1898
 3223TIP3    H231161   1.942   1.404  97.975  1.3660 -0.6323 -0.5643
 3224TIP3   OH231162   0.524   1.561  33.997 -0.1167  0.6196  0.6216
 3224TIP3    H131163   0.457   1.583  34.061 -0.0068  0.8623  0.6570
 3224TIP3    H231164   0.567   1.644  33.978 -1.2842  0.8875 -1.0708
 3225TIP3   OH231165   1.173   0.834  28.457 -0.7910  0.2258  0.0348
 3225TIP3    H131166   1.265   0.814  28.439 -1.0823 -2.7007  1.2196
 3225TIP3    H231167   1.176   0.916  28.507  1.3585 -0.6747  1.5534
 3226TIP3   OH231168   0.210   1.349   3.436  0.1178 -0.1267  0.1092
 3226TIP3    H131169   0.227   1.256   3.452 -0.6467 -0.0927  1.2668
 3226TIP3    H231170   0.115   1.354   3.428  0.0704  0.6858  1.0535
 3227TIP3   OH231171   2.016   1.494  13.633 -0.4608  0.6337 -0.0573
 3227TIP3    H131172   2.065   1.483  13.715  0.0480  2.0019 -0.1548
 3227TIP3    H231173   2.074   1.458  13.566  0.0550  1.4379 -0.0599
 3228TIP3   OH231174   2.632   1.745  81.692  0.3420  0.2555 -0.0370
 3228TIP3    H131175   2.634   1.730  81.597  0.0974  1.0704 -0.1815
 3228TIP3    H231176   2.720   1.777  81.712 -0.4930  3.3301 -0.5980
 3229TIP3   OH231177   1.435   0.814  27.226  0.0573 -1.0977  0.0945
 3229TIP3    H131178   1.367   0.881  27.230  0.2882 -0.8550  0.0120
 3229TIP3    H231179   1.395   0.742  27.178 -0.5991 -1.5048  1.1931
 3230TIP3   OH231180   2.160   1.327  16.297  0.1273  0.6289  0.1177
 3230TIP3    H131181   2.103   1.330  16.375 -0.0798 -0.5956  0.0429
 3230TIP3    H231182   2.244   1.360  16.328  0.0827  0.0438  0.9071
 3231TIP3   OH231183   2.616   1.820  18.373  0.4111 -0.3925  0.0535
 3231TIP3    H131184   2.704   1.802  18.406  0.9511  0.7875 -0.6717
 3231TIP3    H231185   2.630   1.874  18.295 -0.9633 -0.0493  0.0114
 3232TIP3   OH231186   1.558   1.337  74.388 -0.2854 -0.0110 -0.5843
 3232TIP3    H131187   1.487   1.277  74.363  0.7368 -0.9292 -1.3878
 3232TIP3    H231188   1.540   1.359  74.479 -0.6732 -1.5946 -0.2532
 3233TIP3   OH231189   1.103   0.328  97.781  0.4562  0.2549 -0.5815
 3233TIP3    H131190   1.130   0.256  97.838 -0.2823  0.3119 -0.1498
 3233TIP3    H231191   1.181   0.383  97.773  0.4682  0.4471  0.6816
 3234TIP3   OH231192   0.194   0.346 103.722  0.0122  0.2917 -0.4993
 3234TIP3    H131193   0.165   0.257 103.701  0.9685 -0.4938  1.2259
 3234TIP3    H231194   0.238   0.377 103.644 -0.9054 -0.4907 -1.3513
 3235TIP3   OH231195   1.490   0.161  16.291  0.1420  0.2583 -0.2487
 3235TIP3    H131196   1.510   0.253  16.274  0.5920  0.1368 -0.3754
 3235TIP3    H231197   1.404   0.163  16.333  0.2299  0.7516 -0.0864
 3236TIP3   OH231198   1.296   0.637  63.554 -0.1567 -0.3549  0.3200
 3236TIP3    H131199   1.337   0.660  63.637 -0.5437  0.4231  0.3022
 3236TIP3    H231200   1.341   0.557  63.526  0.3489 -0.3144  1.0037
 3237TIP3   OH231201   2.169   1.004   8.297 -0.1821  0.3675  0.5703
 3237TIP3    H131202   2.164   1.100   8.294  0.8962  0.4252  0.0526
 3237TIP3    H231203   2.079   0.975   8.286 -0.3282  1.2983 -0.9740
 3238TIP3   OH231204   1.415   1.621  96.049 -0.2722  0.4947  0.4896
 3238TIP3    H131205   1.388   1.700  96.004  2.2223  1.4591  0.5374
 3238TIP3    H231206   1.456   1.651  96.130  1.1597 -0.7578  0.2932
 3239TIP3   OH231207   1.685   1.634  30.748 -0.2287  0.0758 -0.0340
 3239TIP3    H131208   1.593   1.607  30.746  0.1510 -1.1812 -0.7651
 3239TIP3    H231209   1.726   1.575  30.811 -0.3042  2.0283  2.0096
 3240TIP3   OH231210   2.391   1.700  34.537  0.2123 -0.0494  0.1795
 3240TIP3    H131211   2.372   1.607  34.524 -0.5673 -0.5161  3.5923
 3240TIP3    H231212   2.305   1.742  34.540  0.4912  0.5406  0.0127
 3241TIP3   OH231213   0.332   1.222   2.373 -0.5484 -0.0125  0.0710
 3241TIP3    H131214   0.261   1.215   2.437  0.9763 -1.6304  1.7213
 3241TIP3    H231215   0.396   1.280   2.414  0.2604 -0.7151 -0.1621
 3242TIP3   OH231216   0.939   0.521 104.761  0.4082  0.1042 -0.0625
 3242TIP3    H131217   0.920   0.611 104.733 -0.9827 -0.0531  0.2908
 3242TIP3    H231218   0.898   0.514 104.848  0.1839 -0.9761 -0.2408
 3243TIP3   OH231219   1.579   0.687  29.485 -0.1010  0.1440  0.4023
 3243TIP3    H131220   1.520   0.671  29.411  0.5259  0.7582 -0.2413
 3243TIP3    H231221   1.626   0.767  29.462  0.9572 -0.3073  0.9141
 3244TIP3   OH231222   0.456   1.317  12.935  0.0205 -0.1778 -0.1926
 3244TIP3    H131223   0.406   1.397  12.951  0.7550  0.0136  1.2417
 3244TIP3    H231224   0.411   1.276  12.861 -0.9234  1.0841 -0.3592
 3245TIP3   OH231225   2.633   1.991  15.678 -0.3016 -0.3979 -0.8456
 3245TIP3    H131226   2.655   2.071  15.725  0.1502  0.2920 -2.1791
 3245TIP3    H231227   2.646   2.013  15.585 -2.9230 -1.1306 -1.4805
 3246TIP3   OH231228   0.099   0.637 107.279 -0.6479 -0.1545 -0.0727
 3246TIP3    H131229   0.013   0.630 107.321  0.2580 -0.8779  1.7554
 3246TIP3    H231230   0.104   0.561 107.222 -1.6071  0.4401 -0.9809
 3247TIP3   OH231231   0.617   1.801  29.695  0.3756  0.1522  0.7209
 3247TIP3    H131232   0.644   1.768  29.781  1.7507 -1.0202 -0.1242
 3247TIP3    H231233   0.571   1.728  29.654 -1.8680  1.2611  1.0761
 3248TIP3   OH231234   0.602   1.752  99.580 -0.7883  0.0622 -0.0296
 3248TIP3    H131235   0.553   1.670  99.584  0.4584 -0.9624 -3.1280
 3248TIP3    H231236   0.535   1.820  99.574 -1.8190 -0.9400 -0.1422
 3249TIP3   OH231237   2.108   2.644  29.733 -0.9428  0.0528 -0.4048
 3249TIP3    H131238   2.153   2.627  29.815  0.4160  3.1912 -0.3669
 3249TIP3    H231239   2.107   2.560  29.688  3.4759 -0.6339  0.3606
 3250TIP3   OH231240   0.610   1.519  77.721 -0.8868  0.1924 -0.0418
 3250TIP3    H131241   0.587   1.607  77.691 -1.2186 -0.0470 -0.4962
 3250TIP3    H231242   0.531   1.466  77.704  0.1517 -0.7939 -2.1638
 3251TIP3   OH231243   0.083   0.950  18.392  0.2248 -0.1230  0.0278
 3251TIP3    H131244   0.068   1.022  18.332 -2.2010 -1.0923 -0.6409
 3251TIP3    H231245   0.045   0.873  18.348  1.3833 -1.5248  1.3466
 3252TIP3   OH231246   2.141   0.453 110.311 -0.0576 -0.0504  0.0630
 3252TIP3    H131247   2.123   0.472 110.403  0.1674  1.4378 -0.1691
 3252TIP3    H231248   2.067   0.492 110.264  0.7951  0.9510 -0.4918
 3253TIP3   OH231249   1.828   1.308 108.482 -0.0102 -0.2376  0.7226
 3253TIP3    H131250   1.770   1.264 108.543 -0.2013 -0.6345  0.2609
 3253TIP3    H231251   1.859   1.385 108.529 -1.1912  0.1795  0.8462
 3254TIP3   OH231252   1.634   2.073  26.432  0.2923  0.1318 -0.3915
 3254TIP3    H131253   1.619   1.982  26.405 -1.3481 -0.4251  2.0628
 3254TIP3    H231254   1.595   2.125  26.361 -2.0179 -1.1860 -0.2066
 3255TIP3   OH231255   1.223   0.975  74.828 -0.1288  0.7142  0.2606
 3255TIP3    H131256   1.247   1.051  74.775 -0.7313  1.8477  1.5292
 3255TIP3    H231257   1.181   1.013  74.906  1.7104 -0.7815  2.0891
 3256TIP3   OH231258   0.939   2.636  77.390 -0.2572 -0.0204  0.2654
 3256TIP3    H131259   0.960   2.711  77.446 -0.6818  0.0596  0.3250
 3256TIP3    H231260   1.024   2.606  77.357 -0.0715  0.4170  0.3342
 3257TIP3   OH231261   2.618   2.587  84.042  0.0989  0.3960 -0.1985
 3257TIP3    H131262   2.532   2.610  84.006 -0.7906 -0.6845  1.1167
 3257TIP3    H231263   2.680   2.611  83.974 -1.3233  0.2838 -1.5917
 3258TIP3   OH231264   2.051   0.673  18.844 -0.3795  0.1357  0.1902
 3258TIP3    H131265   2.143   0.649  18.835 -0.3468  0.2294  0.2608
 3258TIP3    H231266   2.030   0.719  18.763  0.0353  1.3605  0.7494
 3259TIP3   OH231267   1.475   1.951  87.039 -0.3527 -0.0196 -0.3896
 3259TIP3    H131268   1.548   1.976  86.982  0.5471  1.6853  1.3882
 3259TIP3    H231269   1.491   1.998  87.121 -2.4967 -1.0344  0.7068
 3260TIP3   OH231270   2.418   1.181  31.689  0.5132  0.0435 -0.5158
 3260TIP3    H131271   2.466   1.108  31.650  0.4993  0.0375 -0.5214
 3260TIP3    H231272   2.428   1.168  31.784  0.4372 -0.0150 -0.5155
 3261TIP3   OH231273   0.170   1.726   1.627 -0.1399 -0.3134  0.0913
 3261TIP3    H131274   0.103   1.693   1.687 -0.3580 -0.8251 -0.4230
 3261TIP3    H231275   0.228   1.778   1.682  0.8439 -2.4369  1.1938
 3262TIP3   OH231276   2.448   0.232 108.314 -0.5171 -0.3308 -0.1884
 3262TIP3    H131277   2.514   0.211 108.249 -2.1493 -0.2280 -1.9759
 3262TIP3    H231278   2.496   0.273 108.385  1.5264 -1.7010 -0.6829
 3263TIP3   OH231279   0.308   1.215  77.100  0.4196  0.4329  0.1723
 3263TIP3    H131280   0.376   1.266  77.144  1.2814 -0.3058 -0.2738
 3263TIP3    H231281   0.309   1.246  77.010 -0.8840  1.4703  0.4859
 3264TIP3   OH231282   0.116   2.288  25.879 -0.1439  0.2561  0.1651
 3264TIP3    H131283   0.095   2.372  25.920  0.4518  0.1506  0.6978
 3264TIP3    H231284   0.193   2.308  25.824 -0.1714  0.1176  0.0766
 3265TIP3   OH231285   0.134   1.057  12.541 -0.2579 -0.3485  0.0300
 3265TIP3    H131286   0.184   1.106  12.476 -0.5468  0.1620  0.1867
 3265TIP3    H231287   0.150   0.965  12.520 -1.2684 -0.2168 -1.4823
 3266TIP3   OH231288   1.854   2.406 103.767 -0.2196 -0.3151 -0.5790
 3266TIP3    H131289   1.827   2.476 103.827 -1.0410 -0.4727 -0.7571
 3266TIP3    H231290   1.941   2.433 103.736 -0.4232  0.5032 -0.4540
 3267TIP3   OH231291   0.997   2.156   4.822 -0.2006 -0.4073  1.2213
 3267TIP3    H131292   0.927   2.200   4.773  1.8478  2.6305  0.7420
 3267TIP3    H231293   0.954   2.080   4.861 -3.2081  0.0244 -0.8507
 3268TIP3   OH231294   1.357   1.585  93.642  0.1233  0.2411  0.1064
 3268TIP3    H131295   1.408   1.597  93.561  0.1906 -0.6800 -0.0097
 3268TIP3    H231296   1.266   1.595  93.615  0.1184 -0.5262 -0.1965
 3269TIP3   OH231297   0.054   1.133  22.786 -0.2084 -0.4443 -0.1439
 3269TIP3    H131298   0.141   1.121  22.824 -0.2227  2.8259  1.2182
 3269TIP3    H231299  -0.003   1.080  22.843  0.5000 -0.1013  0.9224
 3270TIP3   OH231300   0.759   2.140  51.954  0.2661  0.1613 -0.2463
 3270TIP3    H131301   0.702   2.211  51.985 -0.7193 -1.3157  1.5312
 3270TIP3    H231302   0.705   2.091  51.891 -1.1666 -2.0829  2.4712
 3271TIP3   OH231303   2.182   1.358  94.937 -0.6982  0.0369  0.0483
 3271TIP3    H131304   2.253   1.299  94.911 -0.0748  1.3711 -1.4098
 3271TIP3    H231305   2.227   1.432  94.978 -1.2939  0.5498 -0.2173
 3272TIP3   OH231306   1.658   2.092  89.135 -0.0994 -0.1955  0.4084
 3272TIP3    H131307   1.718   2.163  89.114 -1.1499  0.8512  0.8399
 3272TIP3    H231308   1.631   2.056  89.050 -0.2867  0.5561  0.1431
 3273TIP3   OH231309   0.463   2.664  73.112  0.3322  0.0502  0.1987
 3273TIP3    H131310   0.375   2.629  73.097  0.1174  0.3742  0.6803
 3273TIP3    H231311   0.449   2.757  73.129  0.5805 -0.2326  2.1120
 3274TIP3   OH231312   2.301   1.674 109.514 -0.1010 -0.0214  0.1881
 3274TIP3    H131313   2.260   1.591 109.537  0.1857 -0.3343 -0.4197
 3274TIP3    H231314   2.377   1.650 109.462  0.0586  0.6166  0.1213
 3275TIP3   OH231315   1.282   2.501  30.580  0.4224 -0.4300  0.4927
 3275TIP3    H131316   1.231   2.435  30.533 -0.3437  0.9623 -0.7207
 3275TIP3    H231317   1.260   2.583  30.537  1.1094  0.6754  2.1453
 3276TIP3   OH231318   2.106   1.757  23.710  0.1927 -0.6323 -0.4766
 3276TIP3    H131319   2.154   1.722  23.785  0.6666 -0.3675 -0.6490
 3276TIP3    H231320   2.174   1.778  23.646  0.1644  2.2140  0.2668
 3277TIP3   OH231321   1.065   1.127  12.746 -0.2767  0.6921 -0.3926
 3277TIP3    H131322   1.014   1.208  12.751 -0.5798  0.5074 -0.4652
 3277TIP3    H231323   1.026   1.079  12.673 -1.0744 -0.1804  0.5668
 3278TIP3   OH231324   0.923   1.917 102.048 -0.0342 -0.0880  0.0708
 3278TIP3    H131325   0.980   1.992 102.032  2.8340 -1.9343  0.9145
 3278TIP3    H231326   0.876   1.940 102.128  1.6747  0.3603  0.9860
 3279TIP3   OH231327   1.623   1.856  35.870  0.5940  0.4697 -0.1430
 3279TIP3    H131328   1.541   1.811  35.893  0.5792  1.0799  1.1091
 3279TIP3    H231329   1.596   1.925  35.808  0.1944  0.5019  0.0625
 3280TIP3   OH231330   1.814   1.022  97.876  0.2264 -0.1756  0.5135
 3280TIP3    H131331   1.785   1.106  97.841  2.7036  0.5364 -0.0407
 3280TIP3    H231332   1.856   1.044  97.959 -0.0845 -1.0411  0.9143
 3281TIP3   OH231333   1.265   0.873  80.950  0.5454 -0.4671 -0.2937
 3281TIP3    H131334   1.281   0.956  80.904 -1.4634 -1.2171 -2.6039
 3281TIP3    H231335   1.175   0.850  80.925  0.8413 -3.0447  0.7518
 3282TIP3   OH231336   0.842   0.995 105.922 -0.0462 -0.6868  0.0268
 3282TIP3    H131337   0.781   0.923 105.904 -0.0835 -0.9636  1.1774
 3282TIP3    H231338   0.827   1.016 106.015  1.5233 -0.6949  0.3032
 3283TIP3   OH231339   0.917   1.492  18.911 -0.8487  0.3878  0.6231
 3283TIP3    H131340   0.937   1.583  18.888 -0.8525 -0.0553 -1.2930
 3283TIP3    H231341   0.828   1.479  18.879 -1.6966  0.3251  2.8849
 3284TIP3   OH231342   0.141   0.640  95.142  0.1962 -0.1013 -0.4738
 3284TIP3    H131343   0.178   0.634  95.230 -0.8312  0.5900  0.0369
 3284TIP3    H231344   0.205   0.690  95.092  0.3672  0.3120  0.1412
 3285TIP3   OH231345   1.631   1.872  24.230 -0.1351  0.0949  0.6688
 3285TIP3    H131346   1.658   1.807  24.294 -1.0524  1.2584  2.3271
 3285TIP3    H231347   1.547   1.840  24.197  1.3164 -1.5973 -1.6558
 3286TIP3   OH231348   2.497   2.602  73.892  0.2782  0.4994 -0.8350
 3286TIP3    H131349   2.530   2.566  73.974  0.3969  1.4777 -0.4371
 3286TIP3    H231350   2.482   2.695  73.911 -1.4127  0.3835 -1.3837
 3287TIP3   OH231351   0.221   1.178  68.991  0.0626  0.3986  0.2280
 3287TIP3    H131352   0.236   1.125  68.913  1.0618  1.0373 -0.0347
 3287TIP3    H231353   0.302   1.227  69.002 -0.8053  1.8038  0.5161
 3288TIP3   OH231354   2.045   0.444  80.554  0.5004 -0.2017  0.1238
 3288TIP3    H131355   1.989   0.368  80.560 -0.9302  0.7333 -0.7447
 3288TIP3    H231356   2.057   0.458  80.460 -1.8014  2.3559  0.0899
 3289TIP3   OH231357   1.375   0.621  32.351 -0.4215 -0.1390 -0.2985
 3289TIP3    H131358   1.427   0.683  32.300 -0.6289  0.6045  0.3790
 3289TIP3    H231359   1.380   0.653  32.441 -2.2429  0.0823 -0.2530
 3290TIP3   OH231360   1.808   1.125  96.585 -0.6951  0.6320  0.0593
 3290TIP3    H131361   1.824   1.142  96.492 -0.7554  1.6500  0.2219
 3290TIP3    H231362   1.813   1.030  96.594  0.6947  0.6121 -0.7325
 3291TIP3   OH231363   1.767   0.960  33.265  0.6209 -0.1453  0.0683
 3291TIP3    H131364   1.705   0.956  33.338 -0.0608 -0.5635 -0.5206
 3291TIP3    H231365   1.734   1.031  33.209  1.8586  1.0352  0.7923
 3292TIP3   OH231366   2.538   0.710  22.668 -0.2014  0.5273 -0.2669
 3292TIP3    H131367   2.510   0.634  22.719  0.3477  0.8404  0.5187
 3292TIP3    H231368   2.458   0.762  22.657 -0.3094  0.5034  0.3624
 3293TIP3   OH231369   0.416   1.310 104.725  0.0678 -0.4271 -0.4290
 3293TIP3    H131370   0.488   1.371 104.706  0.3196 -0.6554 -0.2057
 3293TIP3    H231371   0.434   1.234 104.669 -0.0473 -0.4515 -0.4297
 3294TIP3   OH231372   1.245   1.712  76.052  0.0485 -0.2375  0.5498
 3294TIP3    H131373   1.199   1.749  75.977 -0.0225 -0.9365  0.2404
 3294TIP3    H231374   1.338   1.717  76.029  0.1090  0.7039  0.9553
 3295TIP3   OH231375   2.664   2.077  86.788 -0.0726 -0.1550  0.2328
 3295TIP3    H131376   2.714   2.125  86.721 -0.0811  0.3504  0.5801
 3295TIP3    H231377   2.610   2.015  86.738  1.4188 -1.2295 -0.1214
 3296TIP3   OH231378   1.712   0.603  98.060 -0.5854 -0.1325 -0.0233
 3296TIP3    H131379   1.669   0.577  97.978 -1.4077  0.4950  0.1893
 3296TIP3    H231380   1.799   0.631  98.034 -0.8903  0.1979 -0.7123
 3297TIP3   OH231381   1.946   1.637  18.537  0.5131  0.0002  0.3075
 3297TIP3    H131382   1.935   1.543  18.552  0.0771  0.2327  1.5398
 3297TIP3    H231383   1.880   1.678  18.593 -0.8889  0.9719 -1.9077
 3298TIP3   OH231384   0.260   0.835   9.110  0.1890  0.0781  0.0632
 3298TIP3    H131385   0.201   0.761   9.096  0.3644 -0.5823  2.3841
 3298TIP3    H231386   0.329   0.800   9.167  1.7288  1.3690 -0.9268
 3299TIP3   OH231387   2.003   1.433  83.046  0.4385  0.1585  0.4382
 3299TIP3    H131388   2.012   1.372  83.119 -0.0511 -1.0346 -0.4473
 3299TIP3    H231389   2.085   1.426  82.997 -0.1375 -0.8971 -0.4422
 3300TIP3   OH231390   0.371   2.340  98.514  0.1114  0.3168 -0.2992
 3300TIP3    H131391   0.289   2.389  98.517  0.4434  0.8603  1.0482
 3300TIP3    H231392   0.366   2.288  98.435 -0.5117  2.1341 -1.5183
 3301TIP3   OH231393   1.467   1.942 103.865  0.0235  0.5950  0.4362
 3301TIP3    H131394   1.470   1.876 103.795  1.2681 -0.1043  1.1356
 3301TIP3    H231395   1.460   1.892 103.946  0.2229  1.3453  0.9277
 3302TIP3   OH231396   1.838   1.837  96.675  0.3240 -0.1007 -0.5647
 3302TIP3    H131397   1.892   1.873  96.745  0.3898 -2.7477  0.8685
 3302TIP3    H231398   1.797   1.914  96.634  1.8760  1.6660  1.0225
 3303TIP3   OH231399   2.408   1.817   0.662 -0.1503  0.0722 -0.4733
 3303TIP3    H131400   2.449   1.820   0.748  1.1824 -2.9168 -0.8759
 3303TIP3    H231401   2.319   1.786   0.678  0.0392 -0.3000 -0.1398
 3304TIP3   OH231402   0.260   0.316   8.198  0.3938 -0.0110 -0.2271
 3304TIP3    H131403   0.213   0.381   8.250  1.7303  0.9344 -0.1683
 3304TIP3    H231404   0.347   0.313   8.236  0.7490 -0.8753 -1.0724
 3305TIP3   OH231405   2.515   1.742   5.193  0.7610 -0.0366  0.4495
 3305TIP3    H131406   2.487   1.740   5.102 -1.4139 -0.1709  1.0638
 3305TIP3    H231407   2.580   1.812   5.197 -1.0131  1.7713 -0.7267
 3306TIP3   OH231408   0.246   2.211   1.741 -0.3974 -0.0779 -0.1504
 3306TIP3    H131409   0.254   2.259   1.659 -2.9153 -1.6137 -1.4301
 3306TIP3    H231410   0.318   2.148   1.739 -0.5076 -0.1876 -1.2839
 3307TIP3   OH231411   2.424   0.891  98.330  0.9642 -0.2587 -0.2377
 3307TIP3    H131412   2.367   0.848  98.395  0.6414  0.6087  0.0677
 3307TIP3    H231413   2.371   0.963  98.295  1.6549  0.1749 -0.4057
 3308TIP3   OH231414   1.058   0.732  37.763  0.5223 -0.1731 -0.1344
 3308TIP3    H131415   0.995   0.674  37.806  0.4397 -0.0681 -0.1135
 3308TIP3    H231416   1.080   0.687  37.681  0.3655 -0.1763 -0.1747
 3309TIP3   OH231417   0.871   0.855  89.694  0.4366 -0.2714 -0.1374
 3309TIP3    H131418   0.813   0.920  89.654  0.9382 -0.0076 -0.4355
 3309TIP3    H231419   0.824   0.826  89.772  0.2224  0.4695  0.0132
 3310TIP3   OH231420   1.455   2.483   6.339  0.1926  0.7940  0.5519
 3310TIP3    H131421   1.426   2.505   6.427 -0.0749 -1.8585  1.2042
 3310TIP3    H231422   1.486   2.393   6.345 -1.1244  0.0173 -2.3316
 3311TIP3   OH231423   0.918   1.860   7.435  0.4992 -0.1212 -0.2299
 3311TIP3    H131424   0.921   1.949   7.472 -3.4766  0.2397 -0.3743
 3311TIP3    H231425   0.945   1.803   7.506  0.2479  1.0348  0.8242
 3312TIP3   OH231426   1.683   2.043  22.553  0.6105 -0.4663  0.1893
 3312TIP3    H131427   1.731   2.085  22.624 -1.9832  1.4942  0.9286
 3312TIP3    H231428   1.727   1.959  22.540  2.8878  0.3293  2.1584
 3313TIP3   OH231429   1.113   1.790  88.206  0.3367  0.0118  0.3071
 3313TIP3    H131430   1.118   1.884  88.226 -0.1889 -0.0668  0.8497
 3313TIP3    H231431   1.143   1.783  88.115  0.1423  0.7323  0.1805
 3314TIP3   OH231432   2.110   0.645  76.352 -0.0730 -0.4144 -0.4155
 3314TIP3    H131433   2.059   0.588  76.294  1.0090 -0.0993 -1.7215
 3314TIP3    H231434   2.144   0.714  76.295  0.2411  0.4572  0.7862
 3315TIP3   OH231435   2.519   0.987 108.636 -0.9446 -0.4512 -0.3357
 3315TIP3    H131436   2.582   0.915 108.649 -0.9217 -0.2730  0.6260
 3315TIP3    H231437   2.556   1.039 108.565 -0.6322 -1.0316 -0.6064
 3316TIP3   OH231438   1.330   0.332  84.777 -0.3167 -0.3477  0.6002
 3316TIP3    H131439   1.325   0.328  84.873  0.8241  1.2623  0.7552
 3316TIP3    H231440   1.404   0.389  84.759 -1.3331  0.4792 -1.2405
 3317TIP3   OH231441   1.116   1.755  80.291  0.1881  0.2044  0.1835
 3317TIP3    H131442   1.123   1.791  80.203  0.2961 -0.3908 -0.0595
 3317TIP3    H231443   1.169   1.813  80.346  1.6940 -0.5172 -0.4733
 3318TIP3   OH231444   2.109   0.026  22.721  0.2696  0.1829  0.4700
 3318TIP3    H131445   2.038   0.065  22.670  1.5157  2.0533  0.0504
 3318TIP3    H231446   2.069   0.006  22.806 -0.8880  0.6830  0.0665
 3319TIP3   OH231447   0.736   2.403  80.575  0.2747 -0.0675 -0.2782
 3319TIP3    H131448   0.713   2.352  80.497  0.4197 -0.5324 -0.0136
 3319TIP3    H231449   0.832   2.406  80.573  0.2579  0.4456 -0.4567
 3320TIP3   OH231450   1.760   0.414 106.307 -0.6556  0.5917 -0.2278
 3320TIP3    H131451   1.716   0.421 106.223 -1.7442 -0.9988  0.1789
 3320TIP3    H231452   1.695   0.443 106.371 -0.2925  0.4959  0.1935
 3321TIP3   OH231453   2.416   0.670   2.075  0.0722 -0.0943 -0.3183
 3321TIP3    H131454   2.474   0.746   2.068  1.7606 -1.4131 -1.5886
 3321TIP3    H231455   2.455   0.616   2.143 -2.1977  0.9676  1.9677
 3322TIP3   OH231456   0.837   2.553  66.152  0.5264 -0.1865 -0.9441
 3322TIP3    H131457   0.792   2.611  66.090  1.8752  2.2943  0.2329
 3322TIP3    H231458   0.787   2.472  66.150 -3.6097  2.0685 -0.3233
 3323TIP3   OH231459   0.291   2.384  42.286  0.0248  0.9858  0.5454
 3323TIP3    H131460   0.316   2.450  42.222  0.7177  0.4778  0.2822
 3323TIP3    H231461   0.227   2.428  42.342 -2.0416  0.8921 -1.5957
 3324TIP3   OH231462   0.919   2.629  13.219 -0.1416  0.0256  0.1329
 3324TIP3    H131463   0.939   2.721  13.230  0.2748  0.1299 -1.3506
 3324TIP3    H231464   0.841   2.627  13.163  0.6799 -0.5202 -1.0380
 3325TIP3   OH231465   2.564   0.697  34.647  0.0504 -0.2971  0.7682
 3325TIP3    H131466   2.510   0.662  34.718 -0.0276  0.0978  0.9078
 3325TIP3    H231467   2.637   0.636  34.639 -0.2095 -0.6204  0.8445
 3326TIP3   OH231468   0.100   2.296  82.028 -0.4242  0.2521  0.2522
 3326TIP3    H131469   0.137   2.223  81.978  0.4248  0.7117  0.1900
 3326TIP3    H231470   0.135   2.283  82.117 -1.6249 -0.3519  0.6706
 3327TIP3   OH231471   1.524   1.430 100.612 -0.3503  0.1273  0.3174
 3327TIP3    H131472   1.474   1.403 100.535 -0.6183 -0.2375  0.6124
 3327TIP3    H231473   1.533   1.524 100.603  0.4423 -0.0300 -0.6426
 3328TIP3   OH231474   2.260   0.127  35.114 -0.5701  0.2698  0.2609
 3328TIP3    H131475   2.275   0.067  35.041 -1.2040 -0.3196  0.6007
 3328TIP3    H231476   2.180   0.174  35.089  0.6062  1.8891 -0.5850
 3329TIP3   OH231477   1.963   1.426 106.114  0.1551  0.2651 -0.0575
 3329TIP3    H131478   2.028   1.424 106.045  0.2359  1.0072 -0.0060
 3329TIP3    H231479   1.881   1.404 106.071  0.2770  0.3044 -0.3112
 3330TIP3   OH231480   1.053   0.616   4.980 -0.9267 -0.0494  0.0826
 3330TIP3    H131481   1.020   0.532   5.012 -3.3821  0.8168  0.1217
 3330TIP3    H231482   1.072   0.601   4.887  0.5321 -1.0887  0.5188
 3331TIP3   OH231483   1.396   1.838  51.798  0.3945  0.0690  0.2554
 3331TIP3    H131484   1.395   1.929  51.828 -2.4952  0.8667 -1.8056
 3331TIP3    H231485   1.326   1.795  51.848 -0.0909 -0.2524 -0.6690
 3332TIP3   OH231486   0.571   2.009  12.652 -0.2021  0.1315 -0.2755
 3332TIP3    H131487   0.622   2.056  12.586  0.1629 -0.5169 -0.4646
 3332TIP3    H231488   0.621   1.929  12.668 -1.1450 -0.4990 -0.4325
 3333TIP3   OH231489   1.748   2.294  22.054 -0.1590  0.2302  0.3595
 3333TIP3    H131490   1.654   2.280  22.048 -0.3144  1.6685 -1.6256
 3333TIP3    H231491   1.782   2.269  21.968  1.3288 -0.5059  1.1127
 3334TIP3   OH231492   2.208   1.985   0.897  0.1243 -0.4215  0.1015
 3334TIP3    H131493   2.137   2.033   0.853 -0.8790 -1.6336  0.3333
 3334TIP3    H231494   2.202   1.896   0.863  1.6130 -0.5329  0.0718
 3335TIP3   OH231495   0.168   0.835  33.579 -0.3738 -0.1396  0.2546
 3335TIP3    H131496   0.189   0.902  33.515 -3.3620 -0.3671 -1.1827
 3335TIP3    H231497   0.118   0.881  33.647  1.0431 -0.2634  1.4307
 3336TIP3   OH231498   0.014   2.198   3.795 -0.1071 -0.0054 -0.4480
 3336TIP3    H131499   0.016   2.163   3.706 -0.9429 -1.1497 -0.0397
 3336TIP3    H231500  -0.026   2.285   3.786 -1.7636 -0.7903 -0.9951
 3337TIP3   OH231501   0.374   0.708 105.189  0.3056 -0.3290  0.1996
 3337TIP3    H131502   0.386   0.794 105.149 -2.1887 -0.1919 -0.3962
 3337TIP3    H231503   0.343   0.726 105.277  1.8657 -0.6687  0.8656
 3338TIP3   OH231504   0.960   0.842  24.437 -0.1918 -0.2345  0.1734
 3338TIP3    H131505   0.989   0.917  24.489 -0.9142  0.5246 -0.4942
 3338TIP3    H231506   1.024   0.837  24.365 -1.2071  0.9337 -0.8430
 3339TIP3   OH231507   1.744   0.462  96.133 -0.1447  0.0398  0.2609
 3339TIP3    H131508   1.781   0.509  96.058 -0.4376 -0.3978 -0.1624
 3339TIP3    H231509   1.651   0.485  96.132  0.0617  1.0734  1.2657
 3340TIP3   OH231510   0.002   0.301   1.157 -0.0215  0.1073  0.2411
 3340TIP3    H131511   0.027   0.378   1.106  0.4457 -0.4254 -0.3701
 3340TIP3    H231512   0.085   0.268   1.191 -0.0557 -0.8056 -0.5140
 3341TIP3   OH231513   0.264   0.524  86.939 -0.1822 -0.4562 -0.0127
 3341TIP3    H131514   0.230   0.491  87.022 -0.7248  1.6952  0.6846
 3341TIP3    H231515   0.251   0.451  86.878 -2.3845 -1.1281  1.1433
 3342TIP3   OH231516   1.264   1.654  34.462 -0.2711  0.1427  0.5027
 3342TIP3    H131517   1.338   1.618  34.414 -0.9237 -1.3420  0.5678
 3342TIP3    H231518   1.304   1.699  34.537  0.5557 -1.8307  1.3329
 3343TIP3   OH231519   1.297   1.558  31.494 -0.2895 -0.1691 -0.4680
 3343TIP3    H131520   1.373   1.612  31.473 -1.7954  1.7361 -1.2503
 3343TIP3    H231521   1.278   1.510  31.413 -1.3043  1.1661 -1.0612
 3344TIP3   OH231522   2.288   0.075   5.797  0.5592 -0.5540  0.2661
 3344TIP3    H131523   2.305  -0.019   5.789  1.7182 -0.3980  0.7133
 3344TIP3    H231524   2.207   0.088   5.749  0.9853 -1.6000 -0.8065
 3345TIP3   OH231525   2.158   1.027  15.032  0.6915 -0.5555  0.5437
 3345TIP3    H131526   2.150   0.996  15.122  0.8089  1.7721  1.4179
 3345TIP3    H231527   2.173   0.948  14.981  3.0502 -1.7485  2.8502
 3346TIP3   OH231528   2.010   0.262  92.761  0.5328  0.5194 -0.3897
 3346TIP3    H131529   1.934   0.205  92.778  1.4766 -0.3520  1.0857
 3346TIP3    H231530   2.005   0.279  92.667 -1.9771  1.2215 -0.2100
 3347TIP3   OH231531   1.014   1.075   0.893 -0.1120 -0.2754 -0.0043
 3347TIP3    H131532   0.925   1.111   0.893 -0.4372 -0.8418  2.8478
 3347TIP3    H231533   1.062   1.129   0.956  1.0545 -1.1057 -0.1398
 3348TIP3   OH231534   0.092   2.114  27.540  0.5334  0.2330  1.3229
 3348TIP3    H131535   0.104   2.022  27.563  0.0183  0.4307  2.4608
 3348TIP3    H231536   0.133   2.123  27.454 -0.9762 -1.4354  0.3745
 3349TIP3   OH231537   0.832   0.967   8.672 -0.2197  0.0069  0.0655
 3349TIP3    H131538   0.927   0.973   8.664 -0.0980  0.6492  1.6186
 3349TIP3    H231539   0.816   0.879   8.705  0.0294  0.4844  1.5876
 3350TIP3   OH231540   2.685   2.654  28.422 -0.7596 -0.5028 -0.2757
 3350TIP3    H131541   2.762   2.679  28.473 -0.8487 -1.4304  0.3392
 3350TIP3    H231542   2.648   2.579  28.469 -1.4113 -0.7596 -1.1637
 3351TIP3   OH231543   2.319   0.098 106.898  0.1515 -0.5910  0.2188
 3351TIP3    H131544   2.389   0.056 106.949  1.6852 -0.1050 -1.3695
 3351TIP3    H231545   2.354   0.101 106.808 -0.9330  1.7912 -0.1977
 3352TIP3   OH231546   1.241   2.644 111.090 -0.0631 -0.4409  0.6321
 3352TIP3    H131547   1.293   2.709 111.138  1.8310 -0.6996 -0.9687
 3352TIP3    H231548   1.285   2.635 111.006 -1.5237 -2.2527  0.0001
 3353TIP3   OH231549   2.453   0.953 102.905 -0.2263  0.2525  0.1197
 3353TIP3    H131550   2.498   1.037 102.915 -0.4405  0.4238 -0.3449
 3353TIP3    H231551   2.365   0.969 102.939 -0.0703  0.0345  0.6373
 3354TIP3   OH231552   2.098   1.280  14.942  0.1297  0.2431 -0.3511
 3354TIP3    H131553   2.118   1.201  14.993 -0.0276  0.0469 -0.5947
 3354TIP3    H231554   2.184   1.316  14.920  0.2471 -0.7434 -1.6149
 3355TIP3   OH231555   1.044   1.665   4.877 -0.2467  0.0152  0.5936
 3355TIP3    H131556   0.990   1.589   4.900  1.0234 -0.7692  1.0786
 3355TIP3    H231557   1.111   1.630   4.819 -1.4411  1.3610 -1.7560
 3356TIP3   OH231558   2.175   1.529  17.196  0.2832 -0.0392  0.2715
 3356TIP3    H131559   2.112   1.464  17.229 -1.2596  0.9128 -0.6559
 3356TIP3    H231560   2.121   1.605  17.174  1.5439  0.2683 -2.0391
 3357TIP3   OH231561   1.973   1.901  14.301  0.3040  0.3071  0.7683
 3357TIP3    H131562   1.903   1.964  14.320 -0.3550 -0.1395 -0.1248
 3357TIP3    H231563   1.934   1.840  14.238  1.0143 -0.8370  1.3886
 3358TIP3   OH231564   2.449   1.155 111.473  0.2798 -0.0394  0.0670
 3358TIP3    H131565   2.395   1.137 111.396 -1.0332  0.8889  0.7314
 3358TIP3    H231566   2.487   1.071 111.495  0.4965 -0.3751 -1.4490
 3359TIP3   OH231567   1.350   0.829  18.710  0.3889 -0.5593 -0.0288
 3359TIP3    H131568   1.329   0.739  18.736 -0.0868 -0.2226  0.7701
 3359TIP3    H231569   1.269   0.863  18.673  0.7346 -0.6472 -0.8826
 3360TIP3   OH231570   1.592   2.488  76.112  0.0483  0.0740 -0.9061
 3360TIP3    H131571   1.630   2.428  76.176  1.3960  2.9358  1.2158
 3360TIP3    H231572   1.507   2.511  76.149  0.3841  0.9395 -0.6479
 3361TIP3   OH231573   2.536   1.516  19.491 -0.3759 -0.0229  0.1754
 3361TIP3    H131574   2.460   1.553  19.447  0.0626 -0.9878 -1.4779
 3361TIP3    H231575   2.611   1.558  19.448  0.0489 -0.4199  0.5248
 3362TIP3   OH231576   1.435   2.282  82.042  0.1375 -0.0744  0.6860
 3362TIP3    H131577   1.491   2.215  82.082 -1.2408 -0.8771  1.3169
 3362TIP3    H231578   1.443   2.358  82.101 -0.9338 -0.8441  1.8592
 3363TIP3   OH231579   1.931   0.267  85.675  0.4934 -0.0420  0.3518
 3363TIP3    H131580   1.930   0.271  85.771  0.8026 -1.9557  0.4712
 3363TIP3    H231581   1.844   0.297  85.649  0.3281  0.2821  1.2288
 3364TIP3   OH231582   2.649   2.232  37.277  0.1785  0.3817  0.0692
 3364TIP3    H131583   2.590   2.161  37.252  0.0691  0.1948  0.8409
 3364TIP3    H231584   2.711   2.192  37.339  1.0257  0.6099 -0.6079
 3365TIP3   OH231585   0.732   2.502  25.526  0.1394 -0.0380  0.1135
 3365TIP3    H131586   0.712   2.567  25.595 -0.9773  0.8759 -1.0136
 3365TIP3    H231587   0.745   2.555  25.447 -0.2881 -1.1703 -0.7295
 3366TIP3   OH231588   0.174   0.611  89.981  0.0070  0.1988  0.1398
 3366TIP3    H131589   0.125   0.662  90.045 -0.5403  0.6929 -0.6487
 3366TIP3    H231590   0.108   0.555  89.939  0.4353 -0.4404  0.3087
 3367TIP3   OH231591   1.694   0.400 107.855  0.2932 -0.1724  0.4340
 3367TIP3    H131592   1.642   0.369 107.781  2.1146 -1.3881 -0.3918
 3367TIP3    H231593   1.629   0.421 107.922 -1.4649  1.3954 -1.5788
 3368TIP3   OH231594   0.527   1.020  76.441 -0.3786  0.3535  0.3550
 3368TIP3    H131595   0.533   0.928  76.414 -1.3091  0.6883 -1.0709
 3368TIP3    H231596   0.613   1.040  76.477  0.5609 -0.4704 -1.3339
 3369TIP3   OH231597   0.199   1.976  18.610  0.0177  0.8796 -0.4420
 3369TIP3    H131598   0.106   1.985  18.629 -0.1339  1.9049 -1.5491
 3369TIP3    H231599   0.204   1.902  18.549  0.1606 -0.3542  1.0050
 3370TIP3   OH231600   1.659   1.225 111.530 -0.0028 -0.1022 -0.4905
 3370TIP3    H131601   1.627   1.149 111.483  0.2561 -0.4791 -0.0694
 3370TIP3    H231602   1.720   1.189 111.595  0.3220  0.4832 -0.4591
 3371TIP3   OH231603   0.488   2.128  78.810  0.1320 -0.5792 -0.3374
 3371TIP3    H131604   0.437   2.165  78.882 -0.9114 -0.3786 -1.1536
 3371TIP3    H231605   0.429   2.132  78.734  1.9869  1.4092 -1.7780
 3372TIP3   OH231606   2.432   1.073 106.052  0.0033  0.4182  0.1743
 3372TIP3    H131607   2.348   1.040 106.083  0.4617  0.7048  1.8010
 3372TIP3    H231608   2.421   1.168 106.049  0.1704  0.4355  0.0476
 3373TIP3   OH231609   0.040   0.590  83.548  0.6623  0.1285 -0.1260
 3373TIP3    H131610   0.050   0.610  83.455 -0.5789  1.3270 -0.0381
 3373TIP3    H231611   0.098   0.651  83.593  1.3167 -0.4992 -0.0998
 3374TIP3   OH231612   1.775   0.115 106.361  0.0413  0.0129 -0.1975
 3374TIP3    H131613   1.778   0.111 106.456 -1.9075 -1.3196 -0.1309
 3374TIP3    H231614   1.772   0.208 106.340 -1.1393  0.2979  1.1389
 3375TIP3   OH231615   2.356   1.111  26.104 -0.4612 -0.4893 -0.3884
 3375TIP3    H131616   2.345   1.132  26.011  1.5025  1.3566 -0.2744
 3375TIP3    H231617   2.434   1.055  26.107  0.3767  0.6742  0.2422
 3376TIP3   OH231618   1.619   0.362  20.357 -0.2160 -0.2622 -0.2167
 3376TIP3    H131619   1.628   0.310  20.277  0.1110 -0.1874 -0.2287
 3376TIP3    H231620   1.708   0.390  20.378 -0.5749  1.8910 -1.2698
 3377TIP3   OH231621   0.009   2.254  79.745 -0.0244  0.4171  0.0671
 3377TIP3    H131622   0.061   2.273  79.824  0.1495 -0.7825  0.2632
 3377TIP3    H231623  -0.027   2.339  79.719  1.4816  1.1658  0.3178
 3378TIP3   OH231624   0.406   0.334  92.237  0.3943  0.0177 -0.1566
 3378TIP3    H131625   0.329   0.365  92.285 -1.5176  0.2256 -3.0519
 3378TIP3    H231626   0.445   0.414  92.201  1.4294 -0.1715  0.5353
 3379TIP3   OH231627   0.266   1.920  14.688 -0.9681  0.4916 -0.0885
 3379TIP3    H131628   0.314   2.001  14.706 -1.0129  0.4581  0.1762
 3379TIP3    H231629   0.334   1.857  14.665 -0.7787  0.1319  1.4096
 3380TIP3   OH231630   1.082   2.280  15.497  0.3226  0.0692  0.0520
 3380TIP3    H131631   1.036   2.336  15.560  1.4609  1.3486 -0.2035
 3380TIP3    H231632   1.117   2.341  15.433  1.3337 -0.9937 -0.4345
 3381TIP3   OH231633   2.253   0.537  66.911  0.7930  0.0668  0.4171
 3381TIP3    H131634   2.225   0.564  66.823  0.4979  1.0919  0.8028
 3381TIP3    H231635   2.275   0.445  66.903  1.3826  0.3031 -0.8746
 3382TIP3   OH231636   2.525   1.753  15.807 -0.0213  0.0828  0.3978
 3382TIP3    H131637   2.564   1.796  15.732 -0.1588 -0.7337 -0.1552
 3382TIP3    H231638   2.504   1.664  15.776 -1.9166  0.3461  0.7948
 3383TIP3   OH231639   0.225   1.486 105.365 -0.0977  0.2661  0.5311
 3383TIP3    H131640   0.188   1.461 105.280  0.4815 -3.5872  1.2089
 3383TIP3    H231641   0.315   1.511 105.345  0.5416 -2.1389  0.0345
 3384TIP3   OH231642   1.782   0.499  73.615  0.3393 -0.2132  0.5051
 3384TIP3    H131643   1.775   0.550  73.535  3.7806 -1.1282 -0.5544
 3384TIP3    H231644   1.873   0.509  73.642  0.1770 -2.6884  2.3604
 3385TIP3   OH231645   2.062   1.202  13.114  0.0018 -0.0403  0.5696
 3385TIP3    H131646   2.035   1.293  13.107  1.6856  0.4764  0.3722
 3385TIP3    H231647   2.080   1.189  13.207 -2.3020 -0.8403  0.9650
 3386TIP3   OH231648   2.097   1.583  90.868  0.2980  0.3505  0.3360
 3386TIP3    H131649   2.015   1.617  90.903  0.1161 -0.6056  0.8871
 3386TIP3    H231650   2.161   1.653  90.883 -0.2636  0.8300  0.5270
 3387TIP3   OH231651   1.284   0.658   5.393  0.2101 -0.0985  0.0125
 3387TIP3    H131652   1.364   0.651   5.445  0.1383 -1.0268  0.0166
 3387TIP3    H231653   1.314   0.649   5.303  0.3460  1.5998 -0.1453
 3388TIP3   OH231654   0.865   0.852  37.090  0.2681  0.4066  0.2231
 3388TIP3    H131655   0.924   0.845  37.165  1.0288  2.1521 -0.1702
 3388TIP3    H231656   0.824   0.765  37.084  1.8257 -0.4490  1.2950
 3389TIP3   OH231657   2.457   0.156  20.840 -0.4689 -0.7516 -0.2787
 3389TIP3    H131658   2.473   0.189  20.928 -0.6144  0.4148 -0.6663
 3389TIP3    H231659   2.378   0.102  20.848 -1.1002  0.2052  0.1274
 3390TIP3   OH231660   1.310   2.664  42.271 -0.2970  0.3743  0.6453
 3390TIP3    H131661   1.223   2.630  42.293 -0.2861 -0.2704 -0.2620
 3390TIP3    H231662   1.309   2.754  42.305 -1.9184  0.9402 -0.7297
 3391TIP3   OH231663   1.707   1.951  86.880 -0.0582 -0.1147 -0.7540
 3391TIP3    H131664   1.759   1.905  86.946 -1.3403 -0.5158  0.0073
 3391TIP3    H231665   1.691   1.886  86.812  1.2575  0.2965 -1.4841
 3392TIP3   OH231666   2.287   0.839  13.150 -0.0632 -0.1965 -0.0734
 3392TIP3    H131667   2.291   0.828  13.055  0.3855 -1.4338  0.0681
 3392TIP3    H231668   2.309   0.752  13.185  0.8886  0.5180  1.1669
 3393TIP3   OH231669   0.442   1.408   8.896  0.0005 -0.2804  0.0921
 3393TIP3    H131670   0.508   1.404   8.826  0.3475  0.9355  0.3105
 3393TIP3    H231671   0.369   1.355   8.864  0.3670 -0.1684 -0.9749
 3394TIP3   OH231672   1.660   1.883  45.385 -0.0249  0.2022 -0.0241
 3394TIP3    H131673   1.673   1.977  45.374  0.5280  0.0649 -0.6726
 3394TIP3    H231674   1.740   1.844  45.348 -0.9903 -0.5869 -1.3909
 3395TIP3   OH231675   2.070   0.685  13.813  0.4197 -0.0760 -0.2993
 3395TIP3    H131676   2.087   0.591  13.802 -0.6155 -0.4616  1.1580
 3395TIP3    H231677   2.048   0.716  13.725  3.2818 -0.6015 -1.3268
 3396TIP3   OH231678   2.199   1.024   5.539  0.3785 -0.1047 -0.2105
 3396TIP3    H131679   2.177   1.097   5.597  1.4590  0.4204 -0.4353
 3396TIP3    H231680   2.193   1.060   5.451 -1.1085 -0.8625 -0.4534
 3397TIP3   OH231681   1.612   2.423  14.935 -0.6046 -0.2467  0.8160
 3397TIP3    H131682   1.648   2.509  14.959 -0.0826 -0.4372  0.7162
 3397TIP3    H231683   1.520   2.441  14.916 -0.4133  0.3637  0.4293
 3398TIP3   OH231684   0.865   2.405  77.187  0.1257 -0.1845 -0.5373
 3398TIP3    H131685   0.770   2.419  77.183 -0.0792 -1.5907 -0.9516
 3398TIP3    H231686   0.886   2.414  77.280 -0.6740 -1.3125 -0.2197
 3399TIP3   OH231687   1.775   2.363  89.349 -0.2990 -0.1499 -0.1258
 3399TIP3    H131688   1.831   2.289  89.370  0.1984  0.1695 -0.3030
 3399TIP3    H231689   1.734   2.340  89.266 -3.8499 -2.3356  1.9579
 3400TIP3   OH231690   2.272   0.401  29.251  0.1971 -0.2577  0.2410
 3400TIP3    H131691   2.213   0.363  29.187  0.4351  0.9073 -0.7032
 3400TIP3    H231692   2.219   0.464  29.299  0.2269 -0.5239  0.6289
 3401TIP3   OH231693   1.183   0.745  21.195  0.0336 -0.0763  0.0973
 3401TIP3    H131694   1.252   0.743  21.128  0.9398  1.5354  0.9215
 3401TIP3    H231695   1.143   0.658  21.190  2.5435 -1.3313  0.0087
 3402TIP3   OH231696   1.215   0.627  16.065  0.0956  0.1178 -0.4611
 3402TIP3    H131697   1.200   0.540  16.102  2.8434 -0.1138  0.3117
 3402TIP3    H231698   1.136   0.676  16.087 -0.3552 -1.3720  1.5896
 3403TIP3   OH231699   2.597   2.619  57.631  0.8290  0.8836 -0.6945
 3403TIP3    H131700   2.585   2.553  57.563 -1.5237  1.3182 -0.7941
 3403TIP3    H231701   2.619   2.699  57.583 -1.4772  1.3463 -1.0815
 3404TIP3   OH231702   0.488   2.229  28.958  0.0276 -0.1218 -0.1189
 3404TIP3    H131703   0.456   2.196  28.874 -1.3349 -0.5605  0.5335
 3404TIP3    H231704   0.435   2.308  28.975  0.0380 -0.2350  0.4805
 3405TIP3   OH231705   2.531   1.588  89.235 -0.1852 -0.0924  0.1401
 3405TIP3    H131706   2.562   1.513  89.185  3.1675  0.5163  1.0805
 3405TIP3    H231707   2.468   1.631  89.177 -0.5618 -2.3789 -1.2646
 3406TIP3   OH231708   1.114   1.643  25.199  0.3311 -0.1080 -0.3345
 3406TIP3    H131709   1.025   1.634  25.164 -0.1108 -0.8036  0.8964
 3406TIP3    H231710   1.121   1.735  25.224  0.5308  0.3165 -1.8566
 3407TIP3   OH231711   2.473   1.785  99.241  0.4833  0.1835  0.2828
 3407TIP3    H131712   2.433   1.752  99.161 -0.0588  1.4803 -0.0007
 3407TIP3    H231713   2.423   1.744  99.312 -0.2844  0.5283 -0.0593
 3408TIP3   OH231714   2.260   0.558  87.711 -0.0770  0.3249 -0.6404
 3408TIP3    H131715   2.299   0.645  87.700  1.4163 -0.3304 -0.7381
 3408TIP3    H231716   2.320   0.512  87.771 -1.3564 -0.3283  0.1837
 3409TIP3   OH231717   1.680   2.341  14.461 -0.1378 -0.2775 -0.4039
 3409TIP3    H131718   1.712   2.262  14.504  0.3815 -1.7459 -3.2724
 3409TIP3    H231719   1.758   2.396  14.450  0.0756 -0.7035 -1.0572
 3410TIP3   OH231720   1.532   2.182  47.174  0.1297  0.2944 -0.6858
 3410TIP3    H131721   1.605   2.121  47.161 -0.5912 -0.4025 -1.6992
 3410TIP3    H231722   1.506   2.169  47.265  1.7449  1.1242 -0.0738
 3411TIP3   OH231723   1.512   2.166  46.505 -0.4317  0.4775 -0.4064
 3411TIP3    H131724   1.606   2.154  46.518 -0.2014  3.0564  0.8910
 3411TIP3    H231725   1.497   2.143  46.413  1.5362  0.4134 -0.7422
 3412TIP3   OH231726   2.140   0.717  97.152 -0.4247 -0.0193  0.3112
 3412TIP3    H131727   2.179   0.738  97.067  0.5158  1.6262  1.1143
 3412TIP3    H231728   2.177   0.631  97.174  2.7286  1.3696  0.9422
 3413TIP3   OH231729   2.053   1.953  22.373 -0.6004  0.2821  0.1768
 3413TIP3    H131730   2.048   1.911  22.288 -0.2755 -0.1369  0.3630
 3413TIP3    H231731   1.975   1.924  22.420 -0.2004 -0.4054  0.4331
 3414TIP3   OH231732   1.224   1.214   5.550  0.1164  0.1423  0.0870
 3414TIP3    H131733   1.273   1.133   5.562  1.4006  0.8905  0.1004
 3414TIP3    H231734   1.263   1.275   5.613  0.9184  1.4875 -1.6265
 3415TIP3   OH231735   2.655   0.187  83.315 -0.2046  0.0549 -0.5114
 3415TIP3    H131736   2.570   0.203  83.355  0.4599  1.7053  0.3390
 3415TIP3    H231737   2.713   0.166  83.388 -0.2729 -3.2926 -1.2578
 3416TIP3   OH231738   1.338   0.758  19.146  0.0492  0.1675 -0.3286
 3416TIP3    H131739   1.248   0.736  19.171  0.3771 -0.9278 -0.0436
 3416TIP3    H231740   1.378   0.674  19.125  1.2292  0.5496  0.2742
 3417TIP3   OH231741   2.040   0.915  11.014  0.2925 -0.3715 -0.0555
 3417TIP3    H131742   2.041   1.002  11.055  0.0986  0.1610 -1.1266
 3417TIP3    H231743   2.129   0.882  11.024  0.3416 -0.0884  0.4512
 3418TIP3   OH231744   1.015   0.388  78.488  0.1417 -0.0713 -0.1884
 3418TIP3    H131745   1.021   0.431  78.574 -0.0043  0.6005 -0.5028
 3418TIP3    H231746   1.028   0.295  78.507  4.4259  0.3777  0.1187
 3419TIP3   OH231747   2.606   0.701  98.264  0.5587 -0.0909  0.0993
 3419TIP3    H131748   2.681   0.733  98.213  0.9538 -0.1443  0.6394
 3419TIP3    H231749   2.556   0.780  98.285  0.2446 -0.0947 -0.5921
 3420TIP3   OH231750   2.282   1.136 102.547  0.0931  0.0769  0.2161
 3420TIP3    H131751   2.371   1.103 102.559  0.7764  1.0276 -1.7729
 3420TIP3    H231752   2.277   1.212 102.606  0.2168 -0.5800  1.0983
 3421TIP3   OH231753   1.133   2.641   5.754 -0.0559 -0.2241 -0.3634
 3421TIP3    H131754   1.179   2.561   5.777 -0.4752 -0.5761 -0.7274
 3421TIP3    H231755   1.189   2.712   5.786 -0.7214 -0.6630  1.9915
 3422TIP3   OH231756   2.066   0.072   7.885  0.0567  0.0679 -0.0131
 3422TIP3    H131757   2.060  -0.023   7.884 -0.8105  0.0899  0.7972
 3422TIP3    H231758   2.143   0.093   7.834  0.3866 -1.0863  0.0007
 3423TIP3   OH231759   2.410   0.535  34.823  0.5047 -0.2443  0.4134
 3423TIP3    H131760   2.366   0.505  34.744  0.5645 -0.0548  0.3064
 3423TIP3    H231761   2.449   0.456  34.861  0.7058 -0.2955  0.1065
 3424TIP3   OH231762   0.033   2.641  32.866  0.2438  0.2505  0.1382
 3424TIP3    H131763  -0.016   2.707  32.915 -0.2883  0.0507 -0.1250
 3424TIP3    H231764   0.043   2.678  32.779 -0.5000 -0.2203 -0.1608
 3425TIP3   OH231765   1.120   1.259  13.724 -0.1262  0.1724 -0.1678
 3425TIP3    H131766   1.063   1.335  13.710 -1.5541 -0.9897 -0.9189
 3425TIP3    H231767   1.114   1.242  13.818  0.3541  1.0748  0.0420
 3426TIP3   OH231768   1.274   2.202  95.723 -0.0387 -0.4397 -0.2472
 3426TIP3    H131769   1.309   2.276  95.673 -0.4967  0.1655  0.3124
 3426TIP3    H231770   1.179   2.211  95.716 -0.1009 -1.2697 -0.5957
 3427TIP3   OH231771   0.152   2.150  99.524 -0.0235  0.1486 -0.5207
 3427TIP3    H131772   0.141   2.077  99.585  2.1200  0.3354  0.1742
 3427TIP3    H231773   0.122   2.116  99.440  0.4147 -1.3542 -0.1077
 3428TIP3   OH231774   0.100   2.012  89.579 -0.5275 -0.3174  0.2256
 3428TIP3    H131775   0.180   1.964  89.556 -0.4155 -1.2587  2.3935
 3428TIP3    H231776   0.125   2.104  89.575  0.6832 -0.5990  0.8779
 3429TIP3   OH231777   2.487   1.345  63.990 -0.3746  1.0505 -0.1202
 3429TIP3    H131778   2.428   1.400  64.042  0.2986  2.8698 -1.1738
 3429TIP3    H231779   2.464   1.366  63.899  1.1743  1.0216 -0.5363
 3430TIP3   OH231780   1.224   2.307  89.855 -0.1671  0.5907 -0.3880
 3430TIP3    H131781   1.287   2.260  89.910 -0.2998  0.4631 -0.3453
 3430TIP3    H231782   1.242   2.399  89.872 -0.3500  0.5518  0.0305
 3431TIP3   OH231783   0.102   0.660  90.863  0.1971 -0.5726 -0.1916
 3431TIP3    H131784   0.161   0.592  90.894 -0.3735 -0.4862  1.1764
 3431TIP3    H231785   0.159   0.727  90.826  0.7533 -1.8338 -1.6909
 3432TIP3   OH231786   1.994   0.285  31.557 -0.4359 -0.6100 -0.4078
 3432TIP3    H131787   2.054   0.211  31.547  0.1065 -0.0121 -1.9838
 3432TIP3    H231788   1.946   0.287  31.475  1.1319  2.0892 -1.3998
 3433TIP3   OH231789   0.629   1.339  96.568 -0.4343 -0.2816  0.1127
 3433TIP3    H131790   0.689   1.276  96.527 -1.1067 -0.1713 -1.0958
 3433TIP3    H231791   0.686   1.409  96.600  0.0875  0.0835 -1.4961
 3434TIP3   OH231792   0.362   0.592  58.320  0.0085 -0.9394  0.4177
 3434TIP3    H131793   0.401   0.506  58.301  0.2134 -1.0623  1.3462
 3434TIP3    H231794   0.349   0.632  58.234 -0.1107 -1.9113 -0.0322
 3435TIP3   OH231795   0.059   0.716  81.855 -0.5694  0.3553  0.1434
 3435TIP3    H131796   0.016   0.800  81.873 -1.7940 -0.4789  1.3754
 3435TIP3    H231797   0.121   0.707  81.927  0.3639  0.6989 -0.6094
 3436TIP3   OH231798   1.247   0.349  23.476 -0.3716 -0.4560  0.4463
 3436TIP3    H131799   1.190   0.324  23.404  1.5113  0.4902 -1.4668
 3436TIP3    H231800   1.295   0.269  23.499  1.1748 -0.1369 -1.4516
 3437TIP3   OH231801   1.953   0.977  77.070  0.6020 -0.2112 -0.1048
 3437TIP3    H131802   2.010   1.011  77.139  1.6484 -0.7629 -0.6816
 3437TIP3    H231803   1.866   1.009  77.093  0.9277 -0.3839  1.4591
 3438TIP3   OH231804   2.662   0.762 107.966  0.0820  0.4250 -0.2229
 3438TIP3    H131805   2.606   0.748 107.889 -0.3301  1.0833 -0.0496
 3438TIP3    H231806   2.750   0.738 107.936 -0.1294  0.3559 -0.8035
 3439TIP3   OH231807   0.806   1.076  31.851  0.4136  0.1304 -0.0283
 3439TIP3    H131808   0.833   1.113  31.936 -0.2721  0.8127 -0.0962
 3439TIP3    H231809   0.743   1.140  31.816 -3.9602 -2.7813  1.6184
 3440TIP3   OH231810   0.077   2.332  45.226 -0.6530 -0.6120  0.1277
 3440TIP3    H131811   0.168   2.301  45.224 -0.2179  0.5675  0.3815
 3440TIP3    H231812   0.075   2.395  45.298 -1.7570 -0.8429  0.3163
 3441TIP3   OH231813   1.424   1.075  63.742  0.0811 -0.5053  0.4075
 3441TIP3    H131814   1.424   1.160  63.786  1.6189  0.0989 -0.6493
 3441TIP3    H231815   1.402   1.012  63.811 -0.9093  0.7189  1.2431
 3442TIP3   OH231816   1.253   1.435   9.034  0.7490 -0.2312  0.1292
 3442TIP3    H131817   1.213   1.519   9.059 -0.2116 -0.5653 -0.2434
 3442TIP3    H231818   1.326   1.459   8.977  0.1617  0.3339 -0.3946
 3443TIP3   OH231819   1.971   2.432  79.120 -0.2406  0.0064 -1.0416
 3443TIP3    H131820   1.985   2.505  79.181 -0.9294  2.2543 -3.4187
 3443TIP3    H231821   2.058   2.417  79.082  0.1829 -1.3766  0.3947
 3444TIP3   OH231822   2.096   1.952 105.172  0.1701 -0.6817 -0.1613
 3444TIP3    H131823   2.147   1.872 105.162  0.9987 -0.1829  0.0136
 3444TIP3    H231824   2.011   1.931 105.131  0.5116 -1.5081 -0.4748
 3445TIP3   OH231825   2.364   0.736  82.346  0.0104 -0.3893  0.5994
 3445TIP3    H131826   2.298   0.805  82.359 -1.8531 -2.0208  0.3355
 3445TIP3    H231827   2.388   0.709  82.434  1.2512  0.9834  0.7231
 3446TIP3   OH231828   0.249   1.930  84.420  0.0288 -0.4839  0.1395
 3446TIP3    H131829   0.251   1.902  84.328 -0.7414  0.4729 -0.1793
 3446TIP3    H231830   0.331   1.978  84.432  0.1412 -0.6267 -0.0372
 3447TIP3   OH231831   1.108   1.715  32.028  0.0325 -0.1953 -0.7135
 3447TIP3    H131832   1.084   1.623  32.034 -0.3016 -0.0110  2.0873
 3447TIP3    H231833   1.035   1.756  31.982 -0.2935 -1.1581 -1.0814
 3448TIP3   OH231834   1.358   0.526  81.558  0.0412 -0.1828  0.2936
 3448TIP3    H131835   1.392   0.553  81.473  2.5585  1.2126  1.5850
 3448TIP3    H231836   1.431   0.480  81.599 -0.6765  0.2035  2.1131
 3449TIP3   OH231837   0.890   0.094  20.639  0.2173 -0.1583  0.0860
 3449TIP3    H131838   0.815   0.150  20.656  0.8783  0.2596  1.8705
 3449TIP3    H231839   0.962   0.155  20.621  0.6278 -0.4528  0.6731
 3450TIP3   OH231840   0.753   1.246   2.595  0.0676 -0.0508  0.7130
 3450TIP3    H131841   0.800   1.185   2.652  0.8047  0.0335  0.1990
 3450TIP3    H231842   0.670   1.261   2.641  0.5444 -0.1710  1.6441
 3451TIP3   OH231843   1.758   0.577  91.702 -0.3313 -0.4626 -0.1089
 3451TIP3    H131844   1.788   0.574  91.793 -1.2632  0.4383  0.2407
 3451TIP3    H231845   1.808   0.648  91.662 -1.3053  0.4423  0.2375
 3452TIP3   OH231846   0.443   0.635  85.317  0.9237 -0.7514 -0.1418
 3452TIP3    H131847   0.537   0.640  85.333  0.9829 -1.2219 -0.3246
 3452TIP3    H231848   0.432   0.560  85.259  0.7518  1.0522 -2.5939
 3453TIP3   OH231849   0.607   1.951 103.588  0.1198 -0.2249 -0.1435
 3453TIP3    H131850   0.553   1.906 103.524  0.3699 -2.1524  0.9371
 3453TIP3    H231851   0.545   1.994 103.647 -0.1990 -1.0004  0.0969
 3454TIP3   OH231852   0.980   2.348   8.520  0.2924 -0.5929 -0.0044
 3454TIP3    H131853   0.959   2.401   8.444  0.5081 -1.5018 -0.7158
 3454TIP3    H231854   0.895   2.324   8.557  0.1225 -1.5531 -0.9639
 3455TIP3   OH231855   2.406   0.561 100.348 -0.0703  0.6853 -0.4876
 3455TIP3    H131856   2.339   0.629 100.346 -0.0199  0.7279 -1.0810
 3455TIP3    H231857   2.488   0.608 100.361 -0.0447  0.7345 -0.8139
 3456TIP3   OH231858   2.328   2.565  22.606  0.6741  0.4747  0.2383
 3456TIP3    H131859   2.246   2.596  22.567  1.1875  1.6331  0.0200
 3456TIP3    H231860   2.319   2.470  22.609 -0.4722  0.5496 -0.2355
 3457TIP3   OH231861   1.648   1.632  87.532  0.7283  0.3186 -0.1053
 3457TIP3    H131862   1.742   1.622  87.513  0.9363  0.5167  0.7790
 3457TIP3    H231863   1.615   1.683  87.458  0.8444 -1.6224 -1.5677
 3458TIP3   OH231864   2.302   0.327 109.167 -0.6785  0.0295  0.4252
 3458TIP3    H131865   2.393   0.340 109.193 -0.4048  0.2701 -0.6306
 3458TIP3    H231866   2.254   0.395 109.214 -0.2221  0.3190  0.4759
 3459TIP3   OH231867   1.438   1.300 109.875  0.5789  0.1065 -0.1588
 3459TIP3    H131868   1.494   1.373 109.850  1.2344  0.0700  1.1536
 3459TIP3    H231869   1.357   1.315 109.825  1.2618  0.8689 -1.0777
 3460TIP3   OH231870   1.591   2.448 101.425  0.0723  0.1764  0.0768
 3460TIP3    H131871   1.665   2.427 101.369 -0.2392 -0.1373 -0.2196
 3460TIP3    H231872   1.616   2.414 101.511  0.5049  0.5661  0.1075
 3461TIP3   OH231873   1.661   0.499  75.138  0.2145  0.1063 -0.4515
 3461TIP3    H131874   1.585   0.446  75.114 -0.4446  0.7764  0.1363
 3461TIP3    H231875   1.628   0.588  75.143  0.9140  0.3333  0.3515
 3462TIP3   OH231876   2.440   1.711  94.703 -0.8308  0.0233  0.2566
 3462TIP3    H131877   2.510   1.679  94.760  1.3634  1.5027 -1.4280
 3462TIP3    H231878   2.422   1.639  94.644  1.2145  0.4149 -0.9498
 3463TIP3   OH231879   1.753   2.273  48.737  0.5018  1.0492 -0.7685
 3463TIP3    H131880   1.833   2.325  48.747 -0.1939  2.1247 -0.5463
 3463TIP3    H231881   1.726   2.254  48.826  0.8230  0.1598 -0.8548
 3464TIP3   OH231882   2.178   1.832  87.959  0.2756  0.4548 -0.1816
 3464TIP3    H131883   2.258   1.883  87.942 -1.1219  2.3603 -1.3918
 3464TIP3    H231884   2.121   1.852  87.885 -0.7221 -2.2366 -0.2275
 3465TIP3   OH231885   0.675   0.557  34.959 -0.1795 -0.4432 -0.0384
 3465TIP3    H131886   0.676   0.487  35.024 -2.1594 -0.1031  0.4399
 3465TIP3    H231887   0.595   0.541  34.908 -0.4181  1.1918 -0.2190
 3466TIP3   OH231888   0.581   1.673  27.107  0.3431 -0.2129  0.3376
 3466TIP3    H131889   0.543   1.676  27.195  0.1296 -1.9140  0.3314
 3466TIP3    H231890   0.662   1.624  27.117  0.7891  0.3852 -0.2639
 3467TIP3   OH231891   0.249   0.203  23.941 -0.4205 -0.3247 -0.8855
 3467TIP3    H131892   0.181   0.219  24.007  0.8370 -1.5814  0.8055
 3467TIP3    H231893   0.229   0.117  23.906 -0.1149 -0.3909 -0.9022
 3468TIP3   OH231894   0.091   1.584  18.014  0.1679  0.1980  0.1181
 3468TIP3    H131895   0.168   1.640  18.019  0.8901 -0.7188 -0.3327
 3468TIP3    H231896   0.125   1.496  18.030 -1.0867 -0.0217  1.8467
 3469TIP3   OH231897   0.710   2.143  26.665 -0.0066  0.3496 -0.1781
 3469TIP3    H131898   0.691   2.142  26.759 -1.1935 -0.2995 -0.4021
 3469TIP3    H231899   0.636   2.097  26.625  0.7710  0.0926 -1.3840
 3470TIP3   OH231900   0.736   2.352  91.412 -0.1949 -0.1295 -0.1120
 3470TIP3    H131901   0.807   2.415  91.397  1.2353 -1.0909  2.0868
 3470TIP3    H231902   0.754   2.281  91.350  0.1020  0.1514 -0.3473
 3471TIP3   OH231903   1.063   1.737  90.404  0.3852 -0.6770  0.2282
 3471TIP3    H131904   1.147   1.784  90.403  0.1591 -0.2052 -1.8935
 3471TIP3    H231905   1.025   1.754  90.317 -1.2917 -2.0024  0.6464
 3472TIP3   OH231906   2.125   0.114  36.805 -0.1332  0.0722  0.1069
 3472TIP3    H131907   2.088   0.059  36.874  0.1221 -0.9270 -0.5325
 3472TIP3    H231908   2.054   0.175  36.783  0.0037  0.8599  1.6871
 3473TIP3   OH231909   1.719   0.978  25.186 -0.0328 -0.1756  0.1309
 3473TIP3    H131910   1.732   0.971  25.281  0.5231 -0.4158  0.0408
 3473TIP3    H231911   1.768   0.905  25.149 -0.9878 -0.6227 -0.2941
 3474TIP3   OH231912   0.561   1.048  31.140 -0.0453 -0.0751 -0.6233
 3474TIP3    H131913   0.519   0.970  31.176 -1.7509  1.0461 -0.0644
 3474TIP3    H231914   0.559   1.034  31.045  0.3447 -1.0238 -0.5060
 3475TIP3   OH231915   1.869   0.065  22.548  0.2911 -0.1673 -1.0732
 3475TIP3    H131916   1.778   0.037  22.557  0.2489 -0.1689 -1.4680
 3475TIP3    H231917   1.905   0.007  22.480  0.5450 -0.0750 -1.0175
 3476TIP3   OH231918   1.137   0.340  88.807 -0.1490 -0.2896 -0.3823
 3476TIP3    H131919   1.070   0.294  88.757 -0.0754 -3.2153  1.8913
 3476TIP3    H231920   1.220   0.310  88.769 -0.1221 -0.3337 -0.2907
 3477TIP3   OH231921   0.640   2.582  94.789  0.1372  0.1918  0.0593
 3477TIP3    H131922   0.639   2.530  94.709  0.1430 -0.9492  0.7745
 3477TIP3    H231923   0.549   2.583  94.818  0.4179 -1.1072  1.0755
 3478TIP3   OH231924   1.577   0.311  95.119 -0.4665  0.3458  0.2147
 3478TIP3    H131925   1.482   0.320  95.124 -0.5813 -0.9251  0.7499
 3478TIP3    H231926   1.594   0.287  95.028 -0.8280 -0.8295  0.4304
 3479TIP3   OH231927   1.350   1.098  20.539  0.6892 -0.3226  0.4473
 3479TIP3    H131928   1.328   1.048  20.618  1.0255  1.0165  1.4260
 3479TIP3    H231929   1.265   1.123  20.503  0.5163  1.0615  1.7312
 3480TIP3   OH231930   0.677   1.367  13.098  0.3255  0.3648 -0.0693
 3480TIP3    H131931   0.596   1.382  13.050 -0.1898  0.8706  0.9236
 3480TIP3    H231932   0.667   1.417  13.179  1.6121  0.3983  0.0961
 3481TIP3   OH231933   2.349   0.683  11.393  0.7241  0.4276 -0.0441
 3481TIP3    H131934   2.392   0.605  11.426 -0.9647 -0.6359 -0.2410
 3481TIP3    H231935   2.347   0.671  11.298  0.6519  0.8005 -0.0908
 3482TIP3   OH231936   0.866   2.362  97.726 -0.5950  0.0099 -0.1764
 3482TIP3    H131937   0.863   2.275  97.688 -2.7447  0.5783 -1.5030
 3482TIP3    H231938   0.850   2.349  97.820  1.0302 -1.1188 -0.0217
 3483TIP3   OH231939   0.147   0.942 103.305 -0.6154 -0.6493  0.3868
 3483TIP3    H131940   0.193   0.874 103.256 -0.3342 -0.5307  0.4893
 3483TIP3    H231941   0.130   0.903 103.391 -3.3407 -1.8193 -0.5545
 3484TIP3   OH231942   0.437   2.303  16.626  0.2309 -0.1799 -0.5048
 3484TIP3    H131943   0.375   2.302  16.553 -1.6612 -1.6806  1.0033
 3484TIP3    H231944   0.496   2.230  16.607  0.1727 -0.1386 -0.8617
 3485TIP3   OH231945   1.537   1.299  31.580  0.2585  0.0400  0.0421
 3485TIP3    H131946   1.448   1.330  31.595  0.5694  0.5281  0.9616
 3485TIP3    H231947   1.539   1.274  31.488 -0.4771  1.1919 -0.2989
 3486TIP3   OH231948   2.414   2.512   1.629 -0.1977 -0.4052  0.4533
 3486TIP3    H131949   2.421   2.608   1.633  0.1461 -0.4031 -0.0451
 3486TIP3    H231950   2.377   2.487   1.713 -0.7766  0.2151  0.3938
 3487TIP3   OH231951   1.870   0.277  93.836  0.2281 -0.0679 -0.3265
 3487TIP3    H131952   1.946   0.318  93.793 -0.4511  1.7900  0.1505
 3487TIP3    H231953   1.796   0.303  93.782 -0.4188  0.7580  0.9156
 3488TIP3   OH231954   2.598   2.578  44.456  0.1019  0.4463 -0.2951
 3488TIP3    H131955   2.625   2.523  44.382 -0.3385  0.5043 -0.5030
 3488TIP3    H231956   2.616   2.524  44.534 -0.2139  0.0442 -0.4932
 3489TIP3   OH231957   1.028   0.317  15.828  0.0038 -0.2893  0.0785
 3489TIP3    H131958   1.055   0.408  15.837 -0.0820 -0.1383 -1.0456
 3489TIP3    H231959   1.097   0.267  15.872  1.0486  0.2205 -0.9224
 3490TIP3   OH231960   2.259   0.893  97.977  0.4232 -0.2225  0.0986
 3490TIP3    H131961   2.245   0.831  98.049  0.9804 -0.7647 -0.2484
 3490TIP3    H231962   2.349   0.923  97.988  0.9825 -1.3397 -1.1170
 3491TIP3   OH231963   1.942   2.524 111.266  0.1600  0.5257 -0.3979
 3491TIP3    H131964   1.892   2.554 111.342 -1.1922 -1.4140 -0.4710
 3491TIP3    H231965   1.900   2.566 111.192 -0.8808 -0.4489 -0.3772
 3492TIP3   OH231966   2.127   0.451 100.967 -0.2877 -0.2354 -0.3299
 3492TIP3    H131967   2.085   0.512 101.027 -0.4930 -1.0342  0.3578
 3492TIP3    H231968   2.070   0.449 100.890 -0.1785  0.5740 -0.4406
 3493TIP3   OH231969   0.335   1.751   3.737 -0.2285  0.0324 -0.1815
 3493TIP3    H131970   0.324   1.666   3.695 -0.2369 -0.2151  0.3159
 3493TIP3    H231971   0.348   1.813   3.664 -0.3550 -0.3713 -0.5473
 3494TIP3   OH231972   0.711   2.041   8.047  0.2008 -0.2049 -0.1243
 3494TIP3    H131973   0.807   2.037   8.041  0.2366  0.0474  0.2120
 3494TIP3    H231974   0.681   1.953   8.027  0.4920 -0.2224 -0.4864
 3495TIP3   OH231975   1.476   0.773  57.575 -0.4478 -0.7473 -0.3688
 3495TIP3    H131976   1.561   0.741  57.544 -0.2414 -1.4349  0.8708
 3495TIP3    H231977   1.496   0.855  57.620 -0.0044 -2.2147  2.2801
 3496TIP3   OH231978   1.516   1.840   4.008  0.3750  0.2494 -0.3281
 3496TIP3    H131979   1.569   1.920   4.017  0.5986  0.0948 -0.2757
 3496TIP3    H231980   1.532   1.791   4.088  0.5540 -0.0380 -0.5368
 3497TIP3   OH231981   0.569   1.239  80.102  0.2050  0.0546  0.2430
 3497TIP3    H131982   0.564   1.152  80.140  0.1722 -0.4308 -0.8329
 3497TIP3    H231983   0.499   1.241  80.036 -1.0749  1.5839  1.5693
 3498TIP3   OH231984   0.257   1.281  20.276  0.2629 -0.9352 -0.1133
 3498TIP3    H131985   0.182   1.228  20.303 -0.1894 -0.9338 -1.3228
 3498TIP3    H231986   0.244   1.364  20.322 -0.1728 -1.1344  0.1371
 3499TIP3   OH231987   2.055   1.340 110.739 -0.0280  0.0734  0.3692
 3499TIP3    H131988   2.149   1.353 110.748 -0.0394  0.9961 -0.5799
 3499TIP3    H231989   2.019   1.360 110.825  0.7563 -1.7810  1.1942
 3500TIP3   OH231990   2.633   0.951  14.231 -0.1402  0.3287  0.2840
 3500TIP3    H131991   2.642   0.934  14.324 -0.2464  0.9183  0.4088
 3500TIP3    H231992   2.708   0.907  14.191 -0.9707 -1.3141  0.4570
 3501TIP3   OH231993   1.738   0.966  57.468 -0.1852  0.1358  0.6436
 3501TIP3    H131994   1.820   0.934  57.505  0.3856  0.0676 -0.6301
 3501TIP3    H231995   1.690   0.887  57.443  0.3825  0.2143 -0.7350
 3502TIP3   OH231996   0.216   1.873  76.256  0.0787  0.4096  0.1832
 3502TIP3    H131997   0.310   1.868  76.238 -0.3290 -0.7847 -1.9280
 3502TIP3    H231998   0.191   1.783  76.278 -0.4149  0.9232  1.9430
 3503TIP3   OH231999   0.756   1.744  14.000 -0.0559 -0.6509  0.3320
 3503TIP3    H132000   0.844   1.739  13.964 -0.1868  2.2302 -0.6223
 3503TIP3    H232001   0.768   1.736  14.095  1.2269 -0.3765  0.2093
 3504TIP3   OH232002   2.400   0.901   7.281  0.6086 -0.2976 -0.3606
 3504TIP3    H132003   2.310   0.914   7.311  0.9775 -0.4856  0.9049
 3504TIP3    H232004   2.399   0.816   7.238  0.1662 -0.2592 -0.4292
 3505TIP3   OH232005   0.311   2.450   7.466  0.3324  0.0910  0.6323
 3505TIP3    H132006   0.230   2.448   7.515  1.0452 -2.3083  1.8555
 3505TIP3    H232007   0.374   2.493   7.524  0.4355  0.1344  0.4917
 3506TIP3   OH232008   0.324   0.565  85.892  0.1033 -0.0189 -0.1815
 3506TIP3    H132009   0.388   0.622  85.935 -1.5884  1.4495  0.4849
 3506TIP3    H232010   0.302   0.610  85.811 -0.2139 -0.4469 -0.3413
 3507TIP3   OH232011   1.852   2.390  63.456 -0.8133 -0.1379  0.2096
 3507TIP3    H132012   1.797   2.343  63.519 -0.3168 -0.4711  0.3975
 3507TIP3    H232013   1.937   2.398  63.499 -0.4844 -0.3154 -0.3902
 3508TIP3   OH232014   0.502   1.920  99.223 -0.2345 -0.3166  0.6097
 3508TIP3    H132015   0.522   1.883  99.138 -0.1072 -0.1720  0.5787
 3508TIP3    H232016   0.549   2.003  99.226 -1.7323  0.5939  0.0661
 3509TIP3   OH232017   1.800   1.433  82.839  0.1412 -0.0258  0.0883
 3509TIP3    H132018   1.873   1.458  82.895  0.6080  1.0692 -0.9562
 3509TIP3    H232019   1.748   1.372  82.891  0.1841  1.4442  1.9572
 3510TIP3   OH232020   2.122   1.608  48.192  0.5458 -0.0672 -0.5837
 3510TIP3    H132021   2.101   1.578  48.104 -2.5812  1.6104 -0.5320
 3510TIP3    H232022   2.108   1.703  48.189 -1.4671 -0.1715  2.1269
 3511TIP3   OH232023   0.298   1.613  86.024 -0.0048 -0.0325  0.2700
 3511TIP3    H132024   0.212   1.656  86.016 -0.3852 -0.5960  1.1758
 3511TIP3    H232025   0.281   1.538  86.081  0.7235 -1.1785 -0.9750
 3512TIP3   OH232026   0.284   0.287  22.561 -0.2474 -0.0493  0.0337
 3512TIP3    H132027   0.195   0.305  22.590 -0.3192  0.4946 -0.5063
 3512TIP3    H232028   0.316   0.371  22.529 -0.5338 -0.8006 -2.4333
 3513TIP3   OH232029   2.172   0.293  32.079 -0.3172 -0.2448 -0.3518
 3513TIP3    H132030   2.166   0.388  32.082 -1.2545 -0.2753 -0.8583
 3513TIP3    H232031   2.105   0.267  32.016 -0.1697 -1.2509 -0.1073
 3514TIP3   OH232032   0.882   0.329   2.422 -0.3206  0.1276  0.2860
 3514TIP3    H132033   0.836   0.289   2.496  1.5918 -0.0432  1.4447
 3514TIP3    H232034   0.902   0.256   2.364 -2.0392  0.2932 -0.5915
 3515TIP3   OH232035   0.846   2.316  41.746  0.1055 -0.4079 -0.0858
 3515TIP3    H132036   0.812   2.384  41.803  0.9493  0.4846 -0.6141
 3515TIP3    H232037   0.768   2.273  41.711 -0.4486  0.4412  0.0771
 3516TIP3   OH232038   0.209   0.130  98.718  0.3480 -0.0891  0.1352
 3516TIP3    H132039   0.165   0.126  98.633 -3.9226  2.5337  1.8867
 3516TIP3    H232040   0.256   0.213  98.717 -1.3238  0.9227  0.8608
 3517TIP3   OH232041   0.512   0.596  14.425  0.1397 -0.4754  0.0603
 3517TIP3    H132042   0.550   0.570  14.341 -1.3671  0.5742 -0.9974
 3517TIP3    H232043   0.420   0.573  14.418 -0.3581  1.1503  0.7515
 3518TIP3   OH232044   1.612   2.356  28.683  0.2952  0.1417 -0.3497
 3518TIP3    H132045   1.681   2.423  28.683  1.8166 -1.3459  1.1574
 3518TIP3    H232046   1.659   2.273  28.680 -1.3351 -0.9587  1.7352
 3519TIP3   OH232047   2.370   0.911  37.872  0.4986 -0.2663  0.0673
 3519TIP3    H132048   2.400   0.991  37.829 -0.5746 -0.6584 -1.5255
 3519TIP3    H232049   2.369   0.932  37.965  0.0974  1.6342 -0.3242
 3520TIP3   OH232050   0.501   1.667  75.239  0.1488 -0.1848  0.5595
 3520TIP3    H132051   0.460   1.714  75.166 -0.3844  0.3252  1.1724
 3520TIP3    H232052   0.427   1.639  75.293  0.5871  0.9349  1.8028
 3521TIP3   OH232053   1.206   0.879  15.842  0.4294  0.6199 -0.3979
 3521TIP3    H132054   1.137   0.831  15.795  0.6553 -1.1568  0.9914
 3521TIP3    H232055   1.159   0.928  15.910  0.3901  0.8137 -0.5617
 3522TIP3   OH232056   0.324   0.437 105.696  0.2493  0.2095  0.0123
 3522TIP3    H132057   0.314   0.463 105.787 -0.5740  1.7967 -0.5016
 3522TIP3    H232058   0.239   0.455 105.655  0.9465  0.6344 -1.3212
 3523TIP3   OH232059   1.985   1.603   4.617 -0.1596  0.4423  0.2223
 3523TIP3    H132060   2.038   1.596   4.538  0.1597 -3.2205  0.5951
 3523TIP3    H232061   1.902   1.562   4.594 -0.0398 -0.7667  1.7655
 3524TIP3   OH232062   0.660   1.133  77.023 -0.3848  0.1987 -0.4637
 3524TIP3    H132063   0.661   1.039  77.006 -0.7629 -0.0400  0.7789
 3524TIP3    H232064   0.568   1.154  77.041 -0.7298  1.2522 -2.9402
 3525TIP3   OH232065   2.485   1.847  27.012  0.2596 -0.1999 -0.2266
 3525TIP3    H132066   2.500   1.863  27.105 -1.9393  1.4293 -0.0550
 3525TIP3    H232067   2.402   1.890  26.994  0.4286 -0.8131 -2.8820
 3526TIP3   OH232068   0.138   1.705  36.736  0.1995 -0.2202 -0.4237
 3526TIP3    H132069   0.086   1.642  36.786  0.4194  0.1467  0.2727
 3526TIP3    H232070   0.072   1.756  36.688 -0.1451  0.5266  0.7824
 3527TIP3   OH232071   1.193   0.459  96.259 -0.2138  0.5237  0.2128
 3527TIP3    H132072   1.268   0.503  96.299  1.1909 -0.1004 -1.6171
 3527TIP3    H232073   1.131   0.530  96.240  0.5325  1.2428  0.4242
 3528TIP3   OH232074   1.353   1.963  83.688 -0.4714 -0.5638  0.1385
 3528TIP3    H132075   1.439   1.936  83.717  0.2349 -1.0451 -2.1696
 3528TIP3    H232076   1.344   2.053  83.718  0.3200 -0.8945  1.4155
 3529TIP3   OH232077   1.007   1.081  91.983  0.2794 -0.0378 -0.0671
 3529TIP3    H132078   0.929   1.124  92.019  1.3862  2.2270 -0.1795
 3529TIP3    H232079   1.015   0.999  92.032 -1.1632  0.5392  1.1823
 3530TIP3   OH232080   0.110   2.328  34.339 -0.4407 -0.1981  0.2076
 3530TIP3    H132081   0.168   2.326  34.263 -0.6593  1.8399 -0.0760
 3530TIP3    H232082   0.165   2.356  34.411 -1.1611  2.8701 -0.2886
 3531TIP3   OH232083   0.300   1.522  83.194  0.4726 -0.3644 -0.6686
 3531TIP3    H132084   0.273   1.519  83.286  0.9968  0.1281 -0.4939
 3531TIP3    H232085   0.219   1.539  83.146  0.6985  4.2661  0.0594
 3532TIP3   OH232086   1.160   2.413 104.715  0.5197 -0.0061  0.0219
 3532TIP3    H132087   1.216   2.413 104.793  0.3896  0.1944  0.1144
 3532TIP3    H232088   1.215   2.374 104.647  1.5389  2.0387 -0.4153
 3533TIP3   OH232089   2.424   1.869 106.286  0.5313  0.6491  0.0400
 3533TIP3    H132090   2.393   1.929 106.353 -0.1769 -0.4958  0.7798
 3533TIP3    H232091   2.366   1.883 106.212  1.1520  1.7370 -0.2551
 3534TIP3   OH232092   0.542   0.742  36.165 -0.0571 -0.5608  0.6761
 3534TIP3    H132093   0.529   0.670  36.227  0.8914 -1.0120  0.3842
 3534TIP3    H232094   0.480   0.810  36.192 -1.0471 -1.5266  0.8925
 3535TIP3   OH232095   1.602   2.240  24.746 -0.2133 -0.4947 -0.3830
 3535TIP3    H132096   1.592   2.158  24.793 -3.6638 -0.1739 -0.3349
 3535TIP3    H232097   1.606   2.307  24.815 -1.9169 -0.3068 -0.4292
 3536TIP3   OH232098   2.326   2.041  75.251 -0.1285 -0.2366 -0.4520
 3536TIP3    H132099   2.386   2.112  75.272 -0.8544 -0.7301  4.4100
 3536TIP3    H232100   2.239   2.081  75.251 -0.3849 -0.7857  0.2801
 3537TIP3   OH232101   1.545   1.948  13.757 -0.0014  0.6671  0.0504
 3537TIP3    H132102   1.604   2.018  13.728 -0.8015  1.5916  0.6016
 3537TIP3    H232103   1.493   1.927  13.680  0.8256  0.0597 -0.3544
 3538TIP3   OH232104   1.672   2.116  86.098  0.2818 -0.4793  0.2127
 3538TIP3    H132105   1.676   2.153  86.010 -0.3430  0.3791  0.5435
 3538TIP3    H232106   1.608   2.170  86.144  1.5966 -0.0574  1.6012
 3539TIP3   OH232107   2.624   0.368   6.299  0.1599 -0.0605  0.1844
 3539TIP3    H132108   2.607   0.282   6.338  0.2886  0.1535  0.7171
 3539TIP3    H232109   2.720   0.371   6.292  0.2975  0.8113  1.9659
 3540TIP3   OH232110   2.076   0.033 110.932  0.2854  0.2618  0.3879
 3540TIP3    H132111   2.040   0.120 110.952 -1.3164 -0.0226 -1.0478
 3540TIP3    H232112   2.083   0.031 110.837  0.5004 -1.1056  0.4100
 3541TIP3   OH232113   0.326   2.545  18.119 -0.3377  0.0171 -0.5574
 3541TIP3    H132114   0.359   2.520  18.032 -0.2329 -0.9131 -0.2616
 3541TIP3    H232115   0.317   2.462  18.165  0.8451  0.5945  0.7750
 3542TIP3   OH232116   0.863   0.845 106.414 -0.1584  0.0176 -0.0765
 3542TIP3    H132117   0.952   0.879 106.399 -0.5240  0.8007 -0.5131
 3542TIP3    H232118   0.808   0.923 106.421 -0.8028 -0.4614  0.3200
 3543TIP3   OH232119   0.515   0.801   7.694 -0.7246  0.3402  0.0072
 3543TIP3    H132120   0.594   0.799   7.747 -0.1846 -0.9096 -0.7986
 3543TIP3    H232121   0.528   0.877   7.636  0.3634 -0.4097 -0.7797
 3544TIP3   OH232122   0.161   0.300   6.619  0.1586 -0.2513  0.1633
 3544TIP3    H132123   0.170   0.326   6.528 -0.7314 -0.0840  0.1208
 3544TIP3    H232124   0.145   0.206   6.616 -0.2461 -0.1815  0.1266
 3545TIP3   OH232125   0.454   2.650  87.750 -0.0316 -0.0300 -0.0442
 3545TIP3    H132126   0.522   2.667  87.815 -1.9763 -0.4487  2.2332
 3545TIP3    H232127   0.387   2.715  87.769  0.5203  1.8306 -3.6638
 3546TIP3   OH232128   1.122   1.428   7.651  0.0469 -0.3346 -0.1574
 3546TIP3    H132129   1.212   1.401   7.668  0.3552  1.1231  0.6944
 3546TIP3    H232130   1.100   1.387   7.567  1.1031 -1.6148  0.1572
 3547TIP3   OH232131   1.810   2.372  26.374 -0.2505 -0.0510  0.8867
 3547TIP3    H132132   1.829   2.278  26.368 -3.6316 -0.7611 -1.2660
 3547TIP3    H232133   1.849   2.409  26.295 -1.7437 -0.3091 -0.0065
 3548TIP3   OH232134   1.454   1.065  63.477  0.2335  0.1849 -0.4355
 3548TIP3    H132135   1.448   1.095  63.567  1.1987  3.2099 -1.2806
 3548TIP3    H232136   1.535   1.105  63.443 -0.5281 -0.1693 -2.8745
 3549TIP3   OH232137   2.043   1.564  90.266  0.4376  0.1738  0.3080
 3549TIP3    H132138   2.097   1.526  90.197  0.2582  0.5729 -0.0548
 3549TIP3    H232139   1.954   1.537  90.244  0.0657  2.1956 -0.9398
 3550TIP3   OH232140   1.424   1.091  90.666 -0.3054  0.0932 -0.8582
 3550TIP3    H132141   1.398   1.008  90.626  0.7138  0.1997 -1.7893
 3550TIP3    H232142   1.443   1.068  90.757 -0.2474 -0.6664 -1.0473
 3551TIP3   OH232143   2.516   1.725  90.158 -0.9397 -0.2179  0.1970
 3551TIP3    H132144   2.458   1.679  90.218 -0.6557 -0.8229  0.0129
 3551TIP3    H232145   2.466   1.732  90.077 -0.5873 -1.1401 -0.1022
 3552TIP3   OH232146   2.085   1.750   3.477 -0.1743  0.2454  0.1906
 3552TIP3    H132147   2.069   1.834   3.521  0.8773  0.0267  1.0081
 3552TIP3    H232148   2.173   1.726   3.503  0.5457  0.1552 -2.1483
 3553TIP3   OH232149   1.207   1.947   8.534  0.5381  0.3195 -0.2936
 3553TIP3    H132150   1.138   1.903   8.484  1.0990 -2.0304  0.8497
 3553TIP3    H232151   1.217   2.032   8.492 -0.8867 -0.4865 -2.4174
 3554TIP3   OH232152   2.676   2.208  21.867  0.0384 -0.0192  0.2731
 3554TIP3    H132153   2.704   2.139  21.806  0.2456 -0.6914  1.1027
 3554TIP3    H232154   2.753   2.262  21.880 -0.2276  0.5974 -0.6703
 3555TIP3   OH232155   0.576   2.045   8.364 -0.2205 -0.6455  0.2142
 3555TIP3    H132156   0.492   2.032   8.320 -0.9350 -0.7666  1.5752
 3555TIP3    H232157   0.620   2.113   8.312 -0.3342 -1.8772 -1.6086
 3556TIP3   OH232158   1.333   1.844  24.155  0.6757  0.2766  0.0025
 3556TIP3    H132159   1.350   1.938  24.153 -0.0329  0.4134 -0.0172
 3556TIP3    H232160   1.303   1.827  24.244 -0.3910  0.3048 -0.3341
 3557TIP3   OH232161   0.497   1.060 103.054 -0.3567  0.0618 -0.0105
 3557TIP3    H132162   0.405   1.052 103.027 -0.0926  0.8721 -1.1745
 3557TIP3    H232163   0.510   1.154 103.068  0.3958 -0.0071 -0.2174
 3558TIP3   OH232164   0.766   2.292  27.970 -0.2900 -0.1109  0.5150
 3558TIP3    H132165   0.745   2.326  28.057 -0.6916  0.2684  0.2760
 3558TIP3    H232166   0.761   2.369  27.912  0.9034 -0.1763  0.3040
 3559TIP3   OH232167   0.467   1.590  29.566 -0.4460 -0.1065  0.4433
 3559TIP3    H132168   0.495   1.630  29.484  0.5938 -1.9614 -0.1827
 3559TIP3    H232169   0.374   1.612  29.573 -0.5181  0.2303 -1.1517
 3560TIP3   OH232170   1.920   2.020  16.444 -0.5366 -0.2669 -0.3204
 3560TIP3    H132171   1.997   2.063  16.407 -0.3991  1.4599  1.7533
 3560TIP3    H232172   1.954   1.938  16.481  0.4886  0.7726  1.1304
 3561TIP3   OH232173   1.426   2.436  33.152 -0.3511 -0.6989  0.3169
 3561TIP3    H132174   1.374   2.401  33.080  0.0307 -1.3445  0.3470
 3561TIP3    H232175   1.506   2.469  33.111 -0.7415  0.2280  0.2847
 3562TIP3   OH232176   1.033   2.117  35.015  0.1111 -0.1410  0.5964
 3562TIP3    H132177   1.112   2.064  35.007 -1.0108 -1.9159  0.6926
 3562TIP3    H232178   1.012   2.143  34.925  0.5816  0.0028  0.5246
 3563TIP3   OH232179   1.945   0.918 101.296 -0.2353 -0.0204 -0.0595
 3563TIP3    H132180   2.004   0.966 101.354  2.3639 -1.5918 -1.2479
 3563TIP3    H232181   1.930   0.835 101.341 -0.4134 -0.1752 -0.4061
 3564TIP3   OH232182   2.238   1.947   8.483  0.2262 -0.2559 -0.4095
 3564TIP3    H132183   2.149   1.977   8.467 -0.5782 -2.8959 -1.4719
 3564TIP3    H232184   2.231   1.885   8.556  1.1758 -0.4765 -0.4816
 3565TIP3   OH232185   0.040   1.883   5.272  0.2814 -0.3000 -0.2139
 3565TIP3    H132186   0.132   1.865   5.295  0.4542  1.3729  0.5032
 3565TIP3    H232187   0.034   1.978   5.269 -1.1536 -0.4069 -1.5058
 3566TIP3   OH232188   1.441   0.030  86.819 -0.4690 -0.3553 -0.6266
 3566TIP3    H132189   1.491  -0.010  86.891 -1.1526 -0.4332 -0.1868
 3566TIP3    H232190   1.417   0.116  86.852 -0.2008 -0.1233 -1.0309
 3567TIP3   OH232191   0.756   2.294  99.957  0.1352  0.0520 -0.2479
 3567TIP3    H132192   0.775   2.257 100.043 -0.0660 -1.2588 -0.7415
 3567TIP3    H232193   0.756   2.219  99.898  1.2486  1.0364 -1.5712
 3568TIP3   OH232194   2.612   1.830  36.593 -0.1489 -0.5271 -0.1023
 3568TIP3    H132195   2.567   1.831  36.508  0.7538 -2.3204 -0.6606
 3568TIP3    H232196   2.542   1.830  36.658 -0.8567  1.2955 -0.8005
 3569TIP3   OH232197   0.142   2.030  81.658  0.2825 -0.2006  0.3282
 3569TIP3    H132198   0.080   2.000  81.592 -1.4665  0.6359  1.4941
 3569TIP3    H232199   0.192   2.100  81.615 -0.3200 -0.1688 -0.3371
 3570TIP3   OH232200   1.173   0.900  36.475 -0.0166  0.3829 -0.4171
 3570TIP3    H132201   1.255   0.945  36.454 -0.2607  1.5137  0.9028
 3570TIP3    H232202   1.149   0.934  36.561 -0.3200 -2.1846  0.5863
 3571TIP3   OH232203   1.946   2.302  10.905  0.1530 -0.3316  0.2579
 3571TIP3    H132204   1.907   2.239  10.966  0.5600 -0.1227  0.7444
 3571TIP3    H232205   1.871   2.337  10.857 -0.0748 -1.2111 -0.0528
 3572TIP3   OH232206   2.363   1.060  85.737 -0.2537  0.0672 -0.2941
 3572TIP3    H132207   2.413   1.008  85.674  0.0850 -0.9081  0.7445
 3572TIP3    H232208   2.272   1.052  85.708  0.0226  0.6677 -1.3671
 3573TIP3   OH232209   0.973   2.358  19.354 -0.1800  0.2440  0.5261
 3573TIP3    H132210   1.054   2.375  19.306 -0.9661 -0.7046 -1.2228
 3573TIP3    H232211   0.999   2.360  19.446  1.4578  1.7780  0.0841
 3574TIP3   OH232212   0.294   0.383  10.491 -0.0100  0.0964 -0.2628
 3574TIP3    H132213   0.316   0.308  10.545 -1.2770 -0.6395 -0.7240
 3574TIP3    H232214   0.227   0.430  10.541 -2.4228 -1.4802 -1.7776
 3575TIP3   OH232215   0.543   2.011  74.141 -0.5051  0.4844 -0.2340
 3575TIP3    H132216   0.592   1.966  74.211 -0.4151 -0.9980 -1.2083
 3575TIP3    H232217   0.501   1.940  74.092 -0.1926  1.4538 -1.9680
 3576TIP3   OH232218   1.630   1.633  19.407 -0.5051 -0.3583  0.0074
 3576TIP3    H132219   1.672   1.581  19.338  0.1224  0.2764 -0.0977
 3576TIP3    H232220   1.543   1.650  19.373 -0.2860 -0.2616 -0.5276
 3577TIP3   OH232221   2.289   0.259  98.727 -0.0279  0.1990 -0.1891
 3577TIP3    H132222   2.285   0.212  98.644 -1.8945  1.9961 -1.1788
 3577TIP3    H232223   2.378   0.295  98.730  0.2508 -0.3874 -1.0918
 3578TIP3   OH232224   1.784   1.882   2.742  0.3190 -0.0980 -0.7437
 3578TIP3    H132225   1.740   1.801   2.718  1.2886 -0.7224 -0.4645
 3578TIP3    H232226   1.740   1.950   2.690 -1.1601 -0.6372 -0.2507
 3579TIP3   OH232227   2.151   0.064  36.068 -0.6970  0.1659 -0.0282
 3579TIP3    H132228   2.121  -0.002  36.131 -0.3368  3.2431  3.8056
 3579TIP3    H232229   2.246   0.068  36.081 -0.7076  1.3643 -0.1929
 3580TIP3   OH232230   1.914   2.293  31.486 -0.1472  0.1669 -0.3478
 3580TIP3    H132231   1.859   2.372  31.477  0.9879  0.8635 -1.3851
 3580TIP3    H232232   2.003   2.325  31.477  0.5294 -0.8730  1.8515
 3581TIP3   OH232233   0.083   0.553  81.252  0.1092 -0.6340 -0.3242
 3581TIP3    H132234   0.036   0.636  81.260  1.1563 -0.0338 -0.2276
 3581TIP3    H232235   0.069   0.509  81.335  0.5017 -0.0316  0.0643
 3582TIP3   OH232236   2.253   1.396  35.771  0.4292  0.0366  0.6867
 3582TIP3    H132237   2.332   1.355  35.804 -0.6927 -4.1621 -1.1462
 3582TIP3    H232238   2.190   1.389  35.843  1.0150  1.2586  1.3448
 3583TIP3   OH232239   1.145   2.609  79.846  0.6640 -0.0731 -0.7180
 3583TIP3    H132240   1.170   2.605  79.938  1.3408 -1.2656 -0.9377
 3583TIP3    H232241   1.165   2.522  79.811  1.2222  0.6021 -2.1867
 3584TIP3   OH232242   0.756   1.887  76.928  0.2367 -0.6359  0.5501
 3584TIP3    H132243   0.794   1.955  76.872  0.0653 -0.8596  0.1561
 3584TIP3    H232244   0.668   1.918  76.947  0.2227 -0.6592  0.5219
 3585TIP3   OH232245   2.042   1.221   6.082 -0.1574  0.1329  0.5905
 3585TIP3    H132246   1.954   1.254   6.098 -0.6697 -0.3565 -1.0111
 3585TIP3    H232247   2.029   1.132   6.050  0.8498  0.2901 -0.3430
 3586TIP3   OH232248   0.272   0.779  82.011  0.2584  0.2587 -0.4333
 3586TIP3    H132249   0.326   0.756  81.936  2.2156  1.5795  0.4777
 3586TIP3    H232250   0.237   0.866  81.990  0.1717  0.2936 -0.1523
 3587TIP3   OH232251   0.184   0.219 111.676  0.5537  0.1804  0.1780
 3587TIP3    H132252   0.099   0.255 111.700  0.7532  1.4251 -0.8526
 3587TIP3    H232253   0.188   0.227 111.580  1.6690 -0.2041  0.1709
 3588TIP3   OH232254   0.647   2.408  33.753  0.3080  0.3172  0.3554
 3588TIP3    H132255   0.650   2.360  33.669  1.3273  2.4210 -0.9000
 3588TIP3    H232256   0.737   2.405  33.784  0.2909  1.0589  0.4718
 3589TIP3   OH232257   1.292   2.091  81.807  0.3829  0.3872 -0.1711
 3589TIP3    H132258   1.346   2.023  81.847  0.0853 -0.5298 -1.2852
 3589TIP3    H232259   1.348   2.169  81.806  0.6352  0.2618  1.3591
 3590TIP3   OH232260   2.202   2.565  90.451  0.0418  0.3611  0.0332
 3590TIP3    H132261   2.123   2.617  90.438 -0.2187  0.1508  0.7240
 3590TIP3    H232262   2.176   2.475  90.429 -0.0437  0.2170  0.7123
 3591TIP3   OH232263   2.105   1.283  82.727  0.1430 -0.2716  0.0214
 3591TIP3    H132264   2.136   1.331  82.805 -0.0126 -0.4876  0.2150
 3591TIP3    H232265   2.064   1.350  82.673  3.9265  0.7837 -1.9212
 3592TIP3   OH232266   2.364   2.121  30.958  0.9539 -0.3034  0.1877
 3592TIP3    H132267   2.388   2.209  30.989 -0.6299  0.0849  0.3943
 3592TIP3    H232268   2.283   2.134  30.909  0.6042 -1.6754  0.3536
 3593TIP3   OH232269   1.742   0.788  83.906  0.3029 -0.1975  0.0931
 3593TIP3    H132270   1.792   0.709  83.927 -1.1868 -1.4375 -0.7699
 3593TIP3    H232271   1.651   0.758  83.900 -0.3225  1.6130 -0.1640
 3594TIP3   OH232272   0.772   1.164  25.280  0.3843 -0.6211 -0.0690
 3594TIP3    H132273   0.857   1.133  25.311  0.3091 -0.4239  0.3427
 3594TIP3    H232274   0.717   1.165  25.358  0.5685  1.1836  0.0714
 3595TIP3   OH232275   2.101   2.473  82.692 -0.2436  0.0764  0.2885
 3595TIP3    H132276   2.040   2.410  82.731  0.4464 -0.2880  0.8021
 3595TIP3    H232277   2.051   2.555  82.688 -0.3758  0.1095  1.8799
 3596TIP3   OH232278   1.977   0.430 111.495 -0.2545 -0.0938  0.3848
 3596TIP3    H132279   1.949   0.344 111.524 -0.8781 -0.8600 -2.2374
 3596TIP3    H232280   1.895   0.481 111.489 -0.0270  0.3305  0.8244
 3597TIP3   OH232281   1.983   1.500  10.244  0.3412 -0.1677  0.2571
 3597TIP3    H132282   1.968   1.487  10.150 -0.5544 -0.1423  0.3815
 3597TIP3    H232283   1.948   1.420  10.285 -0.1837  0.2533  0.6386
 3598TIP3   OH232284   0.576   1.215 104.273 -0.2043  0.6137 -0.1098
 3598TIP3    H132285   0.538   1.214 104.185 -0.1572 -0.9211 -0.1489
 3598TIP3    H232286   0.549   1.131 104.311  1.7818  0.1860  0.4502
 3599TIP3   OH232287   0.322   2.083   8.732 -0.1656 -0.2462  0.0982
 3599TIP3    H132288   0.326   1.994   8.699 -0.1757 -0.3927  0.4937
 3599TIP3    H232289   0.231   2.094   8.761 -0.8214  0.6557 -2.0724
 3600TIP3   OH232290   0.296   0.325   0.040  0.3260  0.1667  0.1353
 3600TIP3    H132291   0.209   0.359   0.018  0.4715  2.0232  2.1087
 3600TIP3    H232292   0.354   0.364  -0.026 -0.2594 -0.9612 -1.0986
 3601TIP3   OH232293   2.117   1.892  35.837  0.1702 -0.3681 -0.5966
 3601TIP3    H132294   2.038   1.901  35.783  1.7902 -0.1810 -3.0854
 3601TIP3    H232295   2.141   1.800  35.828  0.3525 -0.3775 -0.0146
 3602TIP3   OH232296   1.331   1.034  91.076 -0.7214 -0.0069  0.6762
 3602TIP3    H132297   1.405   1.022  91.017 -0.8637  0.0391  0.4902
 3602TIP3    H232298   1.346   1.119  91.117 -0.9567  0.2544  0.2334
 3603TIP3   OH232299   2.328   2.062 109.792  0.0424  0.1421 -0.1246
 3603TIP3    H132300   2.327   1.967 109.779 -0.0148  0.2470 -0.9235
 3603TIP3    H232301   2.332   2.073 109.887 -1.0581 -0.6490  0.0266
 3604TIP3   OH232302   0.532   0.725  26.420  0.2207 -0.2022 -0.2736
 3604TIP3    H132303   0.570   0.640  26.398 -1.2718 -0.8073 -0.6114
 3604TIP3    H232304   0.526   0.771  26.337 -1.3403 -0.7842 -0.5143
 3605TIP3   OH232305   1.664   2.154  34.699 -0.0298  0.3257  0.2069
 3605TIP3    H132306   1.696   2.244  34.699  0.1637  0.2815  1.9549
 3605TIP3    H232307   1.722   2.108  34.638  1.7521  0.7717  1.4919
 3606TIP3   OH232308   2.557   2.297 110.651  0.0420 -0.3961  0.2027
 3606TIP3    H132309   2.504   2.375 110.633  0.3201  0.1499  1.6199
 3606TIP3    H232310   2.647   2.330 110.657  0.1541 -0.8027  0.8782
 3607TIP3   OH232311   0.663   2.364  98.251 -0.1313 -0.5151 -0.3153
 3607TIP3    H132312   0.584   2.312  98.260 -0.5332  0.2492  0.8221
 3607TIP3    H232313   0.647   2.442  98.304  1.6080 -0.6106  0.4313
 3608TIP3   OH232314   1.551   0.565  21.189 -0.3006  0.6443 -0.4824
 3608TIP3    H132315   1.627   0.512  21.163 -1.1967 -0.6714 -0.4966
 3608TIP3    H232316   1.551   0.560  21.284 -0.3927  0.6028 -0.4844
 3609TIP3   OH232317   1.017   0.696 102.827  0.5613  0.7279 -0.1551
 3609TIP3    H132318   0.961   0.727 102.898 -0.4087 -0.1704 -0.4938
 3609TIP3    H232319   1.048   0.775 102.783 -0.1615  1.2446  0.2552
 3610TIP3   OH232320   0.009   2.624  20.563  0.0161 -0.5352 -0.1324
 3610TIP3    H132321   0.052   2.610  20.479  0.9635  0.5350  0.1447
 3610TIP3    H232322   0.046   2.556  20.620  2.3136  1.0626  0.4161
 3611TIP3   OH232323   0.267   1.310  18.318 -0.4416  0.1368 -0.4283
 3611TIP3    H132324   0.325   1.264  18.378 -0.9447  1.2780  0.9843
 3611TIP3    H232325   0.250   1.247  18.248  1.4139 -0.6845 -0.1981
 3612TIP3   OH232326   1.766   1.203  77.164  0.7194  1.2541  0.7129
 3612TIP3    H132327   1.723   1.284  77.193 -0.1281  0.7394  0.9250
 3612TIP3    H232328   1.694   1.148  77.131  1.2013  0.3381  1.1634
 3613TIP3   OH232329   2.294   1.671  33.463 -0.6013  0.1760  0.1524
 3613TIP3    H132330   2.230   1.645  33.397 -0.2267 -1.0616  0.2355
 3613TIP3    H232331   2.361   1.602  33.460  0.3623  1.0638  0.5540
 3614TIP3   OH232332   1.850   2.422  19.430 -0.5630 -0.1449  0.0991
 3614TIP3    H132333   1.876   2.363  19.501 -0.8267 -0.9679 -0.4745
 3614TIP3    H232334   1.801   2.367  19.369  0.3770  0.3614 -1.1537
 3615TIP3   OH232335   0.620   2.322  68.069 -0.2780 -0.5169 -0.0152
 3615TIP3    H132336   0.629   2.410  68.031 -0.2632 -0.4018  0.2570
 3615TIP3    H232337   0.707   2.301  68.103 -0.0320 -1.0306 -0.9234
 3616TIP3   OH232338   0.553   2.253  21.776  0.1709  0.2175  0.2122
 3616TIP3    H132339   0.608   2.324  21.743  0.9577 -0.4409  0.0830
 3616TIP3    H232340   0.497   2.295  21.841  0.3532  1.0352 -0.1414
 3617TIP3   OH232341   1.197   2.442  80.994 -0.2387  0.0444 -0.1090
 3617TIP3    H132342   1.111   2.436  80.953  0.3222  2.0058 -1.7133
 3617TIP3    H232343   1.258   2.415  80.926  0.5749  1.2094  0.1334
 3618TIP3   OH232344   1.180   0.528  20.025  0.0413  0.3450 -0.3957
 3618TIP3    H132345   1.247   0.597  20.018 -0.2366  0.8092  1.1223
 3618TIP3    H232346   1.213   0.469  20.093 -0.2278 -0.4508 -0.9427
 3619TIP3   OH232347   1.199   1.374  37.058 -0.1517 -0.4249  0.0737
 3619TIP3    H132348   1.236   1.287  37.076  0.1082 -0.0916  1.1844
 3619TIP3    H232349   1.130   1.385  37.123 -0.6017 -0.0434 -0.4603
 3620TIP3   OH232350   1.229   1.417  75.566  0.8460 -0.2604 -0.0698
 3620TIP3    H132351   1.260   1.420  75.475  2.2051 -2.8211  0.2070
 3620TIP3    H232352   1.223   1.324  75.586  0.0962  0.2347  2.3358
 3621TIP3   OH232353   2.669   0.779  32.217 -0.3861 -0.2614 -0.8615
 3621TIP3    H132354   2.623   0.861  32.233 -1.0647 -0.7226 -0.3683
 3621TIP3    H232355   2.698   0.784  32.126  0.0140  0.7212 -0.6917
 3622TIP3   OH232356   2.212   0.402  34.354  0.0833 -0.2551 -0.1342
 3622TIP3    H132357   2.259   0.352  34.287 -0.6945  0.8911 -1.6056
 3622TIP3    H232358   2.143   0.447  34.305 -0.8280  0.2316  1.5420
 3623TIP3   OH232359   1.907   0.507  19.984  0.4998 -0.1203  0.9305
 3623TIP3    H132360   1.830   0.529  20.037  0.0262  0.0798  0.1823
 3623TIP3    H232361   1.979   0.552  20.027  0.0880  0.2138  1.2844
 3624TIP3   OH232362   0.835   0.928  13.410  0.5687  0.2559  0.9464
 3624TIP3    H132363   0.812   0.869  13.481 -0.7248 -0.2706  0.1226
 3624TIP3    H232364   0.754   0.973  13.387  0.9898  0.5472 -0.0849
 3625TIP3   OH232365   0.693   0.092  31.376 -0.0126 -0.4840 -0.0602
 3625TIP3    H132366   0.682  -0.003  31.380 -1.5165 -0.3680 -0.5802
 3625TIP3    H232367   0.636   0.126  31.445 -0.2717  0.0668 -0.5332
 3626TIP3   OH232368   0.449   1.639 100.533 -0.4731  0.1272 -0.2099
 3626TIP3    H132369   0.530   1.678 100.567  0.3264 -1.2182 -0.5202
 3626TIP3    H232370   0.380   1.677 100.588  0.4793  0.4410  0.8052
 3627TIP3   OH232371   2.528   1.677 100.004 -0.0708 -0.0440  0.0309
 3627TIP3    H132372   2.613   1.661  99.961 -0.4580  0.1635 -0.8306
 3627TIP3    H232373   2.548   1.741 100.072  0.8102 -1.3888  1.0981
 3628TIP3   OH232374   0.632   1.996  17.843  0.2135 -0.0517  0.4632
 3628TIP3    H132375   0.579   2.047  17.782 -0.5057 -0.4567  0.7317
 3628TIP3    H232376   0.723   2.020  17.823 -0.0355  0.1612 -0.4533
 3629TIP3   OH232377   0.578   1.593  26.358 -0.3643 -0.2546  0.1955
 3629TIP3    H132378   0.654   1.645  26.332 -0.4944 -0.2808 -0.2412
 3629TIP3    H232379   0.526   1.652  26.412 -0.5091  0.0676 -0.2981
 3630TIP3   OH232380   0.356   0.261  83.562  0.2840  0.0577  0.1459
 3630TIP3    H132381   0.445   0.279  83.531  0.1747  0.0745 -0.1572
 3630TIP3    H232382   0.369   0.212  83.644  0.5785  1.1632  0.7797
 3631TIP3   OH232383   1.725   1.589  11.929  0.1598  0.4557  0.1677
 3631TIP3    H132384   1.758   1.555  12.012  0.9825 -1.4741 -0.8786
 3631TIP3    H232385   1.804   1.614  11.880 -0.1857 -0.0589 -0.6818
 3632TIP3   OH232386   1.571   0.038  31.356  0.1650  0.0636  0.1711
 3632TIP3    H132387   1.559  -0.020  31.280 -0.9128 -0.6759  0.8708
 3632TIP3    H232388   1.486   0.081  31.366  0.4873  0.5984  0.6054
 3633TIP3   OH232389   2.100   2.348   7.561  0.2122  0.1887  0.2663
 3633TIP3    H132390   2.023   2.353   7.505  0.4854  0.4500 -0.0892
 3633TIP3    H232391   2.074   2.392   7.642 -0.6856 -1.4821  0.9394
 3634TIP3   OH232392   1.806   1.751  36.065  0.0995  0.3678 -0.5788
 3634TIP3    H132393   1.791   1.781  36.154 -1.3691  0.3507 -0.7932
 3634TIP3    H232394   1.722   1.763  36.021  0.6584 -0.0823 -1.8312
 3635TIP3   OH232395   0.516   2.042  18.066  0.8330 -0.5952  0.1213
 3635TIP3    H132396   0.573   2.038  17.990  0.8286  1.6356 -0.0845
 3635TIP3    H232397   0.513   1.953  18.099  4.0855 -0.8970 -0.0896
 3636TIP3   OH232398   0.685   2.348  93.645  0.1136  0.2609 -0.3402
 3636TIP3    H132399   0.757   2.370  93.586  0.4686 -0.6626 -0.2600
 3636TIP3    H232400   0.646   2.270  93.608 -0.7082  0.6221 -0.2498
 3637TIP3   OH232401   0.567   1.076 105.959 -0.1456  0.2667 -0.8446
 3637TIP3    H132402   0.632   1.073 106.030  0.8440  2.0652 -1.6014
 3637TIP3    H232403   0.533   0.987 105.954  0.9139 -0.2906  0.8215
 3638TIP3   OH232404   0.853   1.559   5.520  0.0597  0.3004 -0.6107
 3638TIP3    H132405   0.900   1.563   5.604  1.5294 -0.7663 -1.3348
 3638TIP3    H232406   0.844   1.465   5.502 -0.5956  0.5140 -1.4605
 3639TIP3   OH232407   1.177   2.096  92.503 -0.0325 -0.0626  0.3604
 3639TIP3    H132408   1.202   2.188  92.495  0.3140 -0.2152 -0.4065
 3639TIP3    H232409   1.167   2.082  92.598  0.2463  0.6764  0.5067
 3640TIP3   OH232410   1.705   0.425 108.748 -0.1007 -0.1585 -0.1197
 3640TIP3    H132411   1.798   0.417 108.726  0.5984  1.3047  1.9874
 3640TIP3    H232412   1.665   0.461 108.669  0.9112 -1.6018 -1.3575
 3641TIP3   OH232413   1.505   0.580  97.532 -0.5185 -0.5262 -0.0283
 3641TIP3    H132414   1.508   0.676  97.529  1.9091 -0.5375  0.0326
 3641TIP3    H232415   1.533   0.553  97.444 -0.3693 -1.1806  0.2140
 3642TIP3   OH232416   1.594   1.971   0.243 -0.1010  0.0721  0.2937
 3642TIP3    H132417   1.520   1.940   0.191 -0.0279  1.3829 -0.6174
 3642TIP3    H232418   1.591   2.066   0.236  0.8200  0.2102  1.4418
 3643TIP3   OH232419   0.703   2.452  94.564  0.3397 -0.0027 -0.0120
 3643TIP3    H132420   0.703   2.361  94.596  2.8692 -0.3150 -0.6611
 3643TIP3    H232421   0.790   2.463  94.526 -0.1261  2.5442 -0.4714
 3644TIP3   OH232422   1.374   1.848  26.133 -0.5897 -0.3006 -0.1359
 3644TIP3    H132423   1.306   1.892  26.183 -2.1318 -1.1526 -1.4003
 3644TIP3    H232424   1.359   1.874  26.042  0.6026 -0.7246 -0.4776
 3645TIP3   OH232425   0.181   1.964  87.210  0.0447 -0.0251 -0.0417
 3645TIP3    H132426   0.171   1.953  87.115 -2.4918  0.2706  0.1148
 3645TIP3    H232427   0.216   2.053  87.220  0.5680 -0.1473 -0.6845
 3646TIP3   OH232428   2.158   1.709   4.789 -0.0448  0.6556  0.0741
 3646TIP3    H132429   2.197   1.785   4.745 -2.8176  2.4747  0.4411
 3646TIP3    H232430   2.092   1.678   4.727 -0.0814 -0.4130  0.6349
 3647TIP3   OH232431   1.653   2.546  33.054  0.0191  0.0754  0.3103
 3647TIP3    H132432   1.615   2.574  32.971 -1.9319 -1.0972  0.7478
 3647TIP3    H232433   1.683   2.626  33.096  2.3126  0.6031 -2.0507
 3648TIP3   OH232434   1.269   2.013 111.913  0.3780  0.0497 -0.1111
 3648TIP3    H132435   1.312   1.979 111.835  0.2536 -0.1835 -0.0767
 3648TIP3    H232436   1.266   1.938 111.973  0.7833  0.3133  0.2522
 3649TIP3   OH232437   2.624   2.588  96.404 -0.9878 -0.2152 -0.1768
 3649TIP3    H132438   2.579   2.670  96.380  2.0753  1.3455 -1.0887
 3649TIP3    H232439   2.695   2.615  96.462 -1.5280 -2.6693  1.8096
 3650TIP3   OH232440   1.719   2.308  95.496  0.0496 -0.4660 -0.1087
 3650TIP3    H132441   1.664   2.381  95.524  1.9360  0.8614  0.3370
 3650TIP3    H232442   1.668   2.264  95.429 -0.0992  2.9371 -2.4652
 3651TIP3   OH232443   2.361   0.245  98.217 -0.3886 -0.4384 -0.5590
 3651TIP3    H132444   2.343   0.338  98.234  2.9245  0.2123  0.1015
 3651TIP3    H232445   2.428   0.245  98.149  0.7393 -2.2369  0.4516
 3652TIP3   OH232446   0.473   2.618  25.129  0.2547 -0.5316  0.1369
 3652TIP3    H132447   0.416   2.563  25.075 -0.3594  0.5432 -0.3422
 3652TIP3    H232448   0.417   2.649  25.200 -0.9914  3.5555 -2.3216
 3653TIP3   OH232449   0.079   2.648 107.189 -0.0401  0.0324  0.0290
 3653TIP3    H132450  -0.003   2.641 107.139  0.9231 -0.5267 -1.5342
 3653TIP3    H232451   0.080   2.571 107.246 -0.1239 -0.5227 -0.7086
 3654TIP3   OH232452   1.546   1.185  23.649 -0.2381 -0.1317 -0.0883
 3654TIP3    H132453   1.451   1.183  23.649 -0.2924  0.1522 -2.0144
 3654TIP3    H232454   1.570   1.195  23.557  1.6607 -0.2753  0.3363
 3655TIP3   OH232455   0.143   0.243  36.548  0.0202 -0.3063 -0.2351
 3655TIP3    H132456   0.102   0.210  36.467 -0.7318  0.7508 -0.2961
 3655TIP3    H232457   0.080   0.222  36.617 -0.5692  1.1396 -0.3024
 3656TIP3   OH232458   1.552   1.948  31.307  0.2810  0.4995 -0.0568
 3656TIP3    H132459   1.632   2.000  31.316 -0.1574  1.1023  0.4907
 3656TIP3    H232460   1.579   1.859  31.330  1.4055  0.1176 -2.5343
 3657TIP3   OH232461   2.025   0.611  75.458  0.7160  0.2741  0.1676
 3657TIP3    H132462   2.043   0.671  75.530 -0.0389  0.7926 -0.0787
 3657TIP3    H232463   1.931   0.593  75.463  0.6024  0.5144 -0.8355
 3658TIP3   OH232464   0.474   2.363 109.734 -0.2239 -0.1349  0.4367
 3658TIP3    H132465   0.544   2.378 109.798 -0.0987 -1.2694  0.5840
 3658TIP3    H232466   0.519   2.328 109.657 -0.2744  1.9415 -0.5976
 3659TIP3   OH232467   2.642   2.616   8.746 -0.2436 -0.0949 -0.0665
 3659TIP3    H132468   2.586   2.658   8.681  1.6604 -0.0612 -1.8025
 3659TIP3    H232469   2.615   2.653   8.829 -0.6846  2.3088 -1.1985
 3660TIP3   OH232470   1.805   1.142  14.521 -0.0342 -0.2087  0.3167
 3660TIP3    H132471   1.829   1.050  14.527 -0.5482 -0.3091  0.9318
 3660TIP3    H232472   1.865   1.186  14.581  1.8370  0.2130 -1.7223
 3661TIP3   OH232473   0.648   2.041  94.377  0.0383  0.0874 -0.0712
 3661TIP3    H132474   0.727   2.071  94.334 -0.6941  1.7084 -0.3542
 3661TIP3    H232475   0.628   1.957  94.336 -0.1612  1.1707 -2.3224
 3662TIP3   OH232476   2.312   0.117 111.367  0.3561 -0.1642 -0.0099
 3662TIP3    H132477   2.310   0.048 111.302  0.0164  0.2432 -0.4314
 3662TIP3    H232478   2.263   0.082 111.442  1.4474 -0.9479  0.3612
 3663TIP3   OH232479   0.137   2.268  37.716 -0.6543 -0.1042  0.0103
 3663TIP3    H132480   0.164   2.189  37.763 -0.4376 -0.5054 -0.7771
 3663TIP3    H232481   0.069   2.238  37.656  1.4878 -0.3404 -2.4816
 3664TIP3   OH232482   0.683   2.197   9.069 -0.3874 -0.0751 -0.1293
 3664TIP3    H132483   0.630   2.251   9.128  2.4397  1.2625  1.4081
 3664TIP3    H232484   0.687   2.111   9.112  0.4406  0.4599  0.8898
 3665TIP3   OH232485   2.542   2.533  88.476  0.1161  0.3810  0.5542
 3665TIP3    H132486   2.496   2.537  88.560 -0.0621 -0.5279  0.5078
 3665TIP3    H232487   2.475   2.555  88.411  0.4796  2.0863  0.6918
 3666TIP3   OH232488   0.114   2.371 109.763 -0.1227 -0.3091  0.4779
 3666TIP3    H132489   0.030   2.417 109.767 -0.5456 -1.0246  0.0110
 3666TIP3    H232490   0.178   2.437 109.791 -0.8581  0.1702  1.0708
 3667TIP3   OH232491   1.784   1.439 104.882 -0.1224  0.1526 -0.3742
 3667TIP3    H132492   1.820   1.372 104.940  0.5009  0.1416 -0.7658
 3667TIP3    H232493   1.734   1.390 104.817 -0.7020  0.1559  0.0532
 3668TIP3   OH232494   1.413   0.596 106.167 -0.2650 -0.0005  0.2219
 3668TIP3    H132495   1.358   0.571 106.093 -2.1860  0.5499  1.3903
 3668TIP3    H232496   1.359   0.579 106.245  1.1135  0.8365  1.4164
 3669TIP3   OH232497   2.497   2.055  10.904 -0.1571  0.0820  0.2574
 3669TIP3    H132498   2.406   2.057  10.874 -0.0606  1.9634 -0.0150
 3669TIP3    H232499   2.501   2.122  10.971  0.8927 -0.4497  0.7410
 3670TIP3   OH232500   0.627   1.705  17.550  0.0457 -0.2181  0.0219
 3670TIP3    H132501   0.678   1.685  17.629 -0.9577  1.3044  1.1253
 3670TIP3    H232502   0.665   1.787  17.518 -1.5130  0.8172  0.7328
 3671TIP3   OH232503   2.364   0.833  81.521  0.3279  0.0414  0.4138
 3671TIP3    H132504   2.441   0.781  81.542  1.5339  0.9621 -1.4532
 3671TIP3    H232505   2.312   0.834  81.602  3.4880  1.4922  2.6279
 3672TIP3   OH232506   2.242   1.926  89.335  0.2157 -0.1873 -0.1397
 3672TIP3    H132507   2.167   1.928  89.275 -0.7722  0.0342  1.0672
 3672TIP3    H232508   2.275   2.016  89.335  0.7686 -0.3724 -0.9854
 3673TIP3   OH232509   1.448   1.199  98.473 -0.5046  0.0464  0.0348
 3673TIP3    H132510   1.456   1.225  98.565  0.5837 -2.2006  0.6495
 3673TIP3    H232511   1.371   1.143  98.471 -0.6955  0.3185 -0.5149
 3674TIP3   OH232512   0.166   1.480  37.138  0.0105  0.4183 -0.0136
 3674TIP3    H132513   0.107   1.441  37.202  0.2372 -1.3458 -0.8428
 3674TIP3    H232514   0.199   1.559  37.181 -0.0201 -0.5931  1.9429
 3675TIP3   OH232515   1.530   0.105  87.477  0.0693  0.6599  0.0575
 3675TIP3    H132516   1.558   0.194  87.502 -1.3203  0.9921  0.5329
 3675TIP3    H232517   1.594   0.047  87.519  2.7911  1.4385 -2.6345
 3676TIP3   OH232518   1.191   1.387 112.015  0.6306  0.0903  0.0351
 3676TIP3    H132519   1.192   1.323 111.944 -0.6047 -1.1488  1.0614
 3676TIP3    H232520   1.228   1.467 111.977 -0.0651 -0.5053 -2.0120
 3677TIP3   OH232521   1.504   0.229   0.216  0.0973  0.1685  0.1794
 3677TIP3    H132522   1.594   0.199   0.206 -0.0882 -0.7314  1.0457
 3677TIP3    H232523   1.506   0.321   0.191  1.1363  0.0105 -0.3718
 3678TIP3   OH232524   0.531   0.811  36.487  0.2491  0.0432  0.2767
 3678TIP3    H132525   0.443   0.844  36.502 -0.0520 -0.6242  0.0236
 3678TIP3    H232526   0.583   0.846  36.559 -0.4028 -0.2255  0.8837
 3679TIP3   OH232527   2.245   0.298 100.677  0.0887  0.1016  0.0492
 3679TIP3    H132528   2.321   0.255 100.638  0.4754  0.1476  0.7361
 3679TIP3    H232529   2.170   0.249 100.644  0.0563  2.3162 -3.7148
 3680TIP3   OH232530   2.014   0.557  76.093 -0.1208  0.1408  0.5825
 3680TIP3    H132531   2.064   0.477  76.107 -0.7557 -0.3079  0.3559
 3680TIP3    H232532   2.069   0.610  76.035 -0.5469 -0.9958 -0.9201
 3681TIP3   OH232533   0.489   0.648  31.624  0.1537 -0.2367  0.0790
 3681TIP3    H132534   0.431   0.627  31.551 -0.9113  1.2630  0.4328
 3681TIP3    H232535   0.573   0.667  31.584 -0.9638  2.8249 -1.0887
 3682TIP3   OH232536   0.149   1.077  32.361 -0.0644 -0.4982 -0.5038
 3682TIP3    H132537   0.113   1.020  32.429 -0.2707  0.3448  0.1163
 3682TIP3    H232538   0.125   1.166  32.389  1.4991  0.0121 -0.6623
 3683TIP3   OH232539   2.586   0.192  15.844  0.5168  0.2853 -0.0640
 3683TIP3    H132540   2.636   0.272  15.858 -0.4041  0.8916 -0.1633
 3683TIP3    H232541   2.633   0.125  15.894  0.0371  1.3617  1.8970
 3684TIP3   OH232542   1.792   0.658  87.983  0.6521  0.1291 -0.1525
 3684TIP3    H132543   1.708   0.703  87.973  0.5620 -0.2214 -1.0310
 3684TIP3    H232544   1.802   0.649  88.078 -0.6197 -0.4174 -0.0384
 3685TIP3   OH232545   0.170   2.330  31.545 -0.2634 -0.0167 -0.0866
 3685TIP3    H132546   0.258   2.335  31.509 -0.4935  1.7780 -0.4901
 3685TIP3    H232547   0.113   2.352  31.471 -1.2689 -3.3592 -0.4622
 3686TIP3   OH232548   1.969   0.482  12.123 -0.0523 -0.1840  0.0404
 3686TIP3    H132549   1.963   0.524  12.209 -2.5251  1.2954 -0.7531
 3686TIP3    H232550   2.032   0.535  12.074 -0.9764  0.9331 -0.0019
 3687TIP3   OH232551   2.584   0.170   9.375 -0.1677  0.3845 -0.1182
 3687TIP3    H132552   2.561   0.106   9.308 -0.6596 -0.4142  0.7785
 3687TIP3    H232553   2.667   0.137   9.412 -0.4631  0.2055  0.3985
 3688TIP3   OH232554   0.722   0.378  87.165  0.1734  0.6181  0.1068
 3688TIP3    H132555   0.801   0.366  87.114 -0.3189 -0.5188 -0.4296
 3688TIP3    H232556   0.669   0.439  87.114 -0.0263  0.0150 -0.4183
 3689TIP3   OH232557   1.056   0.616  18.850  0.2855 -0.3492  0.0268
 3689TIP3    H132558   1.070   0.707  18.877  0.0650  0.0329 -1.0835
 3689TIP3    H232559   1.138   0.590  18.809  0.7353 -1.0337  1.3180
 3690TIP3   OH232560   1.095   2.013  95.022 -0.3394 -0.3245  0.0751
 3690TIP3    H132561   1.021   2.012  95.083  0.8380  0.7109  1.5690
 3690TIP3    H232562   1.075   2.083  94.961 -0.6559 -0.1357  0.3896
 3691TIP3   OH232563   0.375   2.346  14.082 -0.3112  0.0465  0.0573
 3691TIP3    H132564   0.324   2.322  14.005 -1.2982  1.0749  0.3683
 3691TIP3    H232565   0.372   2.441  14.085  1.1859  0.1080  0.4037
 3692TIP3   OH232566   1.611   1.313 106.345 -0.0380  0.1491 -0.0211
 3692TIP3    H132567   1.590   1.397 106.305 -0.7414 -0.9169 -2.0311
 3692TIP3    H232568   1.531   1.287 106.390  0.2346  0.5980  0.7500
 3693TIP3   OH232569   2.139   1.684  78.895  0.2190 -0.3955 -0.1250
 3693TIP3    H132570   2.152   1.762  78.841 -0.8700  0.1736  0.4083
 3693TIP3    H232571   2.178   1.707  78.979 -0.1125 -0.4249  0.0365
 3694TIP3   OH232572   0.460   0.125  18.701  0.1368 -0.0329 -0.4212
 3694TIP3    H132573   0.424   0.043  18.667  1.8965 -0.7190 -0.7605
 3694TIP3    H232574   0.528   0.149  18.637  0.5877  0.9466  0.3987
 3695TIP3   OH232575   0.201   0.850  93.150  0.7835  0.0136 -0.3291
 3695TIP3    H132576   0.265   0.920  93.163 -0.3419  1.0139  0.1037
 3695TIP3    H232577   0.195   0.807  93.236 -0.8853  1.5318  0.3861
 3696TIP3   OH232578   0.442   2.389  13.028  0.5497  0.5858 -0.1044
 3696TIP3    H132579   0.387   2.324  13.071  0.4177  1.5793  1.3004
 3696TIP3    H232580   0.468   2.349  12.945  1.6864 -1.8544  1.3324
 3697TIP3   OH232581   0.155   0.325  77.106  0.3416 -0.4431  0.4197
 3697TIP3    H132582   0.069   0.367  77.114  0.8678  0.8117 -0.2181
 3697TIP3    H232583   0.169   0.319  77.011  1.8755  1.3795  0.4885
 3698TIP3   OH232584   1.237   0.034  99.374 -0.0183  0.1468  0.0721
 3698TIP3    H132585   1.302  -0.021  99.418  0.3641 -0.0841 -0.7615
 3698TIP3    H232586   1.172   0.053  99.442  1.1990  0.8719  1.0847
 3699TIP3   OH232587   1.748   0.158  86.926 -0.5804  0.9097  0.2399
 3699TIP3    H132588   1.759   0.102  86.850  0.6429  1.0368  0.3088
 3699TIP3    H232589   1.688   0.227  86.897 -1.6567 -0.0912 -0.0102
 3700TIP3   OH232590   1.235   0.710  12.710  0.3989  0.3230  1.0179
 3700TIP3    H132591   1.157   0.705  12.655  0.6571 -1.1434  0.7355
 3700TIP3    H232592   1.290   0.776  12.669  1.5867 -2.2401 -1.8944
 3701TIP3   OH232593   1.880   1.298  76.730  0.0186 -0.2260  0.0207
 3701TIP3    H132594   1.807   1.263  76.781 -0.7771 -0.3129 -1.1224
 3701TIP3    H232595   1.931   1.222  76.704  0.6265 -0.1494  0.9629
 3702TIP3   OH232596   0.271   0.675   6.024  0.1530 -0.0325  0.2479
 3702TIP3    H132597   0.259   0.590   5.982  0.3017 -0.3447  0.8331
 3702TIP3    H232598   0.200   0.680   6.088 -0.2533  0.5700 -0.2356
 3703TIP3   OH232599   0.872   2.405 105.150  0.7326  0.2314  0.6184
 3703TIP3    H132600   0.965   2.387 105.144  0.5543 -0.3097 -0.8373
 3703TIP3    H232601   0.836   2.330 105.197  0.8032 -0.4191 -0.3464
 3704TIP3   OH232602   0.001   2.256  13.598  0.0925  0.3073 -0.0831
 3704TIP3    H132603   0.053   2.304  13.532  0.0684 -0.1187 -0.4170
 3704TIP3    H232604   0.055   2.180  13.620 -0.6369 -0.4709 -0.8832
 3705TIP3   OH232605   2.299   0.910  89.087  0.0998  0.5879  0.0225
 3705TIP3    H132606   2.271   0.936  89.175 -2.1499  0.3611 -0.5751
 3705TIP3    H232607   2.264   0.821  89.076  2.0769 -0.1839 -0.3978
 3706TIP3   OH232608   2.297   2.378  92.571  0.1321  0.0052  0.0860
 3706TIP3    H132609   2.253   2.295  92.552 -0.7616  0.4088  0.3757
 3706TIP3    H232610   2.349   2.395  92.492  0.4130 -0.8790  0.0675
 3707TIP3   OH232611   0.205   1.338  94.918  0.0169 -0.0370  0.4333
 3707TIP3    H132612   0.187   1.429  94.941  0.1907 -0.2020  1.2818
 3707TIP3    H232613   0.254   1.304  94.993  1.7406 -0.2780 -0.7368
 3708TIP3   OH232614   0.436   2.365  84.749 -0.0566  0.0243 -0.0690
 3708TIP3    H132615   0.433   2.379  84.654  3.1715 -0.0618 -0.2738
 3708TIP3    H232616   0.421   2.271  84.760  3.1707 -0.7109 -0.9261
 3709TIP3   OH232617   0.736   0.965  85.535  0.0289  0.1137 -0.5542
 3709TIP3    H132618   0.721   0.986  85.443  0.0215 -1.5587 -0.9770
 3709TIP3    H232619   0.688   0.883  85.548  0.6908 -0.0838  0.7284
 3710TIP3   OH232620   0.913   2.373  79.603 -0.0146  0.1634 -0.7774
 3710TIP3    H132621   0.993   2.371  79.655 -0.5733  2.9040  0.3155
 3710TIP3    H232622   0.943   2.396  79.515  0.5080 -0.1077 -0.6727
 3711TIP3   OH232623   1.390   1.292 110.892 -0.3633 -0.1782 -0.3102
 3711TIP3    H132624   1.345   1.307 110.810  0.7689 -1.1268 -1.1407
 3711TIP3    H232625   1.456   1.226 110.872 -0.0831 -0.4606  1.3692
 3712TIP3   OH232626   2.224   0.146  92.946 -0.3915  0.1634 -0.1064
 3712TIP3    H132627   2.310   0.172  92.913  0.2641 -1.7546 -0.0253
 3712TIP3    H232628   2.169   0.141  92.867 -0.4829  1.4610 -0.1508
 3713TIP3   OH232629   0.118   0.586   0.108  0.5711  0.1789  0.1096
 3713TIP3    H132630   0.118   0.592   0.203  0.2577  1.2943  0.0581
 3713TIP3    H232631   0.211   0.584   0.083  0.7167 -2.8738  0.5341
 3714TIP3   OH232632   1.403   0.907  63.961  0.0054  0.2947 -0.1917
 3714TIP3    H132633   1.365   0.992  63.982 -0.6462 -0.1304  0.3959
 3714TIP3    H232634   1.430   0.871  64.045 -2.3530 -1.2993 -0.0196
 3715TIP3   OH232635   0.149   0.494  83.838 -0.0940 -0.3382 -0.3819
 3715TIP3    H132636   0.096   0.538  83.771 -0.1849 -0.7582 -0.5915
 3715TIP3    H232637   0.157   0.404  83.807  0.3860 -0.3833 -0.1334
 3716TIP3   OH232638   1.633   1.391  94.950  0.3269  0.2761 -0.0511
 3716TIP3    H132639   1.551   1.381  94.998 -0.2654  0.8344 -0.9145
 3716TIP3    H232640   1.649   1.305  94.912 -0.2837  0.3744 -0.5373
 3717TIP3   OH232641   0.113   2.385  14.735 -0.6044 -0.1767  0.2897
 3717TIP3    H132642   0.091   2.456  14.674 -2.0709 -0.1686  0.7712
 3717TIP3    H232643   0.156   2.319  14.681  1.5767  1.4019 -0.0142
 3718TIP3   OH232644   1.143   1.266  57.724  0.1150  0.1617 -0.0925
 3718TIP3    H132645   1.068   1.210  57.746 -1.0180  0.9494 -1.7230
 3718TIP3    H232646   1.105   1.338  57.674  1.3104  3.1393  2.8896
 3719TIP3   OH232647   1.067   2.002  13.558 -0.3657 -0.4829  0.1743
 3719TIP3    H132648   1.142   2.038  13.606 -0.8172  0.6669  0.0608
 3719TIP3    H232649   1.075   2.039  13.470 -0.3158 -1.4605 -0.2403
 3720TIP3   OH232650   2.660   0.811  20.290 -0.9679 -0.0348 -0.6068
 3720TIP3    H132651   2.656   0.718  20.266 -2.5336 -0.0688 -0.3426
 3720TIP3    H232652   2.609   0.817  20.370  0.4238  0.8274  0.2580
 3721TIP3   OH232653   2.379   2.561  37.099  0.0374  0.3208  0.4191
 3721TIP3    H132654   2.462   2.513  37.097 -0.7900 -1.1645  0.0975
 3721TIP3    H232655   2.316   2.501  37.059 -1.0374  1.7335 -0.0711
 3722TIP3   OH232656   2.377   2.277  22.499 -0.2848 -0.7367  0.0011
 3722TIP3    H132657   2.404   2.341  22.433 -0.9091  2.0061  2.2212
 3722TIP3    H232658   2.292   2.245  22.468 -0.6271  0.5958 -0.4850
 3723TIP3   OH232659   1.261   1.064  33.533  0.2264  0.1975 -0.6351
 3723TIP3    H132660   1.256   1.006  33.608  1.1637  0.2890 -0.4956
 3723TIP3    H232661   1.242   1.008  33.457 -0.0897 -0.0249 -0.3910
 3724TIP3   OH232662   0.429   0.080  86.880  0.7633 -0.2182 -0.2497
 3724TIP3    H132663   0.387   0.057  86.963  0.0091  0.3891 -0.4499
 3724TIP3    H232664   0.521   0.095  86.903  1.0572 -2.2671  0.0736
 3725TIP3   OH232665   0.784   1.066  79.377  0.2168 -0.7140  0.5800
 3725TIP3    H132666   0.854   1.082  79.314 -0.0886  0.7062  0.5601
 3725TIP3    H232667   0.712   1.030  79.326  0.2231 -0.2405  0.2294
 3726TIP3   OH232668   1.492   0.671  37.734 -0.1654 -0.3385 -0.5491
 3726TIP3    H132669   1.476   0.751  37.785  1.1125 -0.6613  0.4346
 3726TIP3    H232670   1.418   0.614  37.754 -0.2857  0.0074  0.0194
 3727TIP3   OH232671   1.637   1.143  95.570  0.1569  0.0545 -0.2549
 3727TIP3    H132672   1.595   1.223  95.537  0.0457  0.3642  0.6111
 3727TIP3    H232673   1.686   1.172  95.646  0.7635 -0.5726 -0.4008
 3728TIP3   OH232674   0.931   1.354  12.424 -0.4052 -0.1522 -0.1915
 3728TIP3    H132675   0.933   1.355  12.329 -1.1140 -0.0017 -0.2118
 3728TIP3    H232676   0.887   1.436  12.448  1.1835  0.5998  0.3188
 3729TIP3   OH232677   0.743   0.743  20.073  0.0660  0.1396  0.1539
 3729TIP3    H132678   0.720   0.669  20.130  1.1888 -1.5390 -1.4280
 3729TIP3    H232679   0.682   0.812  20.097 -0.5345 -1.0255  2.2594
 3730TIP3   OH232680   0.996   1.989  85.954  0.1381 -0.6379 -0.2405
 3730TIP3    H132681   0.942   1.911  85.937 -1.0887 -0.2520  1.5628
 3730TIP3    H232682   1.083   1.954  85.975 -0.7788 -1.7200  2.1206
 3731TIP3   OH232683   0.675   2.379  37.050 -0.3789 -0.2917  0.0497
 3731TIP3    H132684   0.627   2.410  37.127  1.2978  2.0217  0.2397
 3731TIP3    H232685   0.638   2.428  36.977 -0.5011 -0.9123 -0.3147
 3732TIP3   OH232686   2.054   2.111  81.049 -0.4351 -0.4536 -0.6449
 3732TIP3    H132687   2.071   2.017  81.043 -0.3259 -0.4280 -0.7254
 3732TIP3    H232688   2.132   2.147  81.090 -1.2850 -0.6677  1.2743
 3733TIP3   OH232689   2.442   2.392  96.421 -0.6087 -0.3991 -0.3151
 3733TIP3    H132690   2.510   2.447  96.383 -1.5312  0.6758 -0.4718
 3733TIP3    H232691   2.444   2.311  96.369 -0.2900  0.1199 -1.1249
 3734TIP3   OH232692   2.185   0.640 104.131  0.1424  0.2568  0.2645
 3734TIP3    H132693   2.267   0.686 104.147  0.4152 -0.4442  0.9336
 3734TIP3    H232694   2.144   0.688 104.059  0.1876  1.8372  1.2529
 3735TIP3   OH232695   1.824   2.465  37.195  0.1973  0.6120  0.5102
 3735TIP3    H132696   1.733   2.493  37.208  0.5889  1.2938  1.8491
 3735TIP3    H232697   1.874   2.515  37.258  1.3860 -0.5543  0.5286
 3736TIP3   OH232698   0.523   1.990  88.467 -0.1130  0.7217 -0.0634
 3736TIP3    H132699   0.524   1.925  88.537 -1.7851  2.7637  1.9956
 3736TIP3    H232700   0.434   1.988  88.433  0.5383  0.1190 -1.9114
 3737TIP3   OH232701   0.426   1.150 110.333 -0.1305 -0.0463 -0.0621
 3737TIP3    H132702   0.366   1.113 110.397 -1.6433  0.3114 -1.2088
 3737TIP3    H232703   0.470   1.074 110.294 -2.0705 -0.6081 -1.2952
 3738TIP3   OH232704   0.747   0.559  76.959 -0.0165  0.0253  0.7853
 3738TIP3    H132705   0.681   0.566  77.029 -1.7734 -1.2162 -0.6520
 3738TIP3    H232706   0.829   0.585  77.001 -1.0185 -0.5371  3.2807
 3739TIP3   OH232707   2.627   2.003  17.142  0.2830  0.5151  0.3305
 3739TIP3    H132708   2.548   1.966  17.181  1.5066 -1.4390  1.1123
 3739TIP3    H232709   2.608   2.007  17.048 -0.4558 -0.7467  0.4081
 3740TIP3   OH232710   1.072   1.516  30.370  0.0543 -0.2732 -0.5747
 3740TIP3    H132711   1.144   1.500  30.309 -1.3525 -0.9033 -2.1508
 3740TIP3    H232712   1.021   1.435  30.369 -1.8493  0.8630 -1.1719
 3741TIP3   OH232713   2.099   1.539  87.965 -0.3644  0.0865 -0.2608
 3741TIP3    H132714   2.085   1.543  87.871 -0.3691  0.4944 -0.2474
 3741TIP3    H232715   2.124   1.628  87.990  0.3049 -0.1751  0.0142
 3742TIP3   OH232716   2.152   0.451  24.305  0.3341 -0.4123 -0.3397
 3742TIP3    H132717   2.144   0.527  24.248  0.5142 -1.1931 -1.4523
 3742TIP3    H232718   2.247   0.438  24.315  0.3294 -1.1772 -1.1435
 3743TIP3   OH232719   1.518   2.337  83.839  0.3047  0.8698 -0.5300
 3743TIP3    H132720   1.450   2.367  83.899 -1.8786  0.3062 -2.5755
 3743TIP3    H232721   1.600   2.355  83.885 -1.1896  0.0835  2.8013
 3744TIP3   OH232722   2.243   0.758 105.376  0.0003  0.3885 -0.1949
 3744TIP3    H132723   2.270   0.772 105.467  0.8580  0.3116 -0.4366
 3744TIP3    H232724   2.272   0.669 105.356 -0.2565  0.3775 -0.5238
 3745TIP3   OH232725   1.095   1.974 106.380 -0.4441 -0.5699 -0.5380
 3745TIP3    H132726   1.183   1.989 106.346 -0.8957  0.3478 -1.3711
 3745TIP3    H232727   1.108   1.936 106.467  0.7619 -0.7285 -0.7733
 3746TIP3   OH232728   2.394   2.420  41.133 -0.2686  0.2187  0.0217
 3746TIP3    H132729   2.351   2.389  41.213  0.7379  0.2601  0.6012
 3746TIP3    H232730   2.487   2.422  41.156  0.2033 -1.1376 -1.6000
 3747TIP3   OH232731   0.988   1.265 110.111  0.0611 -0.2493  0.3156
 3747TIP3    H132732   0.974   1.202 110.040 -0.0769 -2.3854  2.1189
 3747TIP3    H232733   0.907   1.261 110.162  0.5510  0.4415  1.1626
 3748TIP3   OH232734   1.165   2.653  18.115  0.1434 -0.0106 -0.3511
 3748TIP3    H132735   1.176   2.696  18.030  1.4531 -0.7743 -0.5954
 3748TIP3    H232736   1.072   2.631  18.119 -0.2381  1.4077 -0.9054
 3749TIP3   OH232737   1.824   2.012   1.015  0.0333 -0.4968  0.2116
 3749TIP3    H132738   1.856   1.985   0.928 -0.3519 -0.6648  0.1190
 3749TIP3    H232739   1.737   2.049   0.998 -0.4740 -1.4591  0.6426
 3750TIP3   OH232740   0.840   2.129  76.834  0.2230 -0.6351 -0.1832
 3750TIP3    H132741   0.920   2.127  76.782 -0.0526  0.0401 -0.6360
 3750TIP3    H232742   0.783   2.192  76.790 -0.2696 -0.5357  0.5651
 3751TIP3   OH232743   0.580   2.229 103.949 -0.2755  0.5067 -0.0556
 3751TIP3    H132744   0.586   2.321 103.922 -0.4053  0.3034 -0.7905
 3751TIP3    H232745   0.670   2.197 103.944 -0.4561  0.1695 -1.3431
 3752TIP3   OH232746   0.238   0.680  32.405  0.1247  0.3389  0.1504
 3752TIP3    H132747   0.203   0.610  32.351  0.7985  0.1606 -0.0715
 3752TIP3    H232748   0.183   0.681  32.483 -0.3266  0.0331 -0.1644
 3753TIP3   OH232749   0.994   2.429  33.059 -0.0909 -0.2606 -0.4038
 3753TIP3    H132750   0.969   2.413  33.150 -1.7046  0.9371 -0.5945
 3753TIP3    H232751   0.915   2.461  33.017  1.0231  0.7482 -1.8592
 3754TIP3   OH232752   1.630   2.591 106.813 -0.2145  0.2081 -0.2688
 3754TIP3    H132753   1.539   2.604 106.841 -0.2807 -2.3444  0.9726
 3754TIP3    H232754   1.682   2.605 106.892  0.2910 -0.2023 -0.5226
 3755TIP3   OH232755   2.170   2.213  18.702 -0.3135 -0.5932  0.3595
 3755TIP3    H132756   2.265   2.218  18.702 -0.3530  0.9807 -0.9725
 3755TIP3    H232757   2.148   2.171  18.786  1.5560 -1.8958  0.2546
 3756TIP3   OH232758   2.158   1.150  93.623  0.0603 -0.0478  0.5109
 3756TIP3    H132759   2.164   1.110  93.537  0.0475 -0.4318  0.6859
 3756TIP3    H232760   2.093   1.098  93.670 -0.1161  0.3128  0.6685
 3757TIP3   OH232761   0.341   0.495  33.066  0.5164  0.0326 -0.7287
 3757TIP3    H132762   0.421   0.547  33.076  0.0319  0.7171 -0.3205
 3757TIP3    H232763   0.291   0.541  32.998 -0.1598  0.4240  0.0191
 3758TIP3   OH232764   2.293   0.242 105.483 -0.3947 -0.5467 -0.1452
 3758TIP3    H132765   2.293   0.259 105.577  2.2264  0.0399 -0.1724
 3758TIP3    H232766   2.356   0.171 105.472 -0.4118 -0.3679 -1.5030
 3759TIP3   OH232767   1.979   0.205  31.215  0.3935  0.5468 -0.3814
 3759TIP3    H132768   1.954   0.273  31.153  0.3452  0.8399 -0.0450
 3759TIP3    H232769   1.922   0.219  31.290  1.0661  0.7805  0.1028
 3760TIP3   OH232770   1.275   1.073  31.190 -0.1201 -0.3111  0.2375
 3760TIP3    H132771   1.291   1.158  31.148  1.2435 -0.8475 -0.3872
 3760TIP3    H232772   1.278   1.093  31.284 -1.3050  0.5671  0.1191
 3761TIP3   OH232773   1.032   1.486  88.957  0.6838  0.7408  0.1118
 3761TIP3    H132774   1.097   1.480  88.887 -0.5972 -1.2265 -1.0054
 3761TIP3    H232775   1.003   1.577  88.955 -0.6901  0.3888 -3.2908
 3762TIP3   OH232776   2.343   0.658  95.148  0.2998 -0.0127  0.3429
 3762TIP3    H132777   2.384   0.731  95.194 -0.4080  0.0631  0.8757
 3762TIP3    H232778   2.252   0.660  95.177  0.1555 -0.7931 -0.0316
 3763TIP3   OH232779   0.421   0.052 104.786  0.2333 -0.7000 -0.1521
 3763TIP3    H132780   0.453  -0.018 104.729  0.6026 -1.1144  0.5449
 3763TIP3    H232781   0.493   0.069 104.847 -0.1542 -0.2808  0.1995
 3764TIP3   OH232782   1.165   0.481  86.390 -0.4610 -0.2130  0.0700
 3764TIP3    H132783   1.193   0.569  86.365  0.0561 -0.7404 -1.2976
 3764TIP3    H232784   1.097   0.458  86.327 -0.7875 -0.7015  0.5833
 3765TIP3   OH232785   1.209   0.460  18.183 -0.3573  0.0834 -0.7907
 3765TIP3    H132786   1.262   0.512  18.244 -0.9905  0.3544 -0.4648
 3765TIP3    H232787   1.270   0.396  18.147  0.1892  0.3854 -0.4113
 3766TIP3   OH232788   0.646   2.595 105.204 -0.5530  0.7043  0.0797
 3766TIP3    H132789   0.566   2.542 105.202  0.6720 -1.1897 -0.7581
 3766TIP3    H232790   0.717   2.532 105.217  0.8621  2.2952  0.4524
 3767TIP3   OH232791   0.542   1.303  20.647 -0.0397  0.8658  0.0112
 3767TIP3    H132792   0.532   1.276  20.556  0.9645  2.1394 -0.5117
 3767TIP3    H232793   0.581   1.226  20.690 -1.3778 -0.0762 -0.3877
 3768TIP3   OH232794   1.618   0.661 111.071 -0.3095  0.0222  0.4547
 3768TIP3    H132795   1.561   0.726 111.112  0.9714  1.1802  0.4563
 3768TIP3    H232796   1.658   0.707 110.996 -0.4504 -1.1951 -0.3972
 3769TIP3   OH232797   1.530   0.772  81.810  0.1607  0.2455  0.3694
 3769TIP3    H132798   1.589   0.845  81.829  1.8831 -1.2865  1.1684
 3769TIP3    H232799   1.505   0.785  81.718  2.3749  0.5666 -0.2447
 3770TIP3   OH232800   0.509   2.522  68.230  0.4517 -0.5264  0.1539
 3770TIP3    H132801   0.596   2.518  68.271  0.5207 -0.0485  0.0634
 3770TIP3    H232802   0.483   2.431  68.219  1.1131 -0.6834 -0.1759
 3771TIP3   OH232803   1.941   1.533  96.886 -0.1676 -0.3054 -0.6780
 3771TIP3    H132804   1.899   1.453  96.916  0.1558 -0.9144 -1.8095
 3771TIP3    H232805   2.034   1.511  96.880  0.1470  0.6130  0.4362
 3772TIP3   OH232806   1.460   0.257  25.904 -0.2041  0.3785 -0.0032
 3772TIP3    H132807   1.386   0.196  25.911  0.2325  0.0086  2.2177
 3772TIP3    H232808   1.419   0.341  25.883 -1.0149 -0.2393 -1.0320
 3773TIP3   OH232809   0.066   0.432  96.770 -0.0079  0.4259  0.1259
 3773TIP3    H132810   0.093   0.439  96.861  2.1675 -2.9881 -0.0939
 3773TIP3    H232811   0.143   0.460  96.720 -1.3047  2.6493 -0.7675
 3774TIP3   OH232812   1.307   1.085  91.429 -0.2628  0.5701 -0.4410
 3774TIP3    H132813   1.301   1.137  91.349 -2.2746  0.4086 -0.4390
 3774TIP3    H232814   1.376   1.021  91.410 -0.1004  1.0805 -1.7126
 3775TIP3   OH232815   2.149   1.674  79.976 -0.3782  0.2224 -0.1844
 3775TIP3    H132816   2.225   1.677  79.918  0.3995  0.6789  0.8291
 3775TIP3    H232817   2.166   1.598  80.033 -1.2182 -0.3297 -0.6412
 3776TIP3   OH232818   2.200   1.788 107.620 -0.0097  0.5452 -0.0556
 3776TIP3    H132819   2.175   1.705 107.660  0.3514  1.2154  1.6172
 3776TIP3    H232820   2.136   1.802 107.551 -1.3466 -0.0963  1.0205
 3777TIP3   OH232821   1.750   0.630  83.234  0.2142  0.8970  0.2360
 3777TIP3    H132822   1.782   0.705  83.285 -0.7538  0.7369  1.1050
 3777TIP3    H232823   1.664   0.611  83.271  0.7319 -1.1055  0.4955
 3778TIP3   OH232824   0.758   0.646 109.454 -0.8636 -0.3377  0.1297
 3778TIP3    H132825   0.810   0.652 109.374 -1.8507 -1.3213 -0.6209
 3778TIP3    H232826   0.770   0.556 109.485 -1.3560 -0.2924  0.4795
 3779TIP3   OH232827   1.618   2.595   9.600 -0.0415 -0.2909  0.0951
 3779TIP3    H132828   1.553   2.606   9.669 -1.0314 -0.7387 -0.7352
 3779TIP3    H232829   1.600   2.666   9.538  1.0690  0.3282  0.4564
 3780TIP3   OH232830   0.980   2.146   6.298 -0.0868  0.5691 -0.2930
 3780TIP3    H132831   1.037   2.218   6.327  0.0794  0.1023  0.5818
 3780TIP3    H232832   1.013   2.123   6.211 -0.8578  2.2875 -1.0692
 3781TIP3   OH232833   0.135   1.069  75.766 -0.1852 -0.0642 -0.3067
 3781TIP3    H132834   0.205   1.009  75.742  1.7494  1.6290  0.7039
 3781TIP3    H232835   0.061   1.013  75.790  0.5982 -1.9051 -1.9549
 3782TIP3   OH232836   0.245   0.071 106.969  0.1513 -0.4459 -0.4714
 3782TIP3    H132837   0.340   0.066 106.982  0.1159 -0.5325 -0.2299
 3782TIP3    H232838   0.209   0.032 107.049 -0.1145  1.4365  0.3998
 3783TIP3   OH232839   1.054   1.294 107.960 -0.2649 -0.0674  0.5705
 3783TIP3    H132840   0.993   1.282 107.888  0.4895 -2.0809  0.2149
 3783TIP3    H232841   1.080   1.386 107.955 -0.6422 -0.0376 -1.3887
 3784TIP3   OH232842   1.315   2.547  25.279  0.3310 -0.4695  0.6267
 3784TIP3    H132843   1.233   2.588  25.306  0.9751  1.4687 -0.1691
 3784TIP3    H232844   1.295   2.508  25.194 -0.2623 -1.7648  1.3397
 3785TIP3   OH232845   0.203   0.380  35.197  0.5947 -0.4947  0.0044
 3785TIP3    H132846   0.154   0.382  35.115  0.1766  2.2184  0.2407
 3785TIP3    H232847   0.167   0.452  35.249  2.9130 -0.1766  1.3318
 3786TIP3   OH232848   2.397   2.378 109.489  0.5015 -0.4771  0.2620
 3786TIP3    H132849   2.400   2.291 109.528 -1.0126  0.0016  1.5657
 3786TIP3    H232850   2.309   2.384 109.452  0.2203  0.8323  1.0839
 3787TIP3   OH232851   2.267   2.330 102.989 -0.2458 -0.1151 -0.3110
 3787TIP3    H132852   2.328   2.404 102.983 -1.5424  1.0384  0.1830
 3787TIP3    H232853   2.228   2.338 103.076 -1.4608 -0.5151 -0.7904
 3788TIP3   OH232854   0.379   2.257 109.978 -0.6589  0.4749  0.1887
 3788TIP3    H132855   0.414   2.316 109.911 -1.3348  2.7718  1.7342
 3788TIP3    H232856   0.354   2.315 110.050 -1.7435 -1.7043  1.6684
 3789TIP3   OH232857   0.047   0.598   7.708  0.0716  0.2862 -0.1327
 3789TIP3    H132858   0.020   0.553   7.788 -1.2115  0.1390 -0.6310
 3789TIP3    H232859   0.141   0.613   7.720  0.3515 -1.6697  0.4580
 3790TIP3   OH232860   1.576   0.666  99.557 -0.2699  0.5384  0.1650
 3790TIP3    H132861   1.612   0.584  99.589 -0.5205 -0.2142 -1.4073
 3790TIP3    H232862   1.481   0.656  99.565 -0.2882  0.9028  0.4716
 3791TIP3   OH232863   1.846   0.711  31.008 -0.5452  0.4270 -0.4593
 3791TIP3    H132864   1.770   0.753  30.967 -2.0438  0.3993  2.1068
 3791TIP3    H232865   1.811   0.664  31.083  1.8691 -0.7111  0.0723
 3792TIP3   OH232866   2.313   0.772  27.747  0.4290  0.1924  0.5871
 3792TIP3    H132867   2.373   0.699  27.731  1.5352  0.9968  0.9066
 3792TIP3    H232868   2.251   0.740  27.812  1.1312 -0.3499  1.0010
 3793TIP3   OH232869   0.498   0.356  95.623 -0.3885  0.0643 -0.5455
 3793TIP3    H132870   0.440   0.378  95.697 -0.4111 -1.2903 -0.1384
 3793TIP3    H232871   0.480   0.424  95.558  1.5625  2.9265  1.6604
 3794TIP3   OH232872   2.316   0.801  10.934 -0.3279  0.6952  0.3738
 3794TIP3    H132873   2.246   0.750  10.893 -0.7853  0.8352  0.9606
 3794TIP3    H232874   2.396   0.769  10.893 -0.5415 -0.9317  1.1280
 3795TIP3   OH232875   1.502   1.246   6.114 -0.2343 -0.7048 -0.3907
 3795TIP3    H132876   1.515   1.281   6.202  1.9991 -1.7076 -0.2485
 3795TIP3    H232877   1.507   1.322   6.057 -1.3544 -0.0892  0.2964
 3796TIP3   OH232878   0.064   0.861 110.975  0.3464  0.4298 -0.1638
 3796TIP3    H132879   0.075   0.767 110.958 -1.0334  0.5791 -2.3614
 3796TIP3    H232880   0.123   0.903 110.912 -1.8744  1.0043 -2.0142
 3797TIP3   OH232881   1.887   2.213   9.714  0.2014  0.2726 -0.0617
 3797TIP3    H132882   1.929   2.133   9.684  2.7935  2.0424 -1.6092
 3797TIP3    H232883   1.938   2.239   9.791  0.5393  1.2426 -0.5828
 3798TIP3   OH232884   1.670   1.704  47.786 -0.4771 -0.0217  0.0059
 3798TIP3    H132885   1.658   1.762  47.861 -1.4402 -0.0292 -0.1266
 3798TIP3    H232886   1.602   1.730  47.724  1.1410  0.8979 -1.4701
 3799TIP3   OH232887   0.428   2.433  12.060  0.2136 -0.4925 -0.7035
 3799TIP3    H132888   0.458   2.516  12.023 -0.4706 -0.0504 -0.3053
 3799TIP3    H232889   0.373   2.395  11.992 -0.9956  0.2904 -0.2121
 3800TIP3   OH232890   1.907   2.022   0.213 -0.1038  0.2618 -0.5442
 3800TIP3    H132891   1.939   2.110   0.234 -0.2125  0.0508  0.5489
 3800TIP3    H232892   1.837   2.037   0.149  0.0958  0.9481 -0.6105
 3801TIP3   OH232893   0.678   2.352  12.020  0.0799 -0.3415  0.1371
 3801TIP3    H132894   0.725   2.417  11.967  1.4041 -0.9789  0.4818
 3801TIP3    H232895   0.593   2.392  12.037  0.9648  1.4610  0.6045
 3802TIP3   OH232896   1.869   2.110  84.408  0.8070  0.2736  0.1335
 3802TIP3    H132897   1.780   2.146  84.407  1.8237  3.0751  1.6845
 3802TIP3    H232898   1.887   2.093  84.500  2.6506  1.9728  0.1480
 3803TIP3   OH232899   1.877   0.439  32.343 -0.5884  0.4569 -0.7025
 3803TIP3    H132900   1.834   0.373  32.289  0.0714 -0.8450  0.3013
 3803TIP3    H232901   1.824   0.518  32.332 -1.4190 -0.2369 -1.9066
 3804TIP3   OH232902   0.482   0.210   4.999  0.1889 -0.1086 -0.1514
 3804TIP3    H132903   0.449   0.265   4.928 -0.3090  0.7365  0.7135
 3804TIP3    H232904   0.564   0.252   5.025 -0.6356  0.7816  1.1076
 3805TIP3   OH232905   1.905   0.299 103.902  0.3734 -0.6167 -0.5453
 3805TIP3    H132906   1.984   0.298 103.849 -0.2355 -0.8688 -1.4634
 3805TIP3    H232907   1.937   0.288 103.992  1.3443 -1.2537 -0.9486
 3806TIP3   OH232908   1.207   0.630 107.779 -0.1524  0.1286  0.3561
 3806TIP3    H132909   1.166   0.698 107.832 -1.0552 -0.0830 -0.0442
 3806TIP3    H232910   1.204   0.664 107.689 -1.7810 -0.9238 -0.0467
 3807TIP3   OH232911   1.300   2.552  28.260 -0.1986 -0.0704  0.5583
 3807TIP3    H132912   1.230   2.537  28.323 -0.5624 -0.0648  0.1590
 3807TIP3    H232913   1.276   2.635  28.218 -0.2916 -0.3912 -0.0291
 3808TIP3   OH232914   0.019   2.678  99.240  0.0765 -0.0465  0.0777
 3808TIP3    H132915  -0.016   2.723  99.164  2.1595  0.5382 -0.6018
 3808TIP3    H232916  -0.005   2.586  99.227 -1.9248  0.4266  0.1412
 3809TIP3   OH232917   0.961   1.766  33.810  0.2304 -0.6094  0.4772
 3809TIP3    H132918   0.994   1.697  33.868  1.9803 -0.6157 -0.4833
 3809TIP3    H232919   1.037   1.822  33.792  0.0681 -1.2265 -2.6842
 3810TIP3   OH232920   0.191   1.062  96.049  0.1116 -0.1261  0.3521
 3810TIP3    H132921   0.265   1.030  96.101  0.3329 -2.2226 -1.1122
 3810TIP3    H232922   0.226   1.136  95.999  1.3454 -1.2056 -0.4706
 3811TIP3   OH232923   0.011   0.159  78.591 -0.0372  0.0662 -0.0488
 3811TIP3    H132924   0.052   0.237  78.553 -1.6902  0.6164 -0.8089
 3811TIP3    H232925   0.017   0.093  78.522  0.0432 -0.0163  0.0349
 3812TIP3   OH232926   1.613   0.404  22.639  0.2771 -0.3201  0.1907
 3812TIP3    H132927   1.613   0.490  22.598  3.1180  0.6044  1.8477
 3812TIP3    H232928   1.698   0.367  22.618  0.1730 -1.5678  1.7500
 3813TIP3   OH232929   0.224   1.320  26.680 -0.4413  0.4272  0.8554
 3813TIP3    H132930   0.276   1.347  26.604 -1.0597  0.2938  0.3832
 3813TIP3    H232931   0.290   1.293  26.745  0.0708 -1.0184 -0.1995
 3814TIP3   OH232932   1.802   0.635  25.377 -0.6991 -0.4840 -0.4649
 3814TIP3    H132933   1.822   0.672  25.291 -0.8380  0.5351 -0.0640
 3814TIP3    H232934   1.880   0.584  25.399  0.1926  0.9119 -0.2970
 3815TIP3   OH232935   1.469   1.895  25.074  0.1390 -0.1887 -0.1415
 3815TIP3    H132936   1.401   1.956  25.048 -0.3358 -0.7894 -0.3236
 3815TIP3    H232937   1.450   1.874  25.166  0.0314 -0.4184 -0.2160
 3816TIP3   OH232938   0.158   0.057  77.602  0.0617 -0.4797  0.4534
 3816TIP3    H132939   0.221   0.009  77.656  0.4134 -0.6995 -0.1480
 3816TIP3    H232940   0.141   0.137  77.651  1.3017 -0.1158  0.3222
 3817TIP3   OH232941   1.426   1.264  10.769 -0.1322  0.0815 -0.5154
 3817TIP3    H132942   1.371   1.294  10.697  0.3022 -1.3377 -1.4860
 3817TIP3    H232943   1.514   1.294  10.747  0.0070 -0.3838 -0.6122
 3818TIP3   OH232944   2.386   0.868  36.137 -0.1014 -0.1334 -0.1617
 3818TIP3    H132945   2.310   0.919  36.110 -0.5379  0.0991  1.3920
 3818TIP3    H232946   2.356   0.822  36.216  1.5659  0.5180  0.9013
 3819TIP3   OH232947   0.376   1.597  84.230  0.4030 -0.0982 -0.2425
 3819TIP3    H132948   0.280   1.605  84.231  0.3857 -0.1407  1.5497
 3819TIP3    H232949   0.403   1.645  84.151 -1.1525 -1.1690 -1.5079
 3820TIP3   OH232950   0.930   0.924 103.160 -0.1476 -0.1648  0.5076
 3820TIP3    H132951   1.016   0.930 103.118 -1.4409  1.8383 -2.1539
 3820TIP3    H232952   0.884   0.855 103.111 -0.7621  0.2456  0.4912
 3821TIP3   OH232953   0.943   0.214  82.211  0.0891 -0.0501  0.1621
 3821TIP3    H132954   0.946   0.118  82.216 -2.0487 -0.1556  0.4122
 3821TIP3    H232955   0.924   0.243  82.300  0.2112  0.5711 -0.0112
 3822TIP3   OH232956   0.463   1.412  31.857 -0.8593 -0.3449  0.3072
 3822TIP3    H132957   0.517   1.336  31.835 -0.4407 -0.4514  1.6212
 3822TIP3    H232958   0.490   1.479  31.794  1.8023  0.0269  1.6668
 3823TIP3   OH232959   1.626   0.983 101.999 -0.1163 -0.2205 -0.3516
 3823TIP3    H132960   1.557   0.928 102.036  0.3672 -0.1661  0.6672
 3823TIP3    H232961   1.700   0.973 102.059 -0.5780  2.9104  0.9362
 3824TIP3   OH232962   0.302   1.572 100.148  0.4750  0.2901 -0.4499
 3824TIP3    H132963   0.352   1.575 100.066 -1.0539 -1.7489 -1.5610
 3824TIP3    H232964   0.346   1.506 100.201  0.5826  0.5253 -0.2372
 3825TIP3   OH232965   0.227   1.419  96.146  0.4808 -0.1395  0.0943
 3825TIP3    H132966   0.313   1.455  96.166  0.9208 -0.1936 -1.4955
 3825TIP3    H232967   0.243   1.364  96.069 -0.7727 -1.0786  0.4839
 3826TIP3   OH232968   0.066   0.213  16.701 -0.1009  0.0585 -0.1058
 3826TIP3    H132969   0.050   0.307  16.714 -1.1332 -0.1802  0.4592
 3826TIP3    H232970   0.009   0.189  16.628  0.6010 -0.0117 -0.6355
 3827TIP3   OH232971   1.030   1.485  24.567 -0.4325 -0.6767  0.1695
 3827TIP3    H132972   1.097   1.458  24.505  0.3857  1.9130 -0.2084
 3827TIP3    H232973   0.969   1.411  24.571  1.0464 -2.0723 -1.4498
 3828TIP3   OH232974   1.140   1.786  32.951 -0.3084  0.4562  0.1806
 3828TIP3    H132975   1.158   1.694  32.936 -1.5950 -0.1356  1.8133
 3828TIP3    H232976   1.107   1.819  32.867 -0.4176 -0.7374 -0.2607
 3829TIP3   OH232977   0.989   1.629  34.516  0.1255 -0.5627 -0.5761
 3829TIP3    H132978   0.954   1.680  34.588 -0.6702 -2.2205  0.2707
 3829TIP3    H232979   1.083   1.646  34.518 -0.0899  0.6808 -0.2106
 3830TIP3   OH232980   2.342   0.254  34.159  0.3480 -0.1668  0.0816
 3830TIP3    H132981   2.415   0.197  34.140  0.6427 -0.0617  0.8589
 3830TIP3    H232982   2.296   0.264  34.075  0.7501 -0.8825 -0.2287
 3831TIP3   OH232983   1.905   1.247  36.381  0.3339  0.3105 -0.0800
 3831TIP3    H132984   1.815   1.266  36.353  0.3452 -0.4310 -0.6476
 3831TIP3    H232985   1.899   1.241  36.477 -0.1444  0.6406 -0.0783
 3832TIP3   OH232986   0.078   0.625  23.930  0.0293  0.4034  0.2378
 3832TIP3    H132987   0.164   0.642  23.969  0.1598  0.0991  0.0918
 3832TIP3    H232988   0.030   0.707  23.939 -0.0959  0.2114  1.4115
 3833TIP3   OH232989   1.993   2.472  21.299  0.2982 -0.3509  0.0589
 3833TIP3    H132990   2.030   2.482  21.387 -0.1826 -1.5311  0.4116
 3833TIP3    H232991   1.977   2.562  21.270  1.0799  0.0822  0.9072
 3834TIP3   OH232992   1.843   0.910  10.807 -0.1376 -0.1246  0.2396
 3834TIP3    H132993   1.903   0.899  10.880  1.0811 -0.4610 -0.7880
 3834TIP3    H232994   1.899   0.913  10.729 -1.4116 -0.0151 -0.7105
 3835TIP3   OH232995   0.646   0.008   8.211 -0.1020  0.2688  0.0940
 3835TIP3    H132996   0.670  -0.023   8.299 -0.3885 -0.8370 -0.1949
 3835TIP3    H232997   0.725   0.050   8.178  0.1702  0.2433  0.6881
 3836TIP3   OH232998   2.215   0.851  15.898  0.1011  0.7855 -0.4065
 3836TIP3    H132999   2.135   0.891  15.934  0.2331  0.9625 -0.3045
 3836TIP3    H233000   2.286   0.893  15.947  0.2283  0.1822 -0.0658
 3837TIP3   OH233001   1.195   2.152  27.636  0.5952 -0.2795  0.2929
 3837TIP3    H133002   1.119   2.131  27.690 -0.2107  0.4044 -0.5603
 3837TIP3    H233003   1.251   2.075  27.643 -1.0165 -1.5715 -0.5536
 3838TIP3   OH233004   1.137   1.816  19.936  0.0284  0.1371 -0.3041
 3838TIP3    H133005   1.126   1.772  20.020  1.9527  0.9493  0.4330
 3838TIP3    H233006   1.066   1.881  19.934  0.4940  0.7335  1.1315
 3839TIP3   OH233007   0.270   1.127   2.743 -0.7187  0.1718  0.0131
 3839TIP3    H133008   0.302   1.063   2.807 -0.8543  0.7249  0.6503
 3839TIP3    H233009   0.349   1.170   2.711 -0.7295  0.9549  0.9643
 3840TIP3   OH233010   1.051   1.140  36.608 -0.2420  0.0361 -0.2380
 3840TIP3    H133011   1.132   1.142  36.659 -0.9731 -1.6593  1.1032
 3840TIP3    H233012   1.045   1.227  36.569  2.8415 -0.1585 -1.4225
 3841TIP3   OH233013   2.178   2.241   0.075 -0.3947 -0.5313  0.4254
 3841TIP3    H133014   2.099   2.242   0.021 -0.8172  0.6680  1.0320
 3841TIP3    H233015   2.177   2.325   0.121  0.8907 -0.7787  0.9461
 3842TIP3   OH233016   2.244   1.793  96.529 -0.5441  0.5720 -0.4071
 3842TIP3    H133017   2.245   1.749  96.444 -0.3799 -0.1046 -0.0646
 3842TIP3    H233018   2.159   1.770  96.567 -0.8913  1.4046 -0.6435
 3843TIP3   OH233019   0.451   0.621  80.703  0.6561 -0.0881 -0.0498
 3843TIP3    H133020   0.388   0.617  80.631  1.7690 -0.3214 -1.0445
 3843TIP3    H233021   0.404   0.665  80.774 -0.2569  0.7264 -1.1271
 3844TIP3   OH233022   2.623   2.146  16.204  0.2282  0.0246  0.4373
 3844TIP3    H133023   2.601   2.237  16.221  0.2824 -0.0719  1.0162
 3844TIP3    H233024   2.701   2.130  16.256  1.3256  0.1766 -1.0950
 3845TIP3   OH233025   1.244   0.159  94.657 -0.0907 -0.7136 -0.3094
 3845TIP3    H133026   1.205   0.077  94.685  0.5332 -0.7833  0.3609
 3845TIP3    H233027   1.307   0.134  94.590  0.0741 -0.7817 -0.1316
 3846TIP3   OH233028   0.559   0.926  25.452  0.2499 -0.4150 -0.9930
 3846TIP3    H133029   0.531   0.991  25.388 -1.4842  0.4042  0.5345
 3846TIP3    H233030   0.485   0.867  25.462  0.2301 -0.1600  0.7047
 3847TIP3   OH233031   1.827   2.147 106.646  0.1476  0.1010  0.4829
 3847TIP3    H133032   1.874   2.113 106.722  2.4587  1.5794 -0.2029
 3847TIP3    H233033   1.806   2.237 106.670 -1.3244 -0.1580  0.2765
 3848TIP3   OH233034   0.542   1.857   5.914  0.1138 -0.0876 -0.1224
 3848TIP3    H133035   0.551   1.913   5.991  0.4726 -0.1035 -0.1503
 3848TIP3    H233036   0.608   1.788   5.927 -0.2751 -0.4658 -0.1186
 3849TIP3   OH233037   1.892   1.403  22.853 -0.0765  0.0229  0.1194
 3849TIP3    H133038   1.885   1.390  22.759 -0.6130 -1.5308  0.3511
 3849TIP3    H233039   1.962   1.344  22.880  1.5114  1.9180  0.4609
 3850TIP3   OH233040   1.111   2.300 100.628 -0.0216  0.0185 -0.2153
 3850TIP3    H133041   1.116   2.238 100.556 -0.4711 -0.3665  0.0733
 3850TIP3    H233042   1.198   2.298 100.668 -0.2598 -1.0723  0.3036
 3851TIP3   OH233043   1.846   0.912  51.972  0.3917 -0.9123  0.5724
 3851TIP3    H133044   1.845   0.887  52.064  0.6199 -2.0593  0.2671
 3851TIP3    H233045   1.932   0.886  51.940  0.5081 -0.0476  0.1521
 3852TIP3   OH233046   2.414   2.151  81.740 -0.1299 -0.2729  0.1175
 3852TIP3    H133047   2.344   2.209  81.712  0.0657  0.6238  1.3997
 3852TIP3    H233048   2.495   2.199  81.719  0.0807 -0.7916 -0.2920
 3853TIP3   OH233049   2.565   1.674  14.338  0.1171  0.1679  0.0218
 3853TIP3    H133050   2.548   1.580  14.346  1.2324  0.0319  1.0479
 3853TIP3    H233051   2.482   1.711  14.307 -0.7788 -0.9628  0.9836
 3854TIP3   OH233052   1.378   2.217  94.146  0.2659  0.3925 -0.5464
 3854TIP3    H133053   1.339   2.141  94.103  2.7475 -0.6447 -1.2012
 3854TIP3    H233054   1.319   2.238  94.219 -0.7494 -1.8552 -0.6556
 3855TIP3   OH233055   2.034   0.502  10.048 -0.5212  0.5182 -0.0054
 3855TIP3    H133056   2.061   0.412  10.032 -2.0712  0.1011 -0.4012
 3855TIP3    H233057   2.087   0.554   9.988  0.0686 -0.1679 -0.0943
 3856TIP3   OH233058   0.732   1.579  25.674 -0.3966  0.3515  0.2423
 3856TIP3    H133059   0.713   1.669  25.700  0.7128  0.0817  2.2267
 3856TIP3    H233060   0.684   1.525  25.738 -0.1197 -0.4430 -0.2040
 3857TIP3   OH233061   1.488   0.831  84.720 -0.0519  0.3175 -0.4069
 3857TIP3    H133062   1.519   0.921  84.734  0.6458 -0.0271  0.3795
 3857TIP3    H233063   1.430   0.814  84.794 -1.2841  0.5740 -1.2891
 3858TIP3   OH233064   1.439   2.094   2.894 -0.0707  0.2303 -0.0184
 3858TIP3    H133065   1.399   2.041   2.963  1.6058  0.9401  1.5643
 3858TIP3    H233066   1.533   2.079   2.903  0.3168  2.0019 -0.7727
 3859TIP3   OH233067   1.674   1.570   8.016  0.3875  0.3097 -0.0318
 3859TIP3    H133068   1.745   1.516   7.981  0.0901  0.9982 -1.7559
 3859TIP3    H233069   1.706   1.660   8.007  0.7107  0.5211  2.4326
 3860TIP3   OH233070   0.808   1.415  16.322 -0.0717 -0.2166  0.3956
 3860TIP3    H133071   0.714   1.434  16.319 -0.5977 -2.5878 -0.3799
 3860TIP3    H233072   0.824   1.362  16.244  1.7919 -0.3349  0.8303
 3861TIP3   OH233073   2.339   0.568  32.153  0.6709 -0.3722  0.0254
 3861TIP3    H133074   2.433   0.572  32.136  0.6108  0.2031 -0.2054
 3861TIP3    H233075   2.300   0.545  32.068  0.4804  1.0994 -0.3241
 3862TIP3   OH233076   1.563   2.045  87.470 -0.0246  0.7367 -0.2636
 3862TIP3    H133077   1.507   2.052  87.548  0.1560  0.8652 -0.1417
 3862TIP3    H233078   1.523   1.975  87.419 -0.6792  1.2661 -0.4935
 3863TIP3   OH233079   0.060   0.037  82.723 -0.2679 -0.0564  0.0694
 3863TIP3    H133080  -0.023   0.049  82.769 -0.8518  2.0118 -1.3675
 3863TIP3    H233081   0.120   0.005  82.790 -1.5736  0.8703  1.7750
 3864TIP3   OH233082   0.958   0.323  14.568 -0.0807  0.0293 -0.2722
 3864TIP3    H133083   0.875   0.368  14.583 -0.3342 -0.4661 -0.1633
 3864TIP3    H233084   1.001   0.324  14.653  0.9809  2.1432 -0.7769
 3865TIP3   OH233085   1.848   1.678  89.308 -0.6076 -0.3601  0.5788
 3865TIP3    H133086   1.761   1.639  89.306 -0.7356 -0.0761 -1.4030
 3865TIP3    H233087   1.896   1.633  89.238  0.5363  0.1543  1.0105
 3866TIP3   OH233088   0.264   1.235  12.726  0.2677 -0.2684 -0.6199
 3866TIP3    H133089   0.249   1.140  12.730 -0.8721 -0.0656  0.2988
 3866TIP3    H233090   0.227   1.261  12.641 -0.1973 -0.5242 -0.5002
 3867TIP3   OH233091   2.480   0.520 111.248 -0.4362  0.1056 -0.3916
 3867TIP3    H133092   2.508   0.499 111.338 -0.9384 -1.1866 -0.5254
 3867TIP3    H233093   2.562   0.523 111.198 -0.2811 -0.8894 -0.2223
 3868TIP3   OH233094   2.202   0.900  74.211 -0.6089 -0.2016 -0.5958
 3868TIP3    H133095   2.265   0.911  74.282 -0.1875 -2.7336 -0.5017
 3868TIP3    H233096   2.117   0.909  74.254 -0.3429 -0.9408  0.1227
 3869TIP3   OH233097   1.922   2.380  21.038  0.1395  0.4810 -0.6928
 3869TIP3    H133098   1.958   2.399  21.124  0.5741  1.2135 -1.0155
 3869TIP3    H233099   1.837   2.339  21.055 -0.7196  2.4471  0.0965
 3870TIP3   OH233100   2.117   0.713  99.356  0.2832 -0.2935  0.6029
 3870TIP3    H133101   2.213   0.713  99.363  0.2494 -1.1764  1.3044
 3870TIP3    H233102   2.089   0.785  99.412  0.6036  1.5203 -1.4354
 3871TIP3   OH233103   2.002   1.197  29.703 -0.2050 -0.1402 -0.1583
 3871TIP3    H133104   2.012   1.135  29.775 -0.7275 -0.5107 -0.4058
 3871TIP3    H233105   1.912   1.229  29.710 -0.4168 -0.5435 -0.9373
 3872TIP3   OH233106   2.492   2.114   4.496 -0.1804 -0.2293  0.3932
 3872TIP3    H133107   2.468   2.189   4.550  1.3096 -0.1955  1.0932
 3872TIP3    H233108   2.515   2.151   4.411 -0.8887 -0.0692  0.2732
 3873TIP3   OH233109   0.705   0.278  37.226  0.1958 -0.2205  0.2177
 3873TIP3    H133110   0.648   0.284  37.149 -0.0756 -1.0915  0.3408
 3873TIP3    H233111   0.792   0.301  37.193 -0.0755  0.2810 -0.1575
 3874TIP3   OH233112   0.003   2.647  90.641  0.1316  0.0157 -0.0521
 3874TIP3    H133113   0.076   2.644  90.579  0.0151 -0.3692 -0.1678
 3874TIP3    H233114  -0.075   2.647  90.586  0.0369  0.0968  0.0830
 3875TIP3   OH233115   2.599   2.654  85.816 -0.2120 -0.4223  0.1803
 3875TIP3    H133116   2.629   2.609  85.895  1.0812  1.8442  1.0778
 3875TIP3    H233117   2.522   2.606  85.788 -0.3067 -1.6927  2.4477
 3876TIP3   OH233118   0.389   0.288  82.215  0.8207 -0.2212 -0.4285
 3876TIP3    H133119   0.471   0.286  82.263 -0.3857 -1.7912  1.7600
 3876TIP3    H233120   0.335   0.222  82.258 -0.2876 -2.0527 -4.2095
 3877TIP3   OH233121   0.884   0.323  13.736 -0.2157 -0.0473 -0.3193
 3877TIP3    H133122   0.808   0.274  13.705  0.2650 -0.8026 -0.3014
 3877TIP3    H233123   0.960   0.277  13.701  0.2576  0.3859  0.1144
 3878TIP3   OH233124   2.646   0.021  27.564 -0.0105  0.4334 -0.1150
 3878TIP3    H133125   2.635   0.083  27.637  0.3863  0.3252  0.0373
 3878TIP3    H233126   2.619   0.071  27.487 -1.4006  0.2380  0.2179
 3879TIP3   OH233127   1.363   1.094   3.645 -0.2351  0.5641 -0.0096
 3879TIP3    H133128   1.347   1.004   3.674  0.9857  0.7695  1.4503
 3879TIP3    H233129   1.453   1.111   3.671  0.0087  1.7760 -1.4967
 3880TIP3   OH233130   0.189   1.893  98.704 -0.0040  0.0314  0.0659
 3880TIP3    H133131   0.127   1.830  98.741  0.6590 -0.5780  0.1708
 3880TIP3    H233132   0.266   1.840  98.682 -0.6174  0.2048 -2.9196
 3881TIP3   OH233133   0.362   0.742  88.586  0.3940  0.2421  0.3689
 3881TIP3    H133134   0.318   0.690  88.654 -0.9896  0.7832 -0.0690
 3881TIP3    H233135   0.436   0.782  88.631  1.3966 -1.9019  0.7709
 3882TIP3   OH233136   2.650   1.812 110.718  0.2392  0.2608  0.4615
 3882TIP3    H133137   2.680   1.804 110.628 -1.7022  0.9963 -0.2839
 3882TIP3    H233138   2.614   1.900 110.724 -0.4133 -0.0674  1.7334
 3883TIP3   OH233139   0.537   0.981  37.482 -0.6122  0.3816  0.5541
 3883TIP3    H133140   0.462   0.948  37.532 -0.0977  0.6889  1.5626
 3883TIP3    H233141   0.528   0.940  37.396 -1.3156 -0.4733  1.0130
 3884TIP3   OH233142   2.038   0.895   5.270 -0.1768  0.1537 -0.2858
 3884TIP3    H133143   1.993   0.976   5.294 -0.9984 -0.8172  1.6868
 3884TIP3    H233144   2.012   0.879   5.179 -1.3071  1.2412 -0.1857
 3885TIP3   OH233145   0.760   2.399  84.712  0.5108  0.4234 -0.2774
 3885TIP3    H133146   0.691   2.455  84.747 -1.0313 -1.1284 -0.6512
 3885TIP3    H233147   0.750   2.405  84.617  0.2875 -0.4694 -0.3225
 3886TIP3   OH233148   1.279   0.621  82.272  0.1538 -0.1946  0.5102
 3886TIP3    H133149   1.278   0.527  82.256 -3.1685  0.1574 -2.9522
 3886TIP3    H233150   1.304   0.659  82.188 -0.9088  1.9954  1.1118
 3887TIP3   OH233151   0.434   2.091  17.363  0.4321 -0.1666 -0.2295
 3887TIP3    H133152   0.341   2.114  17.368  0.4428  0.4507 -2.1624
 3887TIP3    H233153   0.434   1.996  17.359 -0.0632 -0.2096  0.5186
 3888TIP3   OH233154   2.178   1.166  63.452 -0.0425 -0.4326 -0.7111
 3888TIP3    H133155   2.093   1.204  63.432  0.3073  0.4442 -0.5761
 3888TIP3    H233156   2.205   1.123  63.371  2.1366  4.4882 -3.0390
 3889TIP3   OH233157   1.172   1.979  48.294  0.5585  0.1968  0.4183
 3889TIP3    H133158   1.160   1.948  48.384 -0.3423  0.4190  0.3892
 3889TIP3    H233159   1.145   1.905  48.239 -0.2355  0.5339  0.3428
 3890TIP3   OH233160   0.254   2.539  85.357  0.1067 -0.4326 -0.6872
 3890TIP3    H133161   0.233   2.450  85.327 -0.9210 -0.2904 -0.4215
 3890TIP3    H233162   0.176   2.568  85.403  1.4994 -0.4988  1.8935
 3891TIP3   OH233163   1.820   2.544   8.890  0.2940  0.2687  0.6594
 3891TIP3    H133164   1.900   2.508   8.929  0.7246  0.9228  0.4033
 3891TIP3    H233165   1.752   2.481   8.913  0.5309  0.6001  2.4357
 3892TIP3   OH233166   1.217   2.109  93.702  0.0532  0.2880 -0.3292
 3892TIP3    H133167   1.128   2.088  93.728 -0.3375  0.9959 -1.0388
 3892TIP3    H233168   1.208   2.147  93.614  1.1040 -0.1320 -0.6447
 3893TIP3   OH233169   0.359   1.069 103.797 -0.2475 -0.0073  0.8081
 3893TIP3    H133170   0.389   0.980 103.814 -1.3373 -0.9757 -1.8472
 3893TIP3    H233171   0.401   1.094 103.715 -2.1643  0.7824  0.0009
 3894TIP3   OH233172   1.229   1.619  90.660 -0.6949 -0.1741 -0.0551
 3894TIP3    H133173   1.161   1.553  90.665  0.2547 -1.2477 -0.6964
 3894TIP3    H233174   1.183   1.703  90.663 -2.1073 -0.8630 -1.3316
 3895TIP3   OH233175   2.070   0.421  79.127 -0.3682  0.2798 -0.1651
 3895TIP3    H133176   2.101   0.393  79.041  1.6998 -0.6043  0.7817
 3895TIP3    H233177   1.981   0.388  79.133 -0.4391  0.0930 -1.8339
 3896TIP3   OH233178   0.216   1.954  30.366 -0.3761 -0.0487 -0.4863
 3896TIP3    H133179   0.220   2.030  30.308  0.7629  0.3286  0.0583
 3896TIP3    H233180   0.199   1.991  30.452 -0.8921 -0.5158 -0.3813
 3897TIP3   OH233181   0.818   0.292  20.882  0.3962 -0.1276 -0.0889
 3897TIP3    H133182   0.880   0.224  20.855  0.7992  0.0892  0.2752
 3897TIP3    H233183   0.856   0.374  20.849 -1.2790 -0.2875 -2.6294
 3898TIP3   OH233184   0.067   0.846  36.894 -0.2402  0.1303  0.0534
 3898TIP3    H133185   0.069   0.845  36.798  0.9178  2.3875 -0.0303
 3898TIP3    H233186  -0.014   0.892  36.915 -1.1748 -1.5397  0.2379
 3899TIP3   OH233187   2.083   0.657  81.067 -0.0418 -0.0678  0.6781
 3899TIP3    H133188   2.115   0.617  80.986 -1.2955  0.4511 -0.1051
 3899TIP3    H233189   2.033   0.588  81.110  2.3831 -1.0245  2.1301
 3900TIP3   OH233190   2.096   1.971  23.102  0.0178 -0.4397 -0.3686
 3900TIP3    H133191   2.056   2.021  23.173  0.0085 -0.1639 -0.5675
 3900TIP3    H233192   2.185   2.005  23.096  1.6387 -3.5286  2.5544
 3901TIP3   OH233193   0.537   2.253   9.322  0.1584  0.3191 -0.0723
 3901TIP3    H133194   0.521   2.347   9.322  1.0410  0.4804  0.5200
 3901TIP3    H233195   0.502   2.223   9.406  1.5812  0.4369  0.5786
 3902TIP3   OH233196   0.385   2.438  99.007 -0.5611  0.2580  0.4279
 3902TIP3    H133197   0.413   2.388  98.930 -1.0228  1.4259 -0.5160
 3902TIP3    H233198   0.333   2.376  99.058 -1.2269 -0.2055 -0.7853
 3903TIP3   OH233199   2.247   1.090  91.311 -0.1394  0.2287  0.5485
 3903TIP3    H133200   2.158   1.115  91.289  0.4232  2.5967  0.6579
 3903TIP3    H233201   2.298   1.108  91.232  0.0607 -2.8222 -0.1596
 3904TIP3   OH233202   0.017   1.338  13.805  0.2791  0.0148  0.0600
 3904TIP3    H133203   0.005   1.275  13.734  2.3455  0.0095 -0.3424
 3904TIP3    H233204   0.001   1.287  13.885 -1.1462 -0.2025 -0.3252
 3905TIP3   OH233205   1.302   0.081  13.830 -0.3128 -0.3725 -0.3197
 3905TIP3    H133206   1.385   0.038  13.811 -1.3733 -1.8841 -1.8251
 3905TIP3    H233207   1.271   0.039  13.910  1.2669  1.6795  1.5092
 3906TIP3   OH233208   1.322   1.877  15.038 -0.8100 -0.2452 -0.1125
 3906TIP3    H133209   1.374   1.804  15.003 -1.1019 -0.2861 -0.4659
 3906TIP3    H233210   1.258   1.834  15.095 -0.5319 -0.2027  0.2410
 3907TIP3   OH233211   2.614   0.673  19.613  0.0233 -1.1309  0.3752
 3907TIP3    H133212   2.593   0.742  19.677 -0.6215  0.9343 -1.9189
 3907TIP3    H233213   2.531   0.630  19.596  0.0311 -1.1251  0.3227
 3908TIP3   OH233214   2.540   2.454 107.616  0.4082 -0.1443 -0.1359
 3908TIP3    H133215   2.505   2.439 107.704 -1.0588 -0.5496 -0.7620
 3908TIP3    H233216   2.555   2.366 107.581  0.4396  0.0075 -0.5051
 3909TIP3   OH233217   2.238   1.750 111.454 -0.1546  0.1498  0.0423
 3909TIP3    H133218   2.243   1.771 111.547  0.4483  1.2002 -0.2050
 3909TIP3    H233219   2.167   1.686 111.447  0.1517 -0.3516  1.2815
 3910TIP3   OH233220   1.857   2.613  89.453  0.5165  0.0637 -0.2753
 3910TIP3    H133221   1.820   2.545  89.397  1.3404 -0.2047 -0.5030
 3910TIP3    H233222   1.893   2.565  89.528  0.0210  0.3647  0.1676
 3911TIP3   OH233223   2.107   0.287   1.218 -0.0702  0.4361 -0.1015
 3911TIP3    H133224   2.135   0.238   1.295  0.9619 -0.5304 -1.0508
 3911TIP3    H233225   2.019   0.318   1.239  0.0981 -0.0329  1.3520
 3912TIP3   OH233226   0.516   0.223 102.447 -0.2457 -0.0662 -0.1894
 3912TIP3    H133227   0.539   0.138 102.410  0.1980  0.6773 -1.7223
 3912TIP3    H233228   0.551   0.221 102.536  1.1913 -0.9032 -0.7451
 3913TIP3   OH233229   1.891   0.726  36.235 -0.7667 -0.0840 -0.4355
 3913TIP3    H133230   1.836   0.667  36.184 -2.7812  0.8478  0.5483
 3913TIP3    H233231   1.911   0.799  36.175 -0.2562 -0.5987 -0.9071
 3914TIP3   OH233232   0.182   1.507   0.496 -0.0892  0.7561 -0.5332
 3914TIP3    H133233   0.142   1.428   0.532  0.8688  0.8114  0.7233
 3914TIP3    H233234   0.108   1.561   0.467 -0.8692  0.4008  0.7449
 3915TIP3   OH233235   0.049   0.214  81.386 -0.0565  0.1297 -0.0618
 3915TIP3    H133236  -0.007   0.210  81.309  0.1494  1.2029 -0.2828
 3915TIP3    H233237   0.120   0.152  81.367 -1.7958 -2.2615  0.7949
 3916TIP3   OH233238   2.152   2.411 111.991 -0.5670  0.6343 -0.0751
 3916TIP3    H133239   2.106   2.329 111.979 -1.1802  0.8321  0.8340
 3916TIP3    H233240   2.084   2.478 111.987 -0.3671  0.9375  1.2072
 3917TIP3   OH233241   0.134   1.030  34.181  0.2120 -0.4661  0.0895
 3917TIP3    H133242   0.221   1.050  34.215  0.4945 -1.1257 -0.2150
 3917TIP3    H233243   0.079   1.103  34.209  0.4680 -0.8794  1.8070
 3918TIP3   OH233244   1.394   2.535 102.959 -0.3956  0.6999  0.5355
 3918TIP3    H133245   1.462   2.603 102.962 -1.6507  2.1429 -1.3216
 3918TIP3    H233246   1.422   2.477 102.888 -0.4959  0.5894  0.5854
 3919TIP3   OH233247   1.064   1.205 100.442 -0.1143  0.1089  0.0286
 3919TIP3    H133248   1.035   1.116 100.420  0.3531  0.1533 -0.7957
 3919TIP3    H233249   1.068   1.250 100.358 -3.1353  1.8018  0.6233
 3920TIP3   OH233250   2.590   1.936   8.157 -0.0063 -0.7432 -1.1126
 3920TIP3    H133251   2.603   2.024   8.192 -1.8663 -0.9691  0.2670
 3920TIP3    H233252   2.676   1.911   8.122  1.1757  0.6578  0.6547
 3921TIP3   OH233253   1.559   0.330   2.134  0.2185 -0.5618 -0.1267
 3921TIP3    H133254   1.537   0.262   2.198 -0.9034 -0.1121 -0.0088
 3921TIP3    H233255   1.480   0.385   2.129  0.7813  0.2102 -0.8798
 3922TIP3   OH233256   1.593   2.278  30.107 -0.6276  0.4504  0.0484
 3922TIP3    H133257   1.551   2.271  30.021 -0.1658  0.6982 -0.1980
 3922TIP3    H233258   1.638   2.195  30.119 -1.0909  0.2241  0.2702
 3923TIP3   OH233259   1.229   2.223  97.400  0.4756 -0.2703 -0.3572
 3923TIP3    H133260   1.279   2.292  97.356 -0.5390 -0.2549 -1.5245
 3923TIP3    H233261   1.191   2.172  97.329 -1.3878 -0.1148  0.4728
 3924TIP3   OH233262   1.985   0.326  81.761  0.0558 -0.3571 -0.5616
 3924TIP3    H133263   1.976   0.283  81.676 -0.0299  0.9531 -1.2204
 3924TIP3    H233264   2.010   0.416  81.741  1.1908 -0.3307  0.8426
 3925TIP3   OH233265   1.858   1.482  13.993  0.5531 -0.0755  0.0524
 3925TIP3    H133266   1.817   1.472  13.907 -0.6552  0.4747  0.5391
 3925TIP3    H233267   1.947   1.449  13.981  0.4089 -0.0101 -1.4053
 3926TIP3   OH233268   1.992   1.708  25.811 -0.0586  0.2814 -0.2949
 3926TIP3    H133269   2.074   1.699  25.858 -0.8543 -0.4707  0.9911
 3926TIP3    H233270   1.964   1.798  25.829 -0.6598 -0.1807  1.2297
 3927TIP3   OH233271   0.883   0.916  60.846 -0.5582 -0.6378 -0.0515
 3927TIP3    H133272   0.857   0.884  60.760 -1.3429 -0.1155 -0.0125
 3927TIP3    H233273   0.963   0.867  60.867 -0.6749 -1.1657 -0.8248
 3928TIP3   OH233274   1.105   2.013  24.020 -0.1134  0.1498 -0.1186
 3928TIP3    H133275   1.125   1.928  23.981 -0.0907  0.4665 -0.8121
 3928TIP3    H233276   1.024   2.040  23.979 -1.5203 -0.6627  1.9448
 3929TIP3   OH233277   0.080   2.369  98.129 -0.0018 -0.2995 -0.2575
 3929TIP3    H133278   0.147   2.436  98.142 -1.4636  1.4832 -1.2836
 3929TIP3    H233279   0.012   2.390  98.194  0.1340 -1.6953  0.3599
 3930TIP3   OH233280   2.551   1.744 100.929 -0.3948  0.3156  0.0543
 3930TIP3    H133281   2.615   1.788 100.874  0.8024  1.3885  2.1470
 3930TIP3    H233282   2.467   1.781 100.904  0.0390  0.3684 -1.3838
 3931TIP3   OH233283   1.155   0.561  88.997  0.2335 -0.8123  0.0493
 3931TIP3    H133284   1.155   0.496  88.928  1.4717 -0.3426 -0.4327
 3931TIP3    H233285   1.070   0.552  89.040  0.4049 -2.7909  0.0567
 3932TIP3   OH233286   2.661   0.276  23.180 -0.3268  0.2356 -0.1250
 3932TIP3    H133287   2.646   0.184  23.161 -2.7075  0.6253 -0.4738
 3932TIP3    H233288   2.584   0.302  23.232 -0.7938  2.4852 -1.8037
 3933TIP3   OH233289   0.557   0.466  25.208  0.6209 -0.0242  0.2845
 3933TIP3    H133290   0.600   0.421  25.136 -1.3371 -1.5319 -0.0442
 3933TIP3    H233291   0.552   0.558  25.181  1.6257 -0.2243 -0.6093
 3934TIP3   OH233292   1.545   1.171  81.311  0.0946 -0.0816 -0.1912
 3934TIP3    H133293   1.634   1.202  81.327 -0.3376  1.1360 -0.0630
 3934TIP3    H233294   1.541   1.087  81.357  1.5360 -0.7505 -1.2011
 3935TIP3   OH233295   1.948   1.519 110.398 -0.1105 -0.5253  0.1565
 3935TIP3    H133296   1.929   1.573 110.322 -0.2816 -0.6565  0.1056
 3935TIP3    H233297   2.010   1.453 110.366  0.4119 -0.1193  0.3135
 3936TIP3   OH233298   1.928   1.644   8.285 -0.0714 -0.0051 -0.1682
 3936TIP3    H133299   1.906   1.572   8.227 -0.9202  0.2831 -0.2116
 3936TIP3    H233300   1.981   1.603   8.354 -0.0605 -0.5574 -0.4972
 3937TIP3   OH233301   0.010   2.439  15.488 -0.5955 -0.3362 -0.1681
 3937TIP3    H133302   0.067   2.481  15.423 -2.0334  1.6951 -0.2193
 3937TIP3    H233303  -0.063   2.405  15.437 -1.6705  1.1577  0.3076
 3938TIP3   OH233304   1.129   2.088 111.569 -0.1134 -0.6383 -0.3159
 3938TIP3    H133305   1.194   2.159 111.573 -0.8632  0.0933 -0.8287
 3938TIP3    H233306   1.045   2.132 111.580 -0.6533 -1.3178 -1.5086
 3939TIP3   OH233307   0.121   0.629  37.245 -0.8226  0.1657 -0.3433
 3939TIP3    H133308   0.123   0.722  37.268  0.8260  0.1690 -0.3639
 3939TIP3    H233309   0.052   0.622  37.179 -1.1732  1.3073 -0.1256
 3940TIP3   OH233310   1.652   0.903  90.190 -0.1998 -0.1965 -0.2058
 3940TIP3    H133311   1.678   0.924  90.101 -1.1677 -1.6605 -0.8761
 3940TIP3    H233312   1.650   0.987  90.235 -1.9472  0.9129 -2.1883
 3941TIP3   OH233313   1.356   2.642  41.371  0.3735  0.4081  0.6143
 3941TIP3    H133314   1.300   2.717  41.356  0.2209 -0.0146 -1.0450
 3941TIP3    H233315   1.347   2.624  41.465 -1.0612  1.2829  0.6623
 3942TIP3   OH233316   1.128   1.935  32.433 -0.2843 -0.3700  0.2880
 3942TIP3    H133317   1.199   1.951  32.495 -0.1871 -0.6321  0.2472
 3942TIP3    H233318   1.086   2.020  32.420  1.7975  0.4312 -1.9036
 3943TIP3   OH233319   2.554   2.631   0.717  0.2458 -0.1857 -0.0245
 3943TIP3    H133320   2.523   2.553   0.672 -0.2523  1.3406 -2.5199
 3943TIP3    H233321   2.477   2.687   0.725  0.8458  0.5846  0.5414
 3944TIP3   OH233322   0.439   0.312  12.400 -0.1284 -0.2719  0.1953
 3944TIP3    H133323   0.412   0.370  12.471 -0.6322  0.3657 -0.4992
 3944TIP3    H233324   0.490   0.368  12.341 -1.2631 -0.3345 -0.8730
 3945TIP3   OH233325   0.210   2.017  11.699 -0.1128  0.3064 -0.0546
 3945TIP3    H133326   0.202   1.955  11.772  2.0318 -1.0663 -0.9013
 3945TIP3    H233327   0.286   2.071  11.721 -0.4612  1.0019 -0.5121
 3946TIP3   OH233328   1.620   1.089 100.476  0.1824 -0.4582  0.3711
 3946TIP3    H133329   1.714   1.077 100.490  0.3151  0.1270  0.0069
 3946TIP3    H233330   1.597   1.026 100.408  0.1574 -1.1131  0.9721
 3947TIP3   OH233331   2.600   0.365   4.863  0.3950  0.2362  0.4004
 3947TIP3    H133332   2.690   0.335   4.847  0.8105  1.0510  1.1431
 3947TIP3    H233333   2.592   0.367   4.959 -0.4265  0.1626  0.3442
 3948TIP3   OH233334   0.974   0.829  33.706  0.3185  0.4499 -0.6772
 3948TIP3    H133335   1.062   0.839  33.743  0.4948  0.8130 -1.1877
 3948TIP3    H233336   0.938   0.917  33.707 -0.0717  0.2855 -0.3933
 3949TIP3   OH233337   0.593   1.597  81.786  0.6417  0.4813  0.4721
 3949TIP3    H133338   0.551   1.629  81.706  2.5881  3.0166  0.3255
 3949TIP3    H233339   0.540   1.634  81.857 -0.7620 -1.3147  0.4327
 3950TIP3   OH233340   2.009   1.171  76.161 -0.1824  0.8396 -0.2453
 3950TIP3    H133341   1.926   1.218  76.153 -1.7043 -1.8011 -1.5385
 3950TIP3    H233342   2.069   1.216  76.101 -1.2851  1.6636 -0.7519
 3951TIP3   OH233343   1.925   1.549   6.572 -0.4089 -0.1792  0.1871
 3951TIP3    H133344   1.843   1.564   6.619 -0.4799 -1.6064  0.5598
 3951TIP3    H233345   1.974   1.630   6.582 -0.3324 -0.4675  2.9267
 3952TIP3   OH233346   2.415   1.920 110.472  0.3918  0.4290 -0.2944
 3952TIP3    H133347   2.446   1.931 110.562 -0.6891  1.5159 -0.0256
 3952TIP3    H233348   2.328   1.961 110.471 -0.3892 -1.1313 -1.3952
 3953TIP3   OH233349   1.611   1.484  99.693  0.3028  0.2591 -0.5910
 3953TIP3    H133350   1.608   1.408  99.635  2.1649 -0.0919 -0.2655
 3953TIP3    H233351   1.566   1.553  99.643  0.4664 -0.4574 -1.7798
 3954TIP3   OH233352   1.462   0.257 107.066 -0.3205  0.0237 -0.1941
 3954TIP3    H133353   1.528   0.322 107.092 -0.8558  0.4077  0.2316
 3954TIP3    H233354   1.467   0.190 107.134 -0.0268 -0.1971 -0.4293
 3955TIP3   OH233355   0.912   1.555  10.229 -0.2223  0.2106 -0.1377
 3955TIP3    H133356   0.904   1.567  10.134  0.6154 -0.5230 -0.3071
 3955TIP3    H233357   0.838   1.604  10.265 -0.3897  0.7306 -1.1514
 3956TIP3   OH233358   2.675   2.174  83.111 -0.0033 -0.3392  0.2028
 3956TIP3    H133359   2.655   2.217  83.028 -0.8134  0.6493  0.8845
 3956TIP3    H233360   2.636   2.087  83.102 -0.9804  0.1151 -0.0819
 3957TIP3   OH233361   1.241   2.390   8.639  0.0861  0.5168  0.3232
 3957TIP3    H133362   1.210   2.476   8.666 -0.6035 -0.0017  1.2270
 3957TIP3    H233363   1.178   2.360   8.574 -0.0492  0.4150  0.5007
 3958TIP3   OH233364   1.663   2.677  97.981  0.6053  0.1213  0.0076
 3958TIP3    H133365   1.667   2.630  97.897  0.1236 -0.0697  0.0895
 3958TIP3    H233366   1.634   2.765  97.958  1.7229  0.4529 -0.1666
 3959TIP3   OH233367   0.295   1.780  88.023 -0.0282  0.1467  0.2131
 3959TIP3    H133368   0.210   1.813  88.052 -0.0607 -0.7448  1.1754
 3959TIP3    H233369   0.307   1.819  87.936 -2.8004 -2.0711 -1.3211
 3960TIP3   OH233370   0.736   2.536  92.215 -0.9871  0.2486 -0.2656
 3960TIP3    H133371   0.787   2.462  92.250  0.5488  1.1099 -0.5593
 3960TIP3    H233372   0.683   2.498  92.146  1.3547 -0.2969 -1.8889
 3961TIP3   OH233373   1.813   0.301 103.306 -0.7203  0.0943 -0.0793
 3961TIP3    H133374   1.891   0.248 103.324 -1.6207 -0.8988  1.1775
 3961TIP3    H233375   1.748   0.268 103.369 -2.3886  0.3611 -1.5834
 3962TIP3   OH233376   0.531   0.890  26.900 -0.0365 -0.7048 -0.6204
 3962TIP3    H133377   0.611   0.932  26.869 -0.2900 -0.4245 -0.9097
 3962TIP3    H233378   0.556   0.799  26.916  0.5857 -0.3993  0.2584
 3963TIP3   OH233379   1.549   0.727 109.290 -0.1053  0.7369 -0.0629
 3963TIP3    H133380   1.544   0.729 109.385 -0.1313 -0.7596  0.0023
 3963TIP3    H233381   1.541   0.818 109.262 -2.1944  1.0284  1.2691
 3964TIP3   OH233382   1.847   0.877  80.534 -0.1014 -0.0737  0.3615
 3964TIP3    H133383   1.772   0.880  80.475 -0.2003 -1.6577  0.3483
 3964TIP3    H233384   1.923   0.897  80.479  0.0835 -3.6148 -0.9172
 3965TIP3   OH233385   1.503   1.402   3.280  0.6049 -0.6747 -0.1522
 3965TIP3    H133386   1.417   1.405   3.323  0.3855 -0.3560 -0.6174
 3965TIP3    H233387   1.558   1.458   3.334  0.3633 -0.3871 -0.1993
 3966TIP3   OH233388   0.171   1.622  95.008  0.1480 -0.3896 -0.3277
 3966TIP3    H133389   0.196   1.697  94.954  1.9628 -0.9531 -0.3186
 3966TIP3    H233390   0.221   1.632  95.089 -2.9358  0.7383  1.6041
 3967TIP3   OH233391   1.622   1.098  19.551  0.2178 -0.2002 -0.0666
 3967TIP3    H133392   1.622   1.193  19.569  0.2318  0.2225 -2.1150
 3967TIP3    H233393   1.693   1.064  19.606  2.7333  1.5861 -1.9882
 3968TIP3   OH233394   2.149   1.483  24.170  0.3080 -0.1525 -0.0949
 3968TIP3    H133395   2.242   1.470  24.150  0.5112 -0.2556  0.8757
 3968TIP3    H233396   2.112   1.395  24.169 -0.1910  0.0327 -2.3156
 3969TIP3   OH233397   0.045   2.557  26.184  0.2476 -0.0920  0.5162
 3969TIP3    H133398   0.055   2.541  26.091 -0.4943  0.2488  0.3655
 3969TIP3    H233399   0.131   2.588  26.213  1.0305 -2.0000  0.3533
 3970TIP3   OH233400   2.177   0.078  12.963 -0.2774 -0.0920 -0.5472
 3970TIP3    H133401   2.135   0.164  12.967 -1.8238 -0.8269  2.4969
 3970TIP3    H233402   2.103   0.016  12.956  0.6112 -1.2460 -0.0671
 3971TIP3   OH233403   0.628   2.388  85.939 -0.1073  0.2276  0.8281
 3971TIP3    H133404   0.659   2.442  85.866  0.3797 -0.9725  0.1148
 3971TIP3    H233405   0.693   2.318  85.946 -1.9807 -1.7103  0.0599
 3972TIP3   OH233406   1.070   0.418  12.519 -0.0585  0.0066  0.2525
 3972TIP3    H133407   1.060   0.510  12.546  0.1994  1.0103 -2.6864
 3972TIP3    H233408   1.138   0.384  12.576 -0.1407  1.6442  1.4084
 3973TIP3   OH233409   2.118   1.461  37.638 -0.1988 -0.0761 -0.0059
 3973TIP3    H133410   2.076   1.491  37.719  0.4949 -0.0704  0.3635
 3973TIP3    H233411   2.046   1.451  37.576 -0.5626  1.6488  0.0728
 3974TIP3   OH233412   2.525   1.471   8.520 -0.3687  0.0387  0.4021
 3974TIP3    H133413   2.473   1.415   8.577  0.5312 -0.8430  0.3932
 3974TIP3    H233414   2.613   1.469   8.558  0.1523 -0.2360 -0.7553
 3975TIP3   OH233415   2.519   0.791  38.989  0.0264 -0.5039 -0.7323
 3975TIP3    H133416   2.576   0.715  38.981  2.2788  1.0822 -0.8535
 3975TIP3    H233417   2.508   0.804  39.083  0.2189 -0.5879 -0.6958
 3976TIP3   OH233418   0.356   2.334  25.708 -0.2788 -0.2073 -0.2562
 3976TIP3    H133419   0.429   2.359  25.651 -0.1110  0.2950  0.1650
 3976TIP3    H233420   0.375   2.244  25.733 -0.4070 -0.4737 -1.0645
 3977TIP3   OH233421   0.434   0.676  87.165 -0.3094 -0.3184 -0.6762
 3977TIP3    H133422   0.349   0.687  87.207  0.5919 -0.6283  1.3330
 3977TIP3    H233423   0.493   0.654  87.237  1.3659 -0.6396 -2.1071
 3978TIP3   OH233424   1.993   1.421  31.955  0.0688 -0.0553 -0.3108
 3978TIP3    H133425   1.919   1.426  32.014  0.8601  0.3532  0.6779
 3978TIP3    H233426   2.033   1.335  31.973 -0.2449 -0.3402 -0.9497
 3979TIP3   OH233427   2.528   0.238  34.455  0.3092 -0.2380 -0.4590
 3979TIP3    H133428   2.569   0.321  34.429  0.0865  0.2301  0.6143
 3979TIP3    H233429   2.496   0.200  34.374  0.6387  0.6095 -0.9987
 3980TIP3   OH233430   0.372   2.336  88.658 -0.0952 -0.4539  0.1027
 3980TIP3    H133431   0.301   2.300  88.711  1.6302 -1.0757  2.1343
 3980TIP3    H233432   0.334   2.413  88.616 -1.5045  0.2597  2.5133
 3981TIP3   OH233433   1.530   2.523   7.349  0.4520  0.0072 -0.0764
 3981TIP3    H133434   1.520   2.572   7.430 -1.4221  0.0539 -0.2934
 3981TIP3    H233435   1.468   2.564   7.288  0.7395 -0.9748 -1.0612
 3982TIP3   OH233436   1.229   1.776  82.146  0.7029  0.2442 -0.2469
 3982TIP3    H133437   1.296   1.730  82.196  0.0215 -0.0258  0.4420
 3982TIP3    H233438   1.243   1.747  82.056 -0.6711 -2.6299  0.3311
 3983TIP3   OH233439   1.784   1.939 102.298 -0.0082 -0.0550 -0.1135
 3983TIP3    H133440   1.847   1.974 102.361  0.1873  0.4131 -0.5552
 3983TIP3    H233441   1.704   1.923 102.349  0.4322 -0.5592  0.4344
 3984TIP3   OH233442   0.500   2.055  98.603  0.6166  0.0864 -0.2158
 3984TIP3    H133443   0.508   2.065  98.698  0.9134  0.2433 -0.2495
 3984TIP3    H233444   0.437   2.122  98.577 -0.3446 -0.7109  0.0064
 3985TIP3   OH233445   0.213   1.606  28.655  0.0928 -0.4355 -0.2460
 3985TIP3    H133446   0.293   1.581  28.702 -0.7041 -4.2094 -0.5751
 3985TIP3    H233447   0.231   1.583  28.564 -1.3098 -1.3756 -0.3183
 3986TIP3   OH233448   1.877   2.380  33.924 -0.0731 -0.1792  0.1656
 3986TIP3    H133449   1.961   2.336  33.938  0.1283  0.6280  1.7753
 3986TIP3    H233450   1.897   2.473  33.939 -1.0763  0.1228 -0.3298
 3987TIP3   OH233451   2.589   0.764 106.344  0.5124  0.4410  0.3990
 3987TIP3    H133452   2.620   0.818 106.417 -0.3795 -0.4634  1.4712
 3987TIP3    H233453   2.601   0.674 106.373  0.3602  0.0557 -0.6775
 3988TIP3   OH233454   2.377   0.761  94.834 -0.4549 -0.2850  0.1491
 3988TIP3    H133455   2.307   0.711  94.877 -0.7528 -0.0244 -0.0279
 3988TIP3    H233456   2.458   0.725  94.870 -0.6665 -0.9082  0.0104
 3989TIP3   OH233457   1.807   0.574   6.362 -0.1499 -0.2384  0.2168
 3989TIP3    H133458   1.862   0.508   6.320  1.6758 -0.3804  2.6007
 3989TIP3    H233459   1.831   0.656   6.319 -0.3098 -0.7052 -0.7980
 3990TIP3   OH233460   1.658   1.107  48.391  0.5528 -0.1570  0.4141
 3990TIP3    H133461   1.583   1.163  48.371  1.7377  1.2471 -0.2465
 3990TIP3    H233462   1.637   1.023  48.350 -0.7948  0.0942  0.5385
 3991TIP3   OH233463   0.662   1.438  33.184 -0.3285 -0.0543  0.4250
 3991TIP3    H133464   0.725   1.481  33.242  0.0028 -0.9631  0.7620
 3991TIP3    H233465   0.614   1.378  33.241 -0.9407  0.0323  0.0123
 3992TIP3   OH233466   0.024   1.326 109.753  0.1302 -0.7970  0.1037
 3992TIP3    H133467   0.035   1.405 109.807 -0.1270 -1.5809  1.3298
 3992TIP3    H233468  -0.062   1.337 109.713  1.1641  0.7950 -1.9079
 3993TIP3   OH233469   2.003   0.586 106.640  0.1768 -0.0258  0.1373
 3993TIP3    H133470   1.923   0.638 106.651 -0.7123 -1.3536  0.2198
 3993TIP3    H233471   2.002   0.561 106.547  0.1429 -0.5606  0.2764
 3994TIP3   OH233472   2.462   2.448 101.217  0.3827 -0.3077  0.5704
 3994TIP3    H133473   2.470   2.363 101.261  1.5172 -0.2791  0.4485
 3994TIP3    H233474   2.436   2.426 101.128  1.3160 -0.5946  0.3527
 3995TIP3   OH233475   2.638   2.219  85.808  0.0245 -0.0164 -0.0353
 3995TIP3    H133476   2.627   2.151  85.875 -2.2036  1.5631  1.3488
 3995TIP3    H233477   2.636   2.301  85.857 -1.4772  1.2014 -1.9650
 3996TIP3   OH233478   1.645   2.567  91.300 -0.0885  0.4011  0.0526
 3996TIP3    H133479   1.731   2.609  91.288  0.1719 -0.0644  0.2475
 3996TIP3    H233480   1.624   2.530  91.214 -1.2906  2.6683 -0.7280
 3997TIP3   OH233481   1.384   0.170  28.301  0.2700 -0.1173  0.3400
 3997TIP3    H133482   1.334   0.248  28.277 -0.5957 -0.5723  0.5999
 3997TIP3    H233483   1.374   0.111  28.226  0.2997 -0.2624  0.4493
 3998TIP3   OH233484   1.416   1.935  48.155  0.1919 -0.0630 -0.0962
 3998TIP3    H133485   1.459   1.873  48.214 -0.5385  0.5447  1.1135
 3998TIP3    H233486   1.344   1.971  48.206  0.8966  2.1886 -0.5513
 3999TIP3   OH233487   1.683   0.451 110.163  0.6399  0.0323  0.1107
 3999TIP3    H133488   1.593   0.418 110.152  0.5871  0.2901 -0.2396
 3999TIP3    H233489   1.689   0.523 110.101  0.0245  2.1477  2.3632
 4000TIP3   OH233490   0.786   1.890  99.950 -0.1461  0.1517 -0.5756
 4000TIP3    H133491   0.803   1.805  99.907 -0.0147 -0.7551  1.1803
 4000TIP3    H233492   0.818   1.955  99.887  0.5166 -1.1350 -1.6233
 4001TIP3   OH233493   0.931   2.154  88.665  0.3309 -0.1684 -0.0455
 4001TIP3    H133494   0.840   2.125  88.658  1.0198 -2.5028 -0.3063
 4001TIP3    H233495   0.939   2.224  88.601 -1.6236  1.1573  1.0377
 4002TIP3   OH233496   2.397   0.574  13.154 -0.0342  0.5996 -0.3756
 4002TIP3    H133497   2.412   0.545  13.244  0.9415  0.5244 -0.5516
 4002TIP3    H233498   2.388   0.492  13.104  2.1095  0.5313 -0.7696
 4003TIP3   OH233499   0.340   2.153  97.632  0.0511  0.1014  0.0264
 4003TIP3    H133500   0.322   2.106  97.551  0.1992  1.9917 -1.1581
 4003TIP3    H233501   0.388   2.231  97.605 -0.7052  1.2771  1.8380
 4004TIP3   OH233502   0.610   1.843  10.003  0.6998 -0.1964 -0.0293
 4004TIP3    H133503   0.625   1.907  10.072 -1.3734 -0.9508  1.2558
 4004TIP3    H233504   0.572   1.893   9.931 -2.3122 -0.0355  1.5089
 4005TIP3   OH233505   1.600   1.379  80.893 -0.0955 -0.0715 -0.3577
 4005TIP3    H133506   1.666   1.360  80.959 -0.5573 -0.7962 -0.0987
 4005TIP3    H233507   1.516   1.377  80.940 -0.2739  1.6256 -0.5213
 4006TIP3   OH233508   1.117   2.656  29.541 -0.1003  0.0133 -0.6485
 4006TIP3    H133509   1.149   2.697  29.460  0.4341 -0.8072 -0.8668
 4006TIP3    H233510   1.134   2.563  29.529  2.5660  0.0944  1.4977
 4007TIP3   OH233511   1.161   1.570  11.794 -0.2877  0.4025  0.2448
 4007TIP3    H133512   1.208   1.495  11.830 -1.2274  0.6595  2.1434
 4007TIP3    H233513   1.072   1.539  11.780 -0.1747  0.5910 -1.0213
 4008TIP3   OH233514   1.422   2.433  13.531  0.0482 -0.2519 -0.0061
 4008TIP3    H133515   1.458   2.476  13.608  0.5454  0.1164 -0.4293
 4008TIP3    H233516   1.499   2.393  13.489  0.5710  2.9550 -2.4941
 4009TIP3   OH233517   1.649   2.281  84.420 -0.1145  0.0214  0.8365
 4009TIP3    H133518   1.574   2.305  84.474  0.1545  0.5184  0.9911
 4009TIP3    H233519   1.612   2.262  84.334 -0.1816  2.7390  0.1735
 4010TIP3   OH233520   1.960   1.312  12.392  0.3160 -0.4038  0.2993
 4010TIP3    H133521   1.923   1.309  12.304 -0.6050  0.6211  0.6260
 4010TIP3    H233522   2.053   1.326  12.379  0.3236 -1.1290 -0.5222
 4011TIP3   OH233523   2.037   0.789  30.847 -0.2142 -0.3282 -0.4210
 4011TIP3    H133524   1.987   0.759  30.771  0.8708 -0.3040 -1.1646
 4011TIP3    H233525   1.983   0.765  30.922 -0.7479 -1.4605 -1.1354
 4012TIP3   OH233526   2.683   0.591  22.234  0.0507 -0.1210  0.3275
 4012TIP3    H133527   2.696   0.666  22.176  0.4738 -0.4273  0.0171
 4012TIP3    H233528   2.664   0.518  22.175  2.1128 -0.8008  0.4104
 4013TIP3   OH233529   2.463   0.517  98.122  0.2334 -0.4455 -0.3221
 4013TIP3    H133530   2.547   0.561  98.138  0.2758 -0.5851 -0.1493
 4013TIP3    H233531   2.397   0.582  98.142  0.2986  0.3328 -2.3628
 4014TIP3   OH233532   1.875   1.782   0.871  0.1665  0.2164 -0.0447
 4014TIP3    H133533   1.947   1.792   0.933  0.5365  0.0840 -0.4464
 4014TIP3    H233534   1.804   1.742   0.921  1.1973 -1.9349 -0.2096
 4015TIP3   OH233535   0.790   2.410  24.483  0.4399  0.2352 -0.0327
 4015TIP3    H133536   0.822   2.453  24.562  0.2707  0.4770 -0.0921
 4015TIP3    H233537   0.818   2.467  24.412 -0.4824  0.6823 -0.0525
 4016TIP3   OH233538   0.520   1.926  93.845  1.1088 -0.0115  0.1620
 4016TIP3    H133539   0.518   2.005  93.791  0.9465 -0.0269  0.1403
 4016TIP3    H233540   0.530   1.855  93.782 -0.1803 -0.1205  0.0390
 4017TIP3   OH233541   0.683   1.141 103.810  0.2846  0.5269 -0.5042
 4017TIP3    H133542   0.703   1.230 103.840  0.8151  1.0513 -2.2902
 4017TIP3    H233543   0.697   1.086 103.887  1.4792  1.8004  0.2290
 4018TIP3   OH233544   2.369   0.107  19.638 -0.3325  0.6146 -0.4125
 4018TIP3    H133545   2.364   0.017  19.668 -2.1397  0.1086 -2.0520
 4018TIP3    H233546   2.305   0.154  19.691  0.7183  1.0229  0.5505
 4019TIP3   OH233547   1.828   0.433  35.039  0.3502 -0.4975  0.3078
 4019TIP3    H133548   1.744   0.449  34.996  0.9593  1.4237 -0.2882
 4019TIP3    H233549   1.804   0.413  35.130 -0.7946 -1.5236 -0.1817
 4020TIP3   OH233550   1.295   1.722  74.383 -0.6028  0.9768  0.6487
 4020TIP3    H133551   1.281   1.811  74.416  1.6707  1.1496  1.3350
 4020TIP3    H233552   1.384   1.724  74.348 -0.7124 -0.8999  0.2031
 4021TIP3   OH233553   2.037   2.186  87.329  0.3422  0.1743 -0.1158
 4021TIP3    H133554   2.071   2.252  87.268 -0.5923  0.5115 -0.2890
 4021TIP3    H233555   2.114   2.157  87.378  1.0614  0.1067 -1.2525
 4022TIP3   OH233556   1.281   2.209 106.832 -0.0637  0.3210 -0.0163
 4022TIP3    H133557   1.277   2.152 106.909  0.3697 -1.1098 -1.0059
 4022TIP3    H233558   1.213   2.274 106.847  1.3184  1.3184  2.5083
 4023TIP3   OH233559   0.615   1.536  74.549 -0.1972  0.2511  0.2731
 4023TIP3    H133560   0.531   1.491  74.562  0.6664 -1.4355  0.3176
 4023TIP3    H233561   0.613   1.565  74.458 -0.3832 -0.7929 -0.0644
 4024TIP3   OH233562   0.866   0.088  28.053  0.1932  0.2047 -0.0394
 4024TIP3    H133563   0.908   0.101  28.138  0.4526 -0.4998 -0.0624
 4024TIP3    H233564   0.872   0.174  28.011  2.9504 -0.2056 -0.6704
 4025TIP3   OH233565   1.594   1.456 106.647 -0.2265 -0.4541  0.1926
 4025TIP3    H133566   1.611   1.410 106.729  0.3627  0.8681  0.8381
 4025TIP3    H233567   1.681   1.471 106.609 -0.3604  0.5983  0.2777
 4026TIP3   OH233568   1.919   2.069  97.428 -0.1980  0.1676  0.0055
 4026TIP3    H133569   1.941   2.024  97.346 -0.9385 -0.1194 -0.0468
 4026TIP3    H233570   1.968   2.020  97.495  0.6844  0.6150 -0.2902
 4027TIP3   OH233571   0.973   0.052   3.284 -0.2387 -0.0679 -0.5007
 4027TIP3    H133572   0.997  -0.023   3.339 -2.2574  0.1277  0.7397
 4027TIP3    H233573   1.056   0.099   3.270  0.6139 -1.0576  0.9457
 4028TIP3   OH233574   0.305   0.677 104.035 -0.6501 -0.4905 -0.2282
 4028TIP3    H133575   0.246   0.742 103.997  0.5910  0.5242 -0.5138
 4028TIP3    H233576   0.386   0.726 104.051 -0.8172 -1.0282  3.0093
 4029TIP3   OH233577   1.164   2.083   9.567  0.3144 -0.8049  0.0325
 4029TIP3    H133578   1.232   2.040   9.619 -0.0311 -1.0333  0.3005
 4029TIP3    H233579   1.200   2.087   9.479  0.0429 -2.3484 -0.1676
 4030TIP3   OH233580   0.117   0.749  69.933  0.2775 -0.2373  0.2420
 4030TIP3    H133581   0.129   0.678  69.996 -1.5772  1.6526  2.9115
 4030TIP3    H233582   0.118   0.705  69.847  1.9447 -3.0469  1.5697
 4031TIP3   OH233583   1.337   1.265  74.283  0.5122 -0.1260  0.8951
 4031TIP3    H133584   1.274   1.337  74.272 -0.5500 -1.0785  0.5685
 4031TIP3    H233585   1.283   1.187  74.295  1.6290 -0.9958  0.4937
 4032TIP3   OH233586   1.485   0.146  17.655  0.2832 -0.1764  0.5629
 4032TIP3    H133587   1.437   0.195  17.723 -1.3183  0.2217 -0.7917
 4032TIP3    H233588   1.553   0.206  17.625 -1.7221  1.4012 -1.1553
 4033TIP3   OH233589   0.566   1.154  79.722  0.1945 -0.2852 -0.1959
 4033TIP3    H133590   0.520   1.223  79.771  3.6923  0.5953  2.2617
 4033TIP3    H233591   0.598   1.198  79.643 -0.9067 -0.2493 -0.6450
 4034TIP3   OH233592   2.099   0.217  11.228  0.3705  0.5748  0.5591
 4034TIP3    H133593   2.044   0.284  11.188 -2.3601 -1.0121  1.4078
 4034TIP3    H233594   2.121   0.253  11.315  0.1530  0.9640  0.4560
 4035TIP3   OH233595   0.319   1.237  83.778  0.1985  0.2299  0.0283
 4035TIP3    H133596   0.327   1.161  83.719  1.7581  0.9705 -0.7853
 4035TIP3    H233597   0.227   1.263  83.771  0.0701 -0.4500 -1.1460
 4036TIP3   OH233598   0.456   1.948  29.120  0.1100 -0.2760 -0.0664
 4036TIP3    H133599   0.417   1.916  29.202  1.0632  0.3682  0.6615
 4036TIP3    H233600   0.548   1.926  29.128  0.2175 -0.1676 -0.9627
 4037TIP3   OH233601   0.252   0.185  30.890  0.6767  0.2792 -0.2987
 4037TIP3    H133602   0.303   0.259  30.921  0.3769  0.1731  0.4728
 4037TIP3    H233603   0.162   0.217  30.885  0.4655 -0.1669  0.5209
 4038TIP3   OH233604   1.955   2.361  93.810  0.1106 -0.3945 -0.0224
 4038TIP3    H133605   1.927   2.451  93.793  1.2598 -0.1939 -0.9426
 4038TIP3    H233606   1.874   2.315  93.832 -0.2884  1.2033  2.1222
 4039TIP3   OH233607   1.154   0.813  76.682 -0.3220 -0.4245  0.2124
 4039TIP3    H133608   1.154   0.867  76.603 -0.7135  0.0339  0.5173
 4039TIP3    H233609   1.061   0.806  76.706 -0.1694 -0.0889  0.9457
 4040TIP3   OH233610   1.026   2.050  36.613 -0.4138 -0.1718  0.3402
 4040TIP3    H133611   1.064   1.978  36.663 -1.0462 -0.8549 -0.1488
 4040TIP3    H233612   0.954   2.011  36.564  0.1733  0.4711 -1.1016
 4041TIP3   OH233613   1.112   0.866  20.315  0.3560 -0.3536 -0.4559
 4041TIP3    H133614   1.125   0.957  20.342  0.6406 -0.6744  0.5289
 4041TIP3    H233615   1.199   0.826  20.324  0.0848 -0.8949 -0.2167
 4042TIP3   OH233616   2.598   2.094  69.699  0.7593  0.1799  0.1248
 4042TIP3    H133617   2.611   2.189  69.708 -0.2663  0.3691 -0.2339
 4042TIP3    H233618   2.629   2.057  69.781 -0.0385  0.9691  0.7971
 4043TIP3   OH233619   0.065   2.575 108.335 -0.2923  0.7391  0.1223
 4043TIP3    H133620   0.087   2.667 108.321  1.1726  0.5814  1.1817
 4043TIP3    H233621   0.035   2.572 108.426  2.9208 -0.3208  1.2701
 4044TIP3   OH233622   0.059   1.584  78.917 -0.1704 -0.3905  0.4432
 4044TIP3    H133623   0.143   1.601  78.959  0.5007 -0.5459 -0.8018
 4044TIP3    H233624   0.002   1.654  78.950  0.6785  0.2236  0.6514
 4045TIP3   OH233625   1.352   0.353  88.218 -0.5250  0.2872 -0.2225
 4045TIP3    H133626   1.286   0.405  88.265  0.4067  0.9343  0.4016
 4045TIP3    H233627   1.395   0.417  88.160  0.9228  0.3397  0.8611
 4046TIP3   OH233628   2.630   2.415  18.627 -0.1873  0.3570 -0.0796
 4046TIP3    H133629   2.664   2.481  18.687  1.5322 -0.4503 -0.0955
 4046TIP3    H233630   2.706   2.389  18.575 -1.0830 -0.7799 -0.8814
 4047TIP3   OH233631   1.376   1.432 109.267 -0.1621  0.3609 -0.3150
 4047TIP3    H133632   1.381   1.486 109.347  0.7024  0.3761 -0.3720
 4047TIP3    H233633   1.316   1.480 109.210  1.7830  2.1205 -0.9822
 4048TIP3   OH233634   1.612   0.680  88.470  0.1389  0.1814 -0.2487
 4048TIP3    H133635   1.538   0.620  88.484  0.7547 -0.5335 -0.0193
 4048TIP3    H233636   1.583   0.737  88.399 -0.2928 -0.6603 -0.7656
 4049TIP3   OH233637   1.133   1.689  19.165 -0.2619  0.0283 -0.3156
 4049TIP3    H133638   1.121   1.771  19.117 -0.6921  1.3865  1.9620
 4049TIP3    H233639   1.046   1.670  19.201  0.4448  0.1892  1.5809
 4050TIP3   OH233640   0.649   2.129  97.859  0.0756  0.5238 -0.4863
 4050TIP3    H133641   0.641   2.035  97.843  0.5229  0.6466 -1.4848
 4050TIP3    H233642   0.558   2.161  97.862 -0.0747  0.0788 -0.2547
 4051TIP3   OH233643   2.059   1.263  89.726 -0.1721  0.5794  0.3587
 4051TIP3    H133644   2.103   1.241  89.808 -0.5590  0.6038  0.5780
 4051TIP3    H233645   2.092   1.349  89.703  1.6276 -0.3366 -0.6935
 4052TIP3   OH233646   0.130   2.171   4.493 -0.5982  0.1885 -0.0946
 4052TIP3    H133647   0.093   2.101   4.440 -1.0189  0.6393 -0.4096
 4052TIP3    H233648   0.179   2.225   4.431 -0.7703  0.5038  0.0439
 4053TIP3   OH233649   0.940   1.094  97.261 -0.4605  0.0832  0.0007
 4053TIP3    H133650   0.859   1.141  97.238  0.4286  1.9199  0.4016
 4053TIP3    H233651   0.911   1.004  97.279 -2.0396  0.0446 -2.3021
 4054TIP3   OH233652   0.019   0.790  98.742 -0.2238  0.2011  0.2093
 4054TIP3    H133653   0.020   0.877  98.782 -2.1204  0.8033 -0.9399
 4054TIP3    H233654  -0.066   0.754  98.766  0.1135 -0.9213 -0.2166
 4055TIP3   OH233655   0.534   1.609  80.123  0.0580 -0.0467 -0.1676
 4055TIP3    H133656   0.486   1.646  80.197 -0.1432 -0.8774  0.1286
 4055TIP3    H233657   0.492   1.525  80.106  0.5653 -0.1921 -0.7673
 4056TIP3   OH233658   0.560   1.778  95.756  0.2449  0.5323 -0.1813
 4056TIP3    H133659   0.613   1.836  95.811 -0.3813  0.0328  1.0057
 4056TIP3    H233660   0.619   1.706  95.733 -0.1144 -0.5181  1.9348
 4057TIP3   OH233661   1.663   1.407  88.826 -0.3174 -0.0676  0.3308
 4057TIP3    H133662   1.758   1.402  88.834 -0.2511  0.4969 -0.0816
 4057TIP3    H233663   1.633   1.317  88.842  0.4283 -0.7270 -1.6623
 4058TIP3   OH233664   1.866   2.578   8.201 -0.3134 -0.0782 -0.0165
 4058TIP3    H133665   1.961   2.588   8.214 -0.4354  2.2430 -0.3776
 4058TIP3    H233666   1.853   2.484   8.190  2.2060 -0.3373 -1.8294
 4059TIP3   OH233667   1.192   2.615  19.748  0.4552 -0.1088  0.2686
 4059TIP3    H133668   1.240   2.566  19.681  0.0297  0.6807 -0.6306
 4059TIP3    H233669   1.257   2.673  19.788  0.2442  1.1439 -1.1211
 4060TIP3   OH233670   2.392   1.316   8.689  0.0601 -0.1980  0.3137
 4060TIP3    H133671   2.462   1.252   8.691  0.8256  0.6395  0.7004
 4060TIP3    H233672   2.360   1.321   8.779 -0.4460 -0.5015  0.1603
 4061TIP3   OH233673   0.897   0.943 110.556 -0.0295  0.2496 -0.0377
 4061TIP3    H133674   0.906   1.017 110.616 -0.4980  0.3073 -0.0335
 4061TIP3    H233675   0.915   0.866 110.611 -0.7788  0.2774  0.2685
 4062TIP3   OH233676   0.561   1.181  37.819 -0.1748  0.1148 -0.2719
 4062TIP3    H133677   0.568   1.194  37.724  0.4643 -2.2593 -0.6191
 4062TIP3    H233678   0.467   1.173  37.836 -0.3075  0.8042 -0.6524
 4063TIP3   OH233679   0.723   0.065 109.617  0.0570 -0.0842 -0.5085
 4063TIP3    H133680   0.650   0.078 109.677  0.1076 -2.3372  0.1175
 4063TIP3    H233681   0.696   0.111 109.537 -2.1352 -0.9926 -0.3607
 4064TIP3   OH233682   2.392   0.305  37.173  0.0832 -0.6080 -0.2985
 4064TIP3    H133683   2.448   0.382  37.162  0.3511 -0.9713 -1.5800
 4064TIP3    H233684   2.453   0.232  37.181 -0.1469 -0.6473  1.6292
 4065TIP3   OH233685   1.149   0.519  74.940  0.5275 -0.2678  0.1544
 4065TIP3    H133686   1.192   0.570  74.871 -1.1534 -0.7743 -1.3304
 4065TIP3    H233687   1.158   0.428  74.911 -0.6728 -0.4474  0.2960
 4066TIP3   OH233688   2.588   0.966  96.574  0.1939  0.2415  0.1613
 4066TIP3    H133689   2.504   0.966  96.529 -0.5516  0.7005  1.4995
 4066TIP3    H233690   2.617   1.057  96.571  0.8045  0.0407 -0.5329
 4067TIP3   OH233691   2.096   0.678 106.887 -0.1526  0.0838 -0.0650
 4067TIP3    H133692   2.061   0.635 106.809 -1.4680  0.7532  0.1196
 4067TIP3    H233693   2.115   0.606 106.947 -0.4726 -0.3615 -0.4811
 4068TIP3   OH233694   2.014   2.010  92.805 -0.1401  0.1379 -0.3024
 4068TIP3    H133695   1.977   1.936  92.756  0.6099  0.1293 -0.8807
 4068TIP3    H233696   2.025   2.079  92.739  2.6890 -0.4995 -0.6495
 4069TIP3   OH233697   1.163   0.366  13.410 -0.0904 -0.1111 -0.0450
 4069TIP3    H133698   1.175   0.304  13.482 -0.6499  0.2306  0.3558
 4069TIP3    H233699   1.105   0.433  13.446  0.3674  0.5553 -0.5214
 4070TIP3   OH233700   1.231   1.037  94.078  0.2436 -0.0725  0.0485
 4070TIP3    H133701   1.150   1.087  94.087 -0.5231 -1.1172 -0.8289
 4070TIP3    H233702   1.296   1.088  94.127 -0.6050  1.5244 -0.4108
 4071TIP3   OH233703   2.337   0.021  78.678  0.1081  0.2957 -0.0983
 4071TIP3    H133704   2.313   0.027  78.585 -0.3800 -1.3839 -0.1106
 4071TIP3    H233705   2.255  -0.000  78.722  0.0479  2.4133  0.9427
 4072TIP3   OH233706   1.121   2.210   1.691 -0.5174 -0.1246  0.1993
 4072TIP3    H133707   1.037   2.171   1.714 -1.0656  0.6084 -0.4912
 4072TIP3    H233708   1.098   2.287   1.638  0.6270 -1.4609 -2.4132
 4073TIP3   OH233709   0.515   0.272  80.660  0.2603 -0.1532 -0.3688
 4073TIP3    H133710   0.447   0.259  80.726 -0.1861  1.5272 -0.4445
 4073TIP3    H233711   0.481   0.344  80.605  1.7652  0.2249 -0.8442
 4074TIP3   OH233712   1.318   1.185  12.140 -0.3191  0.2116  0.3906
 4074TIP3    H133713   1.405   1.172  12.175 -0.5103 -1.5641  0.2599
 4074TIP3    H233714   1.264   1.117  12.180 -1.7590  1.4970  0.7671
 4075TIP3   OH233715   1.800   0.819  87.114 -0.3425  0.2883  0.0537
 4075TIP3    H133716   1.748   0.855  87.187 -0.9274 -0.4172 -0.0108
 4075TIP3    H233717   1.736   0.791  87.050  0.1905  1.9124 -1.2546
 4076TIP3   OH233718   0.110   2.235  81.036 -0.4353  0.7252 -0.5390
 4076TIP3    H133719   0.088   2.300  81.103 -0.0623 -0.2159  0.5239
 4076TIP3    H233720   0.175   2.179  81.078 -0.2189  0.0904 -1.6916
 4077TIP3   OH233721   0.860   0.552 100.299 -0.4252 -0.0161  0.1640
 4077TIP3    H133722   0.805   0.576 100.374 -0.7416 -2.7532  0.9116
 4077TIP3    H233723   0.898   0.468 100.323  2.4567  0.7293 -1.2525
 4078TIP3   OH233724   1.014   0.489  22.585  0.4428  0.2262 -0.4820
 4078TIP3    H133725   0.978   0.451  22.505 -0.5699 -1.3514  0.6655
 4078TIP3    H233726   1.009   0.584  22.571  1.2309  0.0100 -2.6568
 4079TIP3   OH233727   1.042   1.501  28.653  0.1634  0.0886 -0.5605
 4079TIP3    H133728   1.041   1.471  28.744  0.2184 -0.7713 -0.8428
 4079TIP3    H233729   1.059   1.423  28.601 -1.5247  0.2398 -1.4281
 4080TIP3   OH233730   0.047   0.458 111.136 -0.1496 -0.8014 -0.1634
 4080TIP3    H133731   0.113   0.409 111.186  0.8769  0.8045  0.1327
 4080TIP3    H233732   0.095   0.493 111.061 -0.9548 -0.6021 -0.5844
 4081TIP3   OH233733   0.855   2.229   2.864  0.1378  0.0931  0.3331
 4081TIP3    H133734   0.809   2.291   2.920 -1.0673  0.4916 -1.0120
 4081TIP3    H233735   0.798   2.152   2.863 -0.7446  0.7057 -1.6008
 4082TIP3   OH233736   2.259   0.495  34.606 -0.3402 -0.6054 -0.4716
 4082TIP3    H133737   2.228   0.584  34.592 -2.0469 -1.2266 -0.9037
 4082TIP3    H233738   2.253   0.453  34.519  0.6860 -1.0835 -0.3345
 4083TIP3   OH233739   1.964   2.598  23.888  0.3857  0.4556 -0.1669
 4083TIP3    H133740   1.991   2.597  23.980  0.6087 -0.3287 -0.2381
 4083TIP3    H233741   1.882   2.549  23.886  0.4103  0.4254 -0.4023
 4084TIP3   OH233742   0.715   0.489  69.267 -0.1504  0.3389 -0.2189
 4084TIP3    H133743   0.733   0.573  69.225  1.3310 -0.3293 -1.0111
 4084TIP3    H233744   0.702   0.511  69.360 -1.3301  1.5999 -0.6531
 4085TIP3   OH233745   0.680   1.248  93.563 -0.6779  0.2802 -0.2728
 4085TIP3    H133746   0.687   1.262  93.658  0.1830 -2.1036  0.0820
 4085TIP3    H233747   0.597   1.203  93.552 -0.3364 -0.2874 -0.5360
 4086TIP3   OH233748   2.542   0.054   2.844 -0.2754  0.1943  0.0684
 4086TIP3    H133749   2.581  -0.021   2.800  0.4659 -0.1936  1.3460
 4086TIP3    H233750   2.554   0.127   2.783  0.7725 -0.3135 -0.3478
 4087TIP3   OH233751   1.081   2.103  99.802 -0.0635 -0.0599  0.0906
 4087TIP3    H133752   1.122   2.025  99.839 -0.9542  0.1364  1.5686
 4087TIP3    H233753   1.151   2.168  99.799  0.7325 -0.9264 -1.3196
 4088TIP3   OH233754   2.522   0.597  31.050 -0.1282 -0.0611 -0.5984
 4088TIP3    H133755   2.442   0.649  31.055 -0.4178 -0.5555  0.1508
 4088TIP3    H233756   2.511   0.543  30.972 -0.0044  0.7091 -1.1506
 4089TIP3   OH233757   2.066   0.936   6.854 -0.8645 -0.3138  0.2143
 4089TIP3    H133758   2.052   0.984   6.772  1.8433  0.0708 -0.1162
 4089TIP3    H233759   2.032   0.848   6.836  0.0466 -0.3617 -1.5196
 4090TIP3   OH233760   0.289   1.948  63.031  0.1999  0.1864 -0.5954
 4090TIP3    H133761   0.261   1.859  63.010  2.6470 -0.7533 -0.2159
 4090TIP3    H233762   0.271   1.957  63.125  1.0121 -0.3914 -0.3643
 4091TIP3   OH233763   0.269   1.878  90.693 -0.0316  0.4652  0.2387
 4091TIP3    H133764   0.193   1.937  90.690  0.3183  0.9007 -0.2369
 4091TIP3    H233765   0.232   1.794  90.719 -0.9540  0.2737 -1.4895
 4092TIP3   OH233766   2.304   1.927  36.944 -0.1844  0.2037  0.2443
 4092TIP3    H133767   2.218   1.890  36.926  0.1577 -0.2627 -0.4482
 4092TIP3    H233768   2.328   1.974  36.864  0.4463 -0.1331  0.2275
 4093TIP3   OH233769   1.262   0.230   4.930 -0.1873 -0.5477 -0.1479
 4093TIP3    H133770   1.228   0.204   4.844  0.3364 -0.2820 -0.4370
 4093TIP3    H233771   1.282   0.148   4.974  0.9242 -0.6654 -0.8406
 4094TIP3   OH233772   2.467   0.006  20.300 -0.2909 -0.1797 -0.0755
 4094TIP3    H133773   2.497  -0.081  20.325  1.3996  0.1732 -0.8055
 4094TIP3    H233774   2.467   0.055  20.382 -1.5346 -0.8930  0.3981
 4095TIP3   OH233775   0.222   0.759  11.992  0.0599  0.1768  0.1851
 4095TIP3    H133776   0.204   0.676  12.037 -0.7822  0.4781  0.4158
 4095TIP3    H233777   0.187   0.747  11.904 -2.6929  1.2562  1.0451
 4096TIP3   OH233778   0.942   0.860  52.563  0.5372 -0.1050  0.1733
 4096TIP3    H133779   1.021   0.841  52.614  0.8018 -1.6232 -0.7191
 4096TIP3    H233780   0.970   0.848  52.472  0.6359  4.4818 -0.6421
 4097TIP3   OH233781   1.671   1.171  90.280  0.0502  0.5040 -0.3435
 4097TIP3    H133782   1.642   1.213  90.361  0.8530 -0.6226  0.5606
 4097TIP3    H233783   1.592   1.166  90.226 -1.5616 -2.3917  1.9918
 4098TIP3   OH233784   1.503   1.344  85.610 -0.2162 -0.1272 -0.2035
 4098TIP3    H133785   1.494   1.437  85.591 -2.1159  0.0856  1.3670
 4098TIP3    H233786   1.488   1.300  85.526 -0.7121  0.9267 -0.6795
 4099TIP3   OH233787   2.200   1.753  28.992 -0.3572  0.0057 -0.0496
 4099TIP3    H133788   2.293   1.742  28.972  0.2669  1.2196  1.9630
 4099TIP3    H233789   2.188   1.847  29.005 -1.7383 -0.1892  0.3050
 4100TIP3   OH233790   0.288   2.579  14.884 -0.2023  0.3665  0.2875
 4100TIP3    H133791   0.236   2.507  14.850  0.5185  0.2703 -0.6657
 4100TIP3    H233792   0.337   2.611  14.808 -0.9606  2.2701  0.5444
 4101TIP3   OH233793   1.917   2.119   0.788  0.3406 -0.3667  0.6429
 4101TIP3    H133794   1.885   2.100   0.700 -0.6624 -0.4405  1.0168
 4101TIP3    H233795   1.954   2.207   0.781 -2.4556  0.9197  0.8109
 4102TIP3   OH233796   1.978   1.850  10.297  0.1065 -0.4422 -0.5480
 4102TIP3    H133797   1.947   1.940  10.292  0.2703 -0.3702 -0.3002
 4102TIP3    H233798   2.069   1.855  10.267  0.2852 -0.4350 -0.0081
 4103TIP3   OH233799   1.745   0.825   7.187  0.4706  0.1737 -0.0773
 4103TIP3    H133800   1.661   0.852   7.149 -1.7823 -1.8890  2.9382
 4103TIP3    H233801   1.762   0.889   7.256  0.3164 -0.5036  0.6017
 4104TIP3   OH233802   1.875   1.077 111.665  0.4161 -0.0228 -0.2958
 4104TIP3    H133803   1.811   1.013 111.695  1.1984 -0.1968  1.1163
 4104TIP3    H233804   1.960   1.033 111.675  0.9042  0.9331 -0.0507
 4105TIP3   OH233805   2.350   2.626  95.519 -0.3818  0.0770  0.2257
 4105TIP3    H133806   2.288   2.644  95.590 -0.9656 -0.4920 -0.1191
 4105TIP3    H233807   2.340   2.532  95.503  1.7759 -0.3828  1.2647
 4106TIP3   OH233808   1.875   0.565  95.420  0.0514 -0.5124 -0.2510
 4106TIP3    H133809   1.866   0.606  95.334 -0.4761 -0.7244 -0.3019
 4106TIP3    H233810   1.812   0.493  95.418 -1.1691  0.4904  0.9174
 4107TIP3   OH233811   0.665   1.129  80.479 -0.5993  0.1697 -0.2194
 4107TIP3    H133812   0.747   1.165  80.446 -1.3984  0.9329 -1.4416
 4107TIP3    H233813   0.596   1.180  80.436 -1.7323 -0.5572  0.6387
 4108TIP3   OH233814   0.441   1.852  34.343 -0.4025  0.0896  0.1616
 4108TIP3    H133815   0.524   1.896  34.360 -0.1312 -0.3211 -0.0822
 4108TIP3    H233816   0.382   1.922  34.316 -0.3758  0.5056  1.1475
 4109TIP3   OH233817   1.795   1.150   3.384  0.3655  0.3923 -0.1366
 4109TIP3    H133818   1.860   1.157   3.455 -0.5488  1.2068  0.6487
 4109TIP3    H233819   1.804   1.232   3.336  1.3173 -0.3616 -1.2907
 4110TIP3   OH233820   2.356   1.022  16.038  0.2205 -0.3623  0.1281
 4110TIP3    H133821   2.418   0.991  16.104 -0.0946 -1.4933 -0.0760
 4110TIP3    H233822   2.274   1.035  16.086  0.6390  1.3470  0.4420
 4111TIP3   OH233823   0.881   0.048   9.154  0.4082  0.1230 -0.1548
 4111TIP3    H133824   0.946  -0.006   9.198  1.3278  0.3373 -1.2174
 4111TIP3    H233825   0.843  -0.009   9.087  0.3383  0.3500 -0.3109
 4112TIP3   OH233826   0.208   2.056  35.715  0.1406  0.0325 -0.3931
 4112TIP3    H133827   0.119   2.049  35.749 -0.2415  0.6019 -1.2286
 4112TIP3    H233828   0.259   1.993  35.766 -0.5097  0.4862  0.8336
 4113TIP3   OH233829   2.113   2.280   5.108 -0.4609  0.1530 -0.1890
 4113TIP3    H133830   2.023   2.287   5.076 -0.8237 -1.2172  0.4467
 4113TIP3    H233831   2.104   2.266   5.202  0.2829 -2.1438 -0.4005
 4114TIP3   OH233832   1.806   1.108  77.608 -0.3569  0.1604  0.3303
 4114TIP3    H133833   1.735   1.050  77.636 -1.0130  0.4211 -0.7005
 4114TIP3    H233834   1.763   1.193  77.596  0.3562  0.5780  0.7088
 4115TIP3   OH233835   0.859   2.322   4.400  0.4053  0.2316 -0.0201
 4115TIP3    H133836   0.925   2.345   4.465 -0.6398  1.5738  0.6102
 4115TIP3    H233837   0.788   2.282   4.450 -0.1188  0.6580 -0.4091
 4116TIP3   OH233838   0.646   2.496 108.982  0.2686  0.3374  0.1078
 4116TIP3    H133839   0.606   2.456 109.060  1.2278  0.6692  0.7844
 4116TIP3    H233840   0.596   2.576 108.968 -1.3558 -0.7909 -0.9635
 4117TIP3   OH233841   1.889   0.843  79.389 -0.2882  0.6329  0.2993
 4117TIP3    H133842   1.876   0.915  79.327 -1.0542  1.0786  0.9631
 4117TIP3    H233843   1.947   0.880  79.456 -1.9009  1.1443  1.4567
 4118TIP3   OH233844   0.488   0.316  30.985 -0.5455  0.3008  0.1422
 4118TIP3    H133845   0.561   0.359  31.030 -0.4106 -0.9675  1.1892
 4118TIP3    H233846   0.442   0.269  31.054 -2.9982  1.8755 -0.3053
 4119TIP3   OH233847   0.637   0.058  12.892 -0.0492  0.1240  0.5205
 4119TIP3    H133848   0.696   0.042  12.818  0.5665 -0.0745  1.0384
 4119TIP3    H233849   0.588   0.136  12.868  0.2858  0.1755 -0.0110
 4120TIP3   OH233850   1.725   0.303  79.795  0.4073 -0.0787  0.6312
 4120TIP3    H133851   1.757   0.222  79.754 -3.6160 -1.2641 -0.5648
 4120TIP3    H233852   1.755   0.372  79.736  1.5267 -0.9430  0.1374
 4121TIP3   OH233853   2.393   0.111   9.580 -0.0264 -0.0112 -0.1053
 4121TIP3    H133854   2.457   0.119   9.509 -1.1382 -1.6250 -1.3576
 4121TIP3    H233855   2.354   0.198   9.586  0.7376  0.3972 -0.8151
 4122TIP3   OH233856   2.479   1.769  37.369 -0.4346  0.2550  0.1944
 4122TIP3    H133857   2.427   1.740  37.294 -0.2239  2.6429 -0.9401
 4122TIP3    H233858   2.426   1.837  37.411  0.0817 -0.0552  1.4134
 4123TIP3   OH233859   2.022   2.423   9.038  0.5544 -0.3414  0.0656
 4123TIP3    H133860   2.090   2.356   9.033  2.1797  1.0048  2.2604
 4123TIP3    H233861   1.961   2.391   9.104  0.5314 -0.3317  0.0488
 4124TIP3   OH233862   2.373   0.502  39.353  0.7455  0.1958 -0.0303
 4124TIP3    H133863   2.415   0.469  39.433 -1.1569 -0.5473  0.7242
 4124TIP3    H233864   2.371   0.597  39.364  0.1772  0.0763  1.0105
 4125TIP3   OH233865   2.430   0.519  90.201  0.0775 -0.3274  0.4670
 4125TIP3    H133866   2.395   0.581  90.265  0.0752 -1.5496  1.7077
 4125TIP3    H233867   2.368   0.523  90.128 -1.7561 -1.1528  1.8645
 4126TIP3   OH233868   2.302   1.609  97.070 -0.3461  0.5245 -0.5960
 4126TIP3    H133869   2.396   1.615  97.050 -0.1915  1.2146  0.2679
 4126TIP3    H233870   2.265   1.562  96.996  0.6130  0.6554 -1.1789
 4127TIP3   OH233871   0.695   1.920  37.092  0.2680 -0.0048 -0.6577
 4127TIP3    H133872   0.653   1.993  37.137 -0.1310 -0.8394  0.3318
 4127TIP3    H233873   0.685   1.941  36.999 -2.5090 -0.2432 -0.4871
 4128TIP3   OH233874   2.070   0.355  13.010  0.2104 -0.3244  0.0660
 4128TIP3    H133875   2.009   0.307  13.066  1.1048  0.6618  2.0023
 4128TIP3    H233876   2.025   0.437  12.988  0.6370  0.2379  1.1865
 4129TIP3   OH233877   1.291   1.415  93.087 -0.1674 -0.1128 -0.7084
 4129TIP3    H133878   1.314   1.329  93.124  0.5049  0.5851  0.5729
 4129TIP3    H233879   1.345   1.422  93.008  0.2266 -0.6256 -0.4988
 4130TIP3   OH233880   1.809   1.304  91.311  0.1517 -0.3261 -0.2277
 4130TIP3    H133881   1.736   1.253  91.346 -0.8651  1.0756 -0.2137
 4130TIP3    H233882   1.842   1.353  91.387 -0.1719  0.5236 -0.6310
 4131TIP3   OH233883   1.086   1.769  74.666  0.0470  0.4122 -0.3779
 4131TIP3    H133884   1.020   1.721  74.616 -0.8883 -0.2270  1.3715
 4131TIP3    H233885   1.097   1.718  74.746  1.5571  1.3353  0.0470
 4132TIP3   OH233886   0.610   2.274  27.711 -0.2365  0.7879  0.3793
 4132TIP3    H133887   0.571   2.276  27.623  0.5199 -1.7709 -0.0992
 4132TIP3    H233888   0.541   2.237  27.766  0.1394  0.0054  0.3337
 4133TIP3   OH233889   2.118   0.105  19.465 -0.0501 -0.5173 -0.3695
 4133TIP3    H133890   2.068   0.074  19.389  1.9455  2.5177 -3.1807
 4133TIP3    H233891   2.204   0.064  19.455 -0.0460 -0.8464  0.8637
 4134TIP3   OH233892   1.683   2.590  20.238  0.1095  0.3261  0.0799
 4134TIP3    H133893   1.701   2.497  20.221  0.1791  0.6693 -2.0009
 4134TIP3    H233894   1.593   2.602  20.208  0.4461  1.1300 -0.6408
 4135TIP3   OH233895   2.412   0.550  81.747 -0.1001  0.3266 -0.3066
 4135TIP3    H133896   2.468   0.483  81.786  1.0107  1.2245 -0.3312
 4135TIP3    H233897   2.340   0.561  81.810  0.8203  0.6114  0.7115
 4136TIP3   OH233898   0.871   0.554  28.909  0.2109 -0.0927 -0.1624
 4136TIP3    H133899   0.816   0.571  28.833  1.1744  1.1735 -0.5935
 4136TIP3    H233900   0.958   0.539  28.873  0.5231 -0.2719  0.6429
 4137TIP3   OH233901   1.860   2.045  84.692  0.0203  0.2675 -0.2856
 4137TIP3    H133902   1.900   2.127  84.720  0.7429 -0.2040  0.0850
 4137TIP3    H233903   1.767   2.054  84.714  0.1731  0.8120  0.1466
 4138TIP3   OH233904   1.248   0.442  91.563 -0.2702  0.0090 -0.0445
 4138TIP3    H133905   1.178   0.388  91.527 -0.4400 -0.2875  0.6974
 4138TIP3    H233906   1.271   0.399  91.646 -0.2117  0.9111  0.4292
 4139TIP3   OH233907   0.964   1.310  12.153 -0.1968  0.3013 -0.0330
 4139TIP3    H133908   0.985   1.217  12.143 -1.9083 -0.2082  0.7755
 4139TIP3    H233909   1.030   1.355  12.100 -0.3389 -1.4630 -1.8242
 4140TIP3   OH233910   0.293   1.606   4.621  0.4342  0.2219  0.1170
 4140TIP3    H133911   0.368   1.626   4.678  0.1299 -1.8564  1.3591
 4140TIP3    H233912   0.329   1.552   4.552  0.0669 -1.0373  0.8856
 4141TIP3   OH233913   1.535   0.948  98.610  0.0271  0.2275 -0.1516
 4141TIP3    H133914   1.466   0.990  98.558 -0.4606  1.0084  1.0749
 4141TIP3    H233915   1.488   0.903  98.679  0.7389  0.7827  0.7157
 4142TIP3   OH233916   0.021   2.271  18.893  0.1457 -0.0987  0.2653
 4142TIP3    H133917   0.004   2.362  18.868  0.2309 -0.4719 -1.2935
 4142TIP3    H233918   0.112   2.256  18.866 -0.1367 -0.8814 -0.2790
 4143TIP3   OH233919   1.908   1.244  12.131  0.0584 -0.0868  0.3643
 4143TIP3    H133920   1.831   1.272  12.081 -2.1291 -2.5216  2.1075
 4143TIP3    H233921   1.974   1.225  12.065 -1.0052  1.4812 -1.2354
 4144TIP3   OH233922   1.222   0.081  82.145  0.0172  0.2452  0.1488
 4144TIP3    H133923   1.147   0.120  82.190 -0.5102 -0.1913 -0.3426
 4144TIP3    H233924   1.299   0.114  82.193 -0.5258 -0.2218  1.3711
 4145TIP3   OH233925   0.098   2.644  86.165 -0.3186 -0.0129  0.1142
 4145TIP3    H133926   0.172   2.627  86.224 -0.5198 -2.6906 -0.2718
 4145TIP3    H233927   0.068   2.732  86.189  3.5120  1.6156 -0.3271
 4146TIP3   OH233928   2.584   2.275  28.251 -0.6225 -0.1192  0.3004
 4146TIP3    H133929   2.638   2.298  28.175  0.5315  1.7664  1.6047
 4146TIP3    H233930   2.515   2.342  28.252 -1.1050 -0.6139  0.4601
 4147TIP3   OH233931   0.330   0.660  38.445 -0.5072 -0.3599  0.2446
 4147TIP3    H133932   0.405   0.690  38.394 -0.7390  0.6980  0.5053
 4147TIP3    H233933   0.368   0.599  38.509  0.0421 -0.3056 -0.0214
 4148TIP3   OH233934   2.024   0.234 107.516 -0.5285  0.1090  0.1880
 4148TIP3    H133935   2.058   0.291 107.446  1.1817  1.1311  1.7760
 4148TIP3    H233936   1.962   0.177 107.471 -0.1569  1.3038 -2.0176
 4149TIP3   OH233937   0.621   1.045  94.333 -0.2737  0.3439 -0.3951
 4149TIP3    H133938   0.645   1.134  94.309  0.2376  0.5987  1.0068
 4149TIP3    H233939   0.525   1.047  94.341 -0.1108  1.4011  1.9331
 4150TIP3   OH233940   0.839   2.049  52.205 -0.1036 -0.1385 -1.1360
 4150TIP3    H133941   0.817   2.083  52.118  0.3475  0.0642 -1.1786
 4150TIP3    H233942   0.933   2.028  52.199  0.4072  1.6522 -0.1605
 4151TIP3   OH233943   2.458   1.394   3.982 -0.0544 -0.5027  0.0704
 4151TIP3    H133944   2.551   1.404   3.962 -0.1893 -1.1492 -1.0049
 4151TIP3    H233945   2.439   1.462   4.047  1.1874 -0.4513  0.3953
 4152TIP3   OH233946   2.599   0.215 111.071 -0.3276  0.2506  0.4506
 4152TIP3    H133947   2.610   0.304 111.104 -2.1274  0.9155 -0.6106
 4152TIP3    H233948   2.540   0.223 110.996 -0.6956 -1.8504  0.4240
 4153TIP3   OH233949   0.381   2.253 101.380  0.6299  0.2216  0.0494
 4153TIP3    H133950   0.371   2.205 101.298  2.5571 -1.5135  0.7594
 4153TIP3    H233951   0.293   2.287 101.398 -0.1565 -0.5642 -1.9702
 4154TIP3   OH233952   1.029   0.300  17.013 -0.2649  0.0208 -0.3506
 4154TIP3    H133953   1.089   0.225  17.014 -0.2127  0.0629 -0.0593
 4154TIP3    H233954   1.081   0.373  16.980  0.0130  0.1894  0.4282
 4155TIP3   OH233955   2.140   1.644  32.088 -0.6896  0.7640  0.2648
 4155TIP3    H133956   2.139   1.575  32.154 -0.3955  1.2034  0.7380
 4155TIP3    H233957   2.105   1.603  32.009  2.0362 -0.7624 -0.2774
 4156TIP3   OH233958   0.021   1.634  84.936  0.0764 -0.3314  0.0819
 4156TIP3    H133959   0.023   1.571  84.864 -0.7060 -0.2260 -0.0352
 4156TIP3    H233960  -0.020   1.712  84.899 -0.0190 -0.1575  0.5427
 4157TIP3   OH233961   1.916   1.343  20.553  0.7877 -0.6900  0.8486
 4157TIP3    H133962   1.865   1.370  20.630 -0.9183 -0.2561 -0.3566
 4157TIP3    H233963   1.852   1.298  20.498  1.8582 -0.5772 -0.5107
 4158TIP3   OH233964   0.208   0.471   7.156 -0.3689  0.6787 -0.5878
 4158TIP3    H133965   0.238   0.410   7.222 -0.4120  0.3442 -0.8713
 4158TIP3    H233966   0.282   0.481   7.096 -0.8184 -0.2015 -1.3257
 4159TIP3   OH233967   2.112   2.257  90.001 -0.4032 -0.0024  0.2286
 4159TIP3    H133968   2.080   2.344  89.976 -0.9351  0.7207  3.0675
 4159TIP3    H233969   2.037   2.216  90.044  0.2231 -1.4124  0.0263
 4160TIP3   OH233970   2.104   0.430  98.866  0.1830 -0.0671 -0.5644
 4160TIP3    H133971   2.180   0.387  98.905 -1.4488 -1.7792  0.8796
 4160TIP3    H233972   2.081   0.375  98.791  1.3717  1.4341 -2.0989
 4161TIP3   OH233973   0.249   1.210  27.623  0.4672 -0.5231  0.2871
 4161TIP3    H133974   0.233   1.190  27.531  0.2279 -1.1787  0.4670
 4161TIP3    H233975   0.179   1.271  27.646  1.3205  0.7348 -0.3162
 4162TIP3   OH233976   0.508   0.835 103.788 -0.0329 -0.5862  0.0481
 4162TIP3    H133977   0.576   0.869 103.729 -0.9917  1.0890 -0.1429
 4162TIP3    H233978   0.540   0.748 103.813  1.6373 -0.2977 -0.9096
 4163TIP3   OH233979   1.324   2.635  77.906 -0.1220 -0.0669 -0.3016
 4163TIP3    H133980   1.271   2.679  77.839  1.3993  0.0975 -1.4617
 4163TIP3    H233981   1.405   2.613  77.861  0.3280 -1.4151  1.0791
 4164TIP3   OH233982   2.619   2.443   8.121  0.1329 -0.1580 -0.2506
 4164TIP3    H133983   2.657   2.474   8.203  0.0117 -0.9278  0.0975
 4164TIP3    H233984   2.569   2.518   8.088  1.1181  0.5357 -0.2171
 4165TIP3   OH233985   0.352   0.597   0.503  0.1028  0.1905 -0.3241
 4165TIP3    H133986   0.430   0.545   0.524  0.6627  1.1864  0.1610
 4165TIP3    H233987   0.385   0.664   0.443 -0.0778  1.4211  0.8998
 4166TIP3   OH233988   1.103   2.544  27.715  0.1478  0.1009  0.4612
 4166TIP3    H133989   1.096   2.522  27.622  0.9325  3.3091 -0.4539
 4166TIP3    H233990   1.179   2.600  27.722  1.8478 -2.2369  3.6231
 4167TIP3   OH233991   0.590   0.111  66.897 -0.1665 -0.2670 -0.4705
 4167TIP3    H133992   0.628   0.075  66.817 -1.2474 -0.1156 -1.0714
 4167TIP3    H233993   0.664   0.150  66.944  0.5851 -0.9328 -1.0743
 4168TIP3   OH233994   2.165   2.506 100.023 -0.1708 -0.3147  0.1840
 4168TIP3    H133995   2.102   2.565  99.982  0.7425  1.3405  1.0070
 4168TIP3    H233996   2.116   2.426 100.041 -1.6256  0.3829 -0.5006
 4169TIP3   OH233997   2.396   0.982  29.180 -0.3148 -0.2613  0.5382
 4169TIP3    H133998   2.376   1.075  29.188 -0.8959 -0.1983 -1.2860
 4169TIP3    H233999   2.362   0.943  29.260 -1.1158  0.9342  0.7996
 4170TIP3   OH234000   1.277   1.659   1.295  0.1935  0.2299  0.0007
 4170TIP3    H134001   1.289   1.713   1.216 -2.3401  0.1690 -0.4966
 4170TIP3    H234002   1.268   1.722   1.366 -0.5073  0.4039 -0.2348
 4171TIP3   OH234003   1.651   0.761  20.766  0.0619  0.2739  0.3621
 4171TIP3    H134004   1.616   0.820  20.833 -1.4276  0.5414 -0.6124
 4171TIP3    H234005   1.653   0.675  20.809 -0.3560  0.5386  0.9194
 4172TIP3   OH234006   2.660   1.972  28.047  0.4367  0.2081 -0.0107
 4172TIP3    H134007   2.590   1.997  28.107 -1.1773  0.4949 -1.9181
 4172TIP3    H234008   2.736   2.022  28.076 -0.1038 -0.0975  2.1123
 4173TIP3   OH234009   0.685   0.785   3.146 -0.0779 -0.0838  0.0060
 4173TIP3    H134010   0.756   0.720   3.146 -0.1359 -0.1472 -0.3577
 4173TIP3    H234011   0.712   0.850   3.080 -0.0336  0.2485  0.3462
 4174TIP3   OH234012   1.783   0.870  83.420 -0.1458 -0.2811 -0.0682
 4174TIP3    H134013   1.749   0.804  83.480 -2.1413  0.7387  0.0241
 4174TIP3    H234014   1.793   0.949  83.474 -0.7306  0.3029 -0.7821
 4175TIP3   OH234015   0.703   1.529  36.322  0.0281 -0.7829 -0.8963
 4175TIP3    H134016   0.746   1.494  36.400 -0.7525  0.9822  0.3851
 4175TIP3    H234017   0.774   1.542  36.260  1.1875  0.6295  0.6185
 4176TIP3   OH234018   1.035   2.218  80.720 -0.4197 -0.7359 -0.6000
 4176TIP3    H134019   0.998   2.298  80.755  2.8225  0.9288 -0.6264
 4176TIP3    H234020   1.061   2.167  80.797  1.9753  0.5758 -0.4385
 4177TIP3   OH234021   1.373   2.130 107.410  0.0767  0.6735  0.4071
 4177TIP3    H134022   1.353   2.223 107.406 -2.6327  0.1329 -0.7526
 4177TIP3    H234023   1.438   2.117 107.340 -0.0435  1.5751  0.1112
 4178TIP3   OH234024   0.038   1.851  91.801 -0.2081 -0.5423 -0.6133
 4178TIP3    H134025   0.116   1.847  91.857 -0.7714 -1.5972  0.1417
 4178TIP3    H234026   0.072   1.872  91.714  0.7803  0.2810 -0.0593
 4179TIP3   OH234027   1.706   0.113  87.203  0.3806  0.1895  0.4208
 4179TIP3    H134028   1.645   0.044  87.231  0.6653 -0.6893 -1.0113
 4179TIP3    H234029   1.701   0.112  87.107  0.2933  2.2859  0.3601
 4180TIP3   OH234030   1.830   1.348  75.401 -0.1449 -0.5750 -0.2062
 4180TIP3    H134031   1.905   1.367  75.344 -0.7560 -0.8116 -1.1124
 4180TIP3    H234032   1.869   1.314  75.482  0.8508  1.9045  0.4260
 4181TIP3   OH234033   1.670   1.424  96.140 -0.7230  0.0860  0.1033
 4181TIP3    H134034   1.627   1.486  96.199 -0.9332 -1.1041  1.2250
 4181TIP3    H234035   1.755   1.463  96.122 -0.1252 -0.1375  2.2580
 4182TIP3   OH234036   1.145   1.456   9.323  0.0483  0.1953  0.4471
 4182TIP3    H134037   1.197   1.508   9.384  0.3391 -0.0620  0.4156
 4182TIP3    H234038   1.148   1.505   9.241 -1.1255  1.0435  0.8771
 4183TIP3   OH234039   1.965   1.001  75.876  0.4492 -0.0128  0.4126
 4183TIP3    H134040   1.925   0.944  75.942 -1.9738  1.0311 -0.0476
 4183TIP3    H234041   1.943   1.089  75.904  0.2506  0.4923 -1.2150
 4184TIP3   OH234042   2.683   1.877   6.325 -0.5194  0.1812 -0.3095
 4184TIP3    H134043   2.730   1.796   6.307  0.1102  0.3055  0.6619
 4184TIP3    H234044   2.671   1.877   6.420 -0.9659  0.9884 -0.3514
 4185TIP3   OH234045   0.153   0.352  78.457 -0.6656  0.0136  0.0963
 4185TIP3    H134046   0.132   0.343  78.364 -0.0433 -0.3557 -0.0178
 4185TIP3    H234047   0.164   0.446  78.471  0.9291 -0.0416 -0.6015
 4186TIP3   OH234048   0.760   0.085  98.276 -0.0166  0.2189 -0.7800
 4186TIP3    H134049   0.811   0.132  98.210  0.5988 -0.3429 -0.7145
 4186TIP3    H234050   0.698   0.150  98.309  1.2673  1.1931 -0.2059
 4187TIP3   OH234051   1.790   1.576   0.332  0.1339 -0.0188  0.3976
 4187TIP3    H134052   1.708   1.546   0.294  0.5564 -1.3154  0.4787
 4187TIP3    H234053   1.799   1.526   0.413  0.5707  0.7654  0.8504
 4188TIP3   OH234054   0.308   1.071 102.496 -0.1361  0.3336  0.5313
 4188TIP3    H134055   0.225   1.034 102.527 -0.8574  0.0479 -1.5575
 4188TIP3    H234056   0.375   1.022 102.543 -1.1364 -0.6345  0.9989
 4189TIP3   OH234057   0.283   1.859  96.071 -0.4570  0.1240 -0.1144
 4189TIP3    H134058   0.217   1.891  96.009 -0.1406  0.0830 -0.4737
 4189TIP3    H234059   0.325   1.787  96.025 -0.5196 -0.1926  0.3311
 4190TIP3   OH234060   0.707   0.061  69.163 -0.1587  0.0316  0.4772
 4190TIP3    H134061   0.772   0.100  69.105  0.3541  0.3579  1.2500
 4190TIP3    H234062   0.755   0.044  69.244 -1.5193  2.4389  1.9045
 4191TIP3   OH234063   1.498   2.292  25.146 -0.0922 -0.0951  0.1498
 4191TIP3    H134064   1.410   2.302  25.110  0.2530 -2.0266 -1.3419
 4191TIP3    H234065   1.484   2.264  25.237 -1.0227 -1.0089 -0.2637
 4192TIP3   OH234066   2.075   0.293  29.816 -0.2077  0.7127  0.1206
 4192TIP3    H134067   2.075   0.252  29.903 -1.6722 -0.4570 -0.3894
 4192TIP3    H234068   1.993   0.344  29.815  0.0764  1.1597 -0.3793
 4193TIP3   OH234069   0.291   0.142  80.472 -0.2163 -0.5995  0.1699
 4193TIP3    H134070   0.335   0.226  80.484  0.5236 -0.8023 -1.0017
 4193TIP3    H234071   0.259   0.119  80.560  1.4281 -0.1247  0.9419
 4194TIP3   OH234072   2.304   0.185 106.302  0.0310 -0.6676  0.2852
 4194TIP3    H134073   2.215   0.150 106.313 -0.1362 -0.7723 -1.2823
 4194TIP3    H234074   2.337   0.143 106.223  0.4761  1.3965 -0.6657
 4195TIP3   OH234075   1.182   0.273 105.034 -0.2509 -0.2384 -0.4557
 4195TIP3    H134076   1.170   0.215 104.959 -0.4345  0.5614 -1.0637
 4195TIP3    H234077   1.093   0.286 105.069 -0.1251 -0.8753  0.1072
 4196TIP3   OH234078   0.921   0.297  24.216  0.0024 -0.2619 -0.1700
 4196TIP3    H134079   0.982   0.296  24.289 -0.1900 -1.6024 -0.0163
 4196TIP3    H234080   0.977   0.298  24.138  0.2047  0.7705 -0.0239
 4197TIP3   OH234081   0.249   0.761  36.546 -0.1117  0.0653 -0.5002
 4197TIP3    H134082   0.185   0.809  36.494 -0.2559  0.5474  0.1206
 4197TIP3    H234083   0.256   0.810  36.628  0.5798 -0.3333 -0.3079
 4198TIP3   OH234084   2.108   2.018  33.602  0.3449 -0.3659 -0.0557
 4198TIP3    H134085   2.087   2.052  33.689 -1.4268 -0.7218 -0.2994
 4198TIP3    H234086   2.039   2.054  33.546  0.0291 -2.1024 -0.8366
 4199TIP3   OH234087   0.301   2.300  18.832  0.0190 -0.0261  0.3522
 4199TIP3    H134088   0.363   2.231  18.858 -0.6921 -0.5467  0.7170
 4199TIP3    H234089   0.340   2.381  18.865  0.9656 -0.2197 -0.2593
 4200TIP3   OH234090   1.325   2.353 101.430  0.0561  0.5337  0.1929
 4200TIP3    H134091   1.416   2.382 101.426  0.5644 -1.0648 -0.9524
 4200TIP3    H234092   1.273   2.432 101.418  1.3283  1.1588 -1.4777
 4201TIP3   OH234093   1.885   0.865  95.874  0.2584 -0.2204  0.1516
 4201TIP3    H134094   1.956   0.810  95.907 -1.1209 -1.9408  0.4256
 4201TIP3    H234095   1.876   0.935  95.938  2.4717  0.7762 -0.5273
 4202TIP3   OH234096   1.480   1.712 100.612  0.0092  0.0417  0.0921
 4202TIP3    H134097   1.522   1.792 100.580  2.0747 -0.2910  1.7606
 4202TIP3    H234098   1.424   1.742 100.684 -1.5809  0.2916 -1.1778
 4203TIP3   OH234099   1.799   1.599   2.511  0.2592  0.0504 -0.2785
 4203TIP3    H134100   1.880   1.645   2.533 -0.7337  2.4070 -1.2438
 4203TIP3    H234101   1.773   1.556   2.592  1.4985  0.8180  0.5614
 4204TIP3   OH234102   2.280   1.705  79.129 -0.0508  0.3697 -0.0082
 4204TIP3    H134103   2.246   1.639  79.190 -0.9374  0.8888  0.0846
 4204TIP3    H234104   2.358   1.740  79.172  0.9314 -1.2095 -0.4579
 4205TIP3   OH234105   0.214   0.870  79.803 -0.1481  0.6450 -0.3424
 4205TIP3    H134106   0.224   0.931  79.730  0.7676  1.3848  0.3791
 4205TIP3    H234107   0.272   0.904  79.871  0.1488 -0.8517  0.1980
 4206TIP3   OH234108   1.583   0.423  24.604 -0.3457 -0.3241  0.5661
 4206TIP3    H134109   1.618   0.466  24.682  1.8238 -2.0056  0.6063
 4206TIP3    H234110   1.648   0.439  24.536 -1.2347 -0.5507 -0.3621
 4207TIP3   OH234111   0.059   0.236  23.547 -0.4823  0.3131  0.3159
 4207TIP3    H134112  -0.032   0.252  23.573 -0.4416 -1.5198  1.8107
 4207TIP3    H234113   0.065   0.140  23.541  1.3506  0.4016  0.2090
 4208TIP3   OH234114   2.210   2.596  92.724 -0.4781  0.0930 -0.4716
 4208TIP3    H134115   2.299   2.630  92.715 -0.6630  0.2844 -1.7199
 4208TIP3    H234116   2.221   2.501  92.724 -0.0615  0.0706  1.9738
 4209TIP3   OH234117   0.759   0.235  68.767  0.5390  0.0901  0.5205
 4209TIP3    H134118   0.774   0.319  68.724 -0.3648  0.2402  0.4848
 4209TIP3    H234119   0.785   0.250  68.859 -0.9972  0.8521  0.8528
 4210TIP3   OH234120   0.502   0.191  11.388 -0.4212  0.2059 -0.2504
 4210TIP3    H134121   0.532   0.219  11.302  1.8168  0.0792  0.4230
 4210TIP3    H234122   0.456   0.108  11.372 -0.9246  0.7066 -1.4210
 4211TIP3   OH234123   2.531   2.293  10.120 -0.0777  0.0968  0.4481
 4211TIP3    H134124   2.618   2.333  10.125 -0.9494  1.9976  1.3884
 4211TIP3    H234125   2.541   2.207  10.161  1.1444  0.6639  1.3887
 4212TIP3   OH234126   2.444   2.027  74.657  0.2806 -0.3352 -0.0208
 4212TIP3    H134127   2.527   2.056  74.695 -0.5718  0.3922  1.3494
 4212TIP3    H234128   2.428   2.087  74.584 -0.0495  0.8450  1.0041
 4213TIP3   OH234129   1.626   0.504  79.392 -0.2179  0.5571  0.5481
 4213TIP3    H134130   1.634   0.580  79.335 -1.5544 -0.7604 -1.5399
 4213TIP3    H234131   1.533   0.499  79.413 -0.5493 -1.5520 -1.0313
 4214TIP3   OH234132   2.044   0.630  35.047 -0.1381  0.4350 -0.0100
 4214TIP3    H134133   2.090   0.638  35.131  3.5902  1.3920 -1.9380
 4214TIP3    H234134   2.021   0.537  35.041  1.3369 -0.0560  1.2478
 4215TIP3   OH234135   1.095   2.453  23.840 -0.5173  0.3917 -0.6796
 4215TIP3    H134136   1.169   2.512  23.856  0.5691 -1.7932  4.2044
 4215TIP3    H234137   1.023   2.490  23.890 -0.5682 -0.9279  0.2940
 4216TIP3   OH234138   1.705   1.126  75.239  0.0334  0.5088 -0.8634
 4216TIP3    H134139   1.618   1.086  75.245 -0.0285  0.4231 -2.1527
 4216TIP3    H234140   1.718   1.167  75.324 -1.4822  0.9608 -0.8204
 4217TIP3   OH234141   0.895   1.929 110.669  0.7184 -0.6609 -0.4886
 4217TIP3    H134142   0.871   2.014 110.707  0.1212 -1.3350  0.7177
 4217TIP3    H234143   0.842   1.923 110.590  0.9589  0.1951 -0.7287
 4218TIP3   OH234144   0.363   2.645 103.796 -0.1945 -0.1911 -0.5573
 4218TIP3    H134145   0.304   2.653 103.721 -0.0564  0.2015 -0.6252
 4218TIP3    H234146   0.309   2.605 103.865 -0.6698  0.5435 -0.4846
 4219TIP3   OH234147   2.227   0.393  99.331  0.2994 -0.5728 -0.2760
 4219TIP3    H134148   2.294   0.325  99.319  1.3612  0.4530 -0.3352
 4219TIP3    H234149   2.245   0.457  99.263 -1.2789 -0.6581 -0.8154
 4220TIP3   OH234150   0.652   0.293 106.670  0.2468 -0.1735 -0.0225
 4220TIP3    H134151   0.643   0.199 106.654 -0.5309  0.4097 -3.8087
 4220TIP3    H234152   0.563   0.327 106.664  0.6524  0.9622  0.0863
 4221TIP3   OH234153   0.911   1.852 106.943 -0.0985 -0.1952  0.0531
 4221TIP3    H134154   0.973   1.919 106.970  1.1701 -0.9915 -0.7612
 4221TIP3    H234155   0.908   1.859 106.848 -3.1784  1.4282  0.1397
 4222TIP3   OH234156   2.042   2.682  76.989  0.2404 -0.3941  0.8772
 4222TIP3    H134157   2.120   2.724  76.955 -0.2748  0.3359  0.5692
 4222TIP3    H234158   2.033   2.602  76.936 -0.6067  0.7730 -0.8420
 4223TIP3   OH234159   1.086   0.805  31.074 -0.6231 -1.0545 -0.3029
 4223TIP3    H134160   1.041   0.889  31.064  0.1832 -0.3737  1.3162
 4223TIP3    H234161   1.060   0.774  31.161  0.6525 -1.4940 -0.0540
 4224TIP3   OH234162   0.884   1.523  35.570 -0.0511 -0.9330  0.0834
 4224TIP3    H134163   0.818   1.454  35.563  0.2499 -1.2919  0.7321
 4224TIP3    H234164   0.836   1.597  35.608 -0.9883  0.0850 -2.7871
 4225TIP3   OH234165   2.425   2.389  17.385  0.0020  0.7746 -0.0185
 4225TIP3    H134166   2.451   2.440  17.308  0.9957 -0.8105 -0.7795
 4225TIP3    H234167   2.481   2.312  17.383 -2.3477 -1.0706  0.2862
 4226TIP3   OH234168   2.507   0.553 106.044  0.1108 -0.0781 -0.0569
 4226TIP3    H134169   2.550   0.494 105.982 -0.9351  0.6353 -1.5146
 4226TIP3    H234170   2.495   0.500 106.122  0.3938 -1.3866 -0.8680
 4227TIP3   OH234171   1.652   1.427  77.952 -0.1243 -0.3078 -0.1439
 4227TIP3    H134172   1.723   1.398  77.894 -0.2183  1.7735 -1.4079
 4227TIP3    H234173   1.593   1.352  77.957  1.4009 -1.5658 -0.3040
 4228TIP3   OH234174   2.669   0.262   4.241 -0.4684  0.0431 -0.2973
 4228TIP3    H134175   2.749   0.277   4.290 -0.5991  0.0781 -0.0928
 4228TIP3    H234176   2.698   0.223   4.158 -0.0802  1.6888 -0.9761
 4229TIP3   OH234177   0.484   2.640   4.845 -0.8140 -0.2885  0.4827
 4229TIP3    H134178   0.448   2.723   4.812  0.5930 -0.0971 -0.6849
 4229TIP3    H234179   0.547   2.666   4.912  1.0727 -0.2330 -1.2359
 4230TIP3   OH234180   0.637   2.682  26.020  0.0951  0.2023  0.7751
 4230TIP3    H134181   0.724   2.660  26.053  0.3940 -0.8308 -0.6298
 4230TIP3    H234182   0.640   2.659  25.927 -1.3701  1.0745  0.4844
 4231TIP3   OH234183   1.425   0.919 102.534  0.0237 -0.3965 -0.0504
 4231TIP3    H134184   1.492   0.851 102.534 -0.2296 -0.7096 -2.2222
 4231TIP3    H234185   1.371   0.899 102.457  0.2202  2.5095 -1.0360
 4232TIP3   OH234186   0.023   0.745  23.260  0.3472  0.3762  0.4411
 4232TIP3    H134187  -0.016   0.778  23.179 -1.3850  0.4740  1.2502
 4232TIP3    H234188   0.072   0.667  23.234  0.7975  1.0666 -0.8506
 4233TIP3   OH234189   2.144   1.948  14.094  0.1115 -0.0283  0.1689
 4233TIP3    H134190   2.094   2.010  14.040  0.9611  0.8746  0.3908
 4233TIP3    H234191   2.113   1.965  14.183 -0.5948 -0.8517  0.0956
 4234TIP3   OH234192   1.055   1.966  12.125 -0.6225  1.0858 -0.0236
 4234TIP3    H134193   1.076   1.889  12.179 -2.5767  0.5424  0.0776
 4234TIP3    H234194   1.068   1.936  12.035  1.0399  1.4661  0.0614
 4235TIP3   OH234195   0.160   0.565 101.928  0.1446 -0.2122  0.2142
 4235TIP3    H134196   0.138   0.556 101.835 -0.8654  0.7520  0.3432
 4235TIP3    H234197   0.077   0.583 101.971  0.2316 -2.8643  1.6522
 4236TIP3   OH234198   1.103   0.168 112.057 -0.0052 -0.0940 -0.4112
 4236TIP3    H134199   1.123   0.076 112.074 -2.3102 -0.2064  2.4496
 4236TIP3    H234200   1.010   0.176 112.078 -0.1533  2.6801 -1.7706
 4237TIP3   OH234201   0.083   1.650  82.534 -0.5030 -0.2337 -0.4398
 4237TIP3    H134202   0.144   1.648  82.460 -1.2086  0.0445 -1.0508
 4237TIP3    H234203   0.016   1.585  82.511  0.4628 -1.8178  1.0448
 4238TIP3   OH234204   0.206   2.531  75.439  0.4203 -0.3676  0.4197
 4238TIP3    H134205   0.288   2.575  75.461  0.4184  0.0857 -0.4213
 4238TIP3    H234206   0.199   2.541  75.344 -0.9453  0.2109  0.5623
 4239TIP3   OH234207   0.276   0.178   3.283  0.0346  0.8070 -0.1815
 4239TIP3    H134208   0.275   0.152   3.191 -1.7185  1.3234 -0.3443
 4239TIP3    H234209   0.291   0.097   3.331  2.3773  0.7301 -0.9280
 4240TIP3   OH234210   0.796   1.307  14.601 -0.1200 -0.5075  0.0889
 4240TIP3    H134211   0.783   1.283  14.693  0.4984  0.9098  0.5745
 4240TIP3    H234212   0.707   1.311  14.565 -0.5658  1.1313  1.2354
 4241TIP3   OH234213   0.159   1.746  34.016 -0.1314 -0.0737 -0.5947
 4241TIP3    H134214   0.097   1.713  34.080  0.3500 -0.7033 -0.4460
 4241TIP3    H234215   0.129   1.709  33.933 -0.7728  0.7668 -0.7532
 4242TIP3   OH234216   2.228   1.231  74.584 -0.0358  0.0885 -0.2446
 4242TIP3    H134217   2.283   1.277  74.521  2.7180 -1.3403  0.9472
 4242TIP3    H234218   2.289   1.188  74.643 -2.4326 -2.5372  0.5830
 4243TIP3   OH234219   2.422   1.870   6.196 -0.5613 -0.0411  0.3935
 4243TIP3    H134220   2.506   1.875   6.242 -0.3220 -0.9137  0.0719
 4243TIP3    H234221   2.438   1.912   6.112 -0.6238  0.3458  0.5720
 4244TIP3   OH234222   1.069   2.683 111.712  0.2533 -0.9090 -0.2653
 4244TIP3    H134223   1.156   2.692 111.752  0.5904 -1.1841 -0.9162
 4244TIP3    H234224   1.074   2.601 111.663 -0.1857 -0.6356 -0.7772
 4245TIP3   OH234225   2.004   1.554  23.402 -0.2181  0.0194 -0.3296
 4245TIP3    H134226   2.065   1.532  23.472 -0.6383 -1.0975 -0.2917
 4245TIP3    H234227   1.918   1.553  23.443 -0.5503 -1.3568 -0.9640
 4246TIP3   OH234228   0.016   2.216 103.119 -0.1272  0.3833 -0.1233
 4246TIP3    H134229  -0.000   2.296 103.070  0.5080  0.3587 -0.3755
 4246TIP3    H234230   0.101   2.185 103.088  0.0624  0.1117  0.6491
 4247TIP3   OH234231   1.460   0.285  99.159 -0.4502  0.0775 -0.0971
 4247TIP3    H134232   1.508   0.204  99.180  3.4610  2.2317  0.2672
 4247TIP3    H234233   1.401   0.297  99.233 -2.2009 -3.0453 -0.8236
 4248TIP3   OH234234   0.991   1.495  83.651  0.2971 -0.1635  0.4606
 4248TIP3    H134235   0.905   1.529  83.626 -0.2641 -1.3736  0.6491
 4248TIP3    H234236   1.045   1.573  83.664 -0.2307  0.5913 -1.4826
 4249TIP3   OH234237   2.223   0.866  83.519 -0.1127  0.7116 -0.0271
 4249TIP3    H134238   2.239   0.884  83.426 -0.3025  0.2916 -0.1432
 4249TIP3    H234239   2.310   0.845  83.554 -0.2557 -0.7921 -0.4897
 4250TIP3   OH234240   0.611   0.416 109.876 -0.4670  0.7007  0.1421
 4250TIP3    H134241   0.640   0.330 109.906 -0.3714 -0.0149 -1.9223
 4250TIP3    H234242   0.690   0.470 109.879 -0.2496  0.3810  0.2211
 4251TIP3   OH234243   0.133   0.715  29.378  0.2628 -0.3285 -0.1564
 4251TIP3    H134244   0.043   0.692  29.355  0.6468 -1.6904 -0.3423
 4251TIP3    H234245   0.123   0.773  29.454 -0.7134 -1.9762  1.0401
 4252TIP3   OH234246   0.235   2.107   7.937  1.1857  0.2584 -0.8539
 4252TIP3    H134247   0.172   2.035   7.946  0.6627  0.5216 -2.2017
 4252TIP3    H234248   0.301   2.074   7.878  2.3551 -0.0068  0.5429
 4253TIP3   OH234249   1.776   1.274   2.320 -0.4679 -0.2711 -0.3199
 4253TIP3    H134250   1.683   1.280   2.345 -0.6309 -1.1643 -0.6568
 4253TIP3    H234251   1.823   1.272   2.403 -0.8230 -0.6971 -0.1233
 4254TIP3   OH234252   1.354   2.521  52.509 -0.2453 -0.1744  0.0870
 4254TIP3    H134253   1.420   2.484  52.569 -1.8507  1.0663  2.7690
 4254TIP3    H234254   1.382   2.611  52.495 -0.0414 -0.3718 -0.8650
 4255TIP3   OH234255   0.433   0.211  36.672  0.2560 -0.6006  0.0701
 4255TIP3    H134256   0.344   0.212  36.636 -0.1997 -0.0915  1.1412
 4255TIP3    H234257   0.470   0.296  36.648  1.4598 -1.7844 -2.6445
 4256TIP3   OH234258   0.407   0.209  96.578  0.1140 -0.0364  0.5797
 4256TIP3    H134259   0.398   0.188  96.671 -0.4371 -1.1489  0.2941
 4256TIP3    H234260   0.321   0.240  96.551 -0.3485 -1.7246 -0.0184
 4257TIP3   OH234261   1.050   1.518  11.499 -0.1916 -0.4404  0.4119
 4257TIP3    H134262   0.991   1.593  11.490 -2.1289 -1.6199  2.3259
 4257TIP3    H234263   1.133   1.556  11.527 -1.0977  1.0199  1.2543
 4258TIP3   OH234264   2.211   2.373  29.690  0.4867  0.5337  0.2575
 4258TIP3    H134265   2.301   2.396  29.713  0.6233  0.5033 -0.2536
 4258TIP3    H234266   2.168   2.361  29.775  1.0005  0.3896  0.5027
 4259TIP3   OH234267   0.959   1.544  87.653  0.3106  0.0132  0.1517
 4259TIP3    H134268   0.925   1.472  87.706  0.8621 -0.8778 -0.6880
 4259TIP3    H234269   1.003   1.502  87.579 -0.1924  1.2150 -0.8807
 4260TIP3   OH234270   2.015   1.256  77.259  0.1792 -0.4435  0.1192
 4260TIP3    H134271   2.024   1.180  77.317  1.2012 -1.8392 -1.7590
 4260TIP3    H234272   1.923   1.254  77.231  0.1445 -0.8496  0.2634
 4261TIP3   OH234273   1.105   1.589 108.441 -0.2201  0.1919  0.2322
 4261TIP3    H134274   1.115   1.494 108.437 -1.4133  0.0668 -0.2964
 4261TIP3    H234275   1.011   1.602 108.456 -0.3276  1.3087 -1.2437
 4262TIP3   OH234276   0.445   2.166  85.004 -0.2784  0.2949  0.2863
 4262TIP3    H134277   0.464   2.217  85.083  2.0992 -0.4514  0.2627
 4262TIP3    H234278   0.460   2.075  85.030  0.2986  0.0178 -0.9512
 4263TIP3   OH234279   0.706   0.810   7.347  0.0849  0.3372  0.2153
 4263TIP3    H134280   0.737   0.723   7.322 -1.0913  0.1426 -0.5774
 4263TIP3    H234281   0.787   0.859   7.365  1.0359  0.3427 -3.4052
 4264TIP3   OH234282   2.104   1.329  15.860 -0.3620 -0.0619 -0.1629
 4264TIP3    H134283   2.065   1.261  15.806  0.4017  0.6622 -1.6881
 4264TIP3    H234284   2.198   1.313  15.854 -0.1067  1.6357 -1.3216
 4265TIP3   OH234285   1.763   0.337  80.720  0.6272  0.4643  0.1198
 4265TIP3    H134286   1.720   0.416  80.755  1.3054  0.4000  1.1498
 4265TIP3    H234287   1.772   0.279  80.796  0.4423 -0.4758 -0.5615
 4266TIP3   OH234288   0.521   0.478  74.790  0.3179 -0.6136  0.0300
 4266TIP3    H134289   0.560   0.531  74.721  2.2058 -2.6963 -0.5984
 4266TIP3    H234290   0.543   0.525  74.871 -1.3347  1.4851 -0.6295
 4267TIP3   OH234291   2.539   0.222  80.196 -0.5279 -0.1479  0.4742
 4267TIP3    H134292   2.517   0.203  80.105 -0.0562  0.0578  0.3128
 4267TIP3    H234293   2.634   0.232  80.196 -0.3974 -1.2415  1.1852
 4268TIP3   OH234294   0.904   1.696  84.700 -0.2315 -0.4165 -0.2257
 4268TIP3    H134295   0.883   1.709  84.607  0.2561 -0.6311 -0.3648
 4268TIP3    H234296   0.825   1.725  84.746 -1.5207 -2.7651 -0.8016
 4269TIP3   OH234297   2.639   1.003  79.486  0.6348  0.0330 -0.2591
 4269TIP3    H134298   2.661   0.927  79.539  1.4033 -0.2286 -0.9352
 4269TIP3    H234299   2.629   1.075  79.549 -0.8766 -0.7600  0.4782
 4270TIP3   OH234300   0.447   2.109  11.769 -0.4743  0.0057 -0.3529
 4270TIP3    H134301   0.501   2.164  11.712 -0.8713  0.2225 -0.5221
 4270TIP3    H234302   0.424   2.165  11.842 -0.9027  0.0798 -0.5395
 4271TIP3   OH234303   2.051   2.356   0.742  0.0177  0.6953  0.2941
 4271TIP3    H134304   2.015   2.442   0.721 -3.3099 -0.8224 -0.9792
 4271TIP3    H234305   2.077   2.320   0.657  0.1506 -0.0458  0.6433
 4272TIP3   OH234306   0.012   2.107 100.239 -0.0652  0.6456 -0.3872
 4272TIP3    H134307   0.106   2.089 100.231 -0.1278 -0.4440  0.9402
 4272TIP3    H234308   0.001   2.139 100.329 -1.0458  0.0612 -0.2764
 4273TIP3   OH234309   1.261   1.322  97.765  0.0638  0.5728 -0.6255
 4273TIP3    H134310   1.286   1.331  97.857 -0.2713 -0.5225 -0.4165
 4273TIP3    H234311   1.297   1.238  97.738 -0.7811  0.3837 -1.1870
 4274TIP3   OH234312   0.074   1.301  19.757 -0.3506 -0.2390 -0.1536
 4274TIP3    H134313   0.110   1.295  19.846  1.4874 -2.4697 -0.9484
 4274TIP3    H234314   0.109   1.383  19.722  1.2141 -0.6841  0.2853
 4275TIP3   OH234315   1.151   1.220  13.270 -0.1349  0.2689 -0.2162
 4275TIP3    H134316   1.109   1.179  13.346 -1.3032  0.4598 -0.7461
 4275TIP3    H234317   1.186   1.146  13.220  0.2749  0.1164  0.2881
 4276TIP3   OH234318   1.005   2.664  20.339  0.6836 -0.6263 -0.4121
 4276TIP3    H134319   0.931   2.721  20.320 -0.0626 -1.7373 -0.9081
 4276TIP3    H234320   1.012   2.665  20.435  0.9994  0.6658 -0.4299
 4277TIP3   OH234321   2.135   2.655  95.713  0.4787  0.0796  0.0033
 4277TIP3    H134322   2.158   2.600  95.788  0.5854 -0.8941 -0.7141
 4277TIP3    H234323   2.086   2.597  95.655  1.4134  0.4621 -1.2129
 4278TIP3   OH234324   2.416   0.627  60.057  0.1564  0.0919 -0.1942
 4278TIP3    H134325   2.380   0.600  60.142 -2.3934  0.2071 -1.1593
 4278TIP3    H234326   2.489   0.566  60.042 -0.9870 -1.6625  0.9090
 4279TIP3   OH234327   1.524   0.918  30.396  0.2466 -0.4213 -0.2188
 4279TIP3    H134328   1.528   1.011  30.420 -0.6959 -0.4414  0.0573
 4279TIP3    H234329   1.588   0.909  30.326  0.0365  0.5427 -0.5549
 4280TIP3   OH234330   0.819   0.267  23.655 -0.4574 -0.4430  0.2832
 4280TIP3    H134331   0.725   0.252  23.651 -0.5821  0.4401 -0.4173
 4280TIP3    H234332   0.829   0.362  23.649  0.5258 -0.5855 -0.8972
 4281TIP3   OH234333   0.521   0.232  78.196  0.4573 -0.2183  0.3600
 4281TIP3    H134334   0.539   0.138  78.192 -0.3896 -0.3462 -0.6572
 4281TIP3    H234335   0.518   0.252  78.290 -1.3334 -1.6061  0.6515
 4282TIP3   OH234336   2.235   1.627  87.613 -0.0725  0.2194 -0.8267
 4282TIP3    H134337   2.280   1.570  87.550  0.6953 -0.6151  0.4201
 4282TIP3    H234338   2.302   1.647  87.678 -0.7305  1.4214 -0.5042
 4283TIP3   OH234339   1.688   0.708   2.038 -0.0294 -0.6363  0.3396
 4283TIP3    H134340   1.758   0.670   1.986  1.4146  1.2793  0.7459
 4283TIP3    H234341   1.680   0.650   2.114  0.4392 -1.4237 -0.2044
 4284TIP3   OH234342   1.233   0.219  79.675  0.3069  0.0710  0.1871
 4284TIP3    H134343   1.278   0.136  79.690 -0.4925 -0.7830 -1.7452
 4284TIP3    H234344   1.154   0.195  79.627 -0.2582  1.9101  0.1062
 4285TIP3   OH234345   1.934   0.867  15.865  0.3116  0.5225  0.0287
 4285TIP3    H134346   1.840   0.850  15.859  0.4615 -1.1761  1.6711
 4285TIP3    H234347   1.969   0.840  15.780 -0.4481 -0.7877  0.1013
 4286TIP3   OH234348   1.872   1.998  13.534  0.9037  0.1601 -0.0209
 4286TIP3    H134349   1.800   2.032  13.481  0.2998  0.0278  0.6909
 4286TIP3    H234350   1.883   2.063  13.604  0.2006 -0.7439  0.9556
 4287TIP3   OH234351   1.994   0.763  14.074  0.1664 -0.2289  0.4361
 4287TIP3    H134352   1.901   0.746  14.061  0.6573 -2.0133 -0.9886
 4287TIP3    H234353   2.035   0.742  13.991  1.9714 -0.3975  1.3154
 4288TIP3   OH234354   1.168   0.488  19.744 -0.2112  0.4450  0.1023
 4288TIP3    H134355   1.164   0.511  19.837  0.1391 -2.1681  0.8417
 4288TIP3    H234356   1.079   0.498  19.712 -0.2909  1.5822  0.6470
 4289TIP3   OH234357   1.068   1.669   8.294 -0.0088  0.0182  0.2046
 4289TIP3    H134358   1.021   1.679   8.211 -0.3662 -2.2835  0.0399
 4289TIP3    H234359   1.017   1.604   8.342  1.1630 -0.0076  1.4836
 4290TIP3   OH234360   2.358   1.001 107.114 -0.2927 -0.2155  0.1748
 4290TIP3    H134361   2.447   0.997 107.079 -0.5909 -0.8912 -0.5321
 4290TIP3    H234362   2.340   0.912 107.143 -1.2099 -0.4128 -0.9246
 4291TIP3   OH234363   1.481   0.238  33.793  0.2140 -0.4273 -0.2073
 4291TIP3    H134364   1.510   0.325  33.822 -0.4628  0.5204 -2.1823
 4291TIP3    H234365   1.545   0.213  33.726  0.4408 -1.5134  0.3890
 4292TIP3   OH234366   0.305   1.067  82.831  0.0111 -0.3730 -0.0892
 4292TIP3    H134367   0.296   1.161  82.848  1.7691  0.1517 -1.7533
 4292TIP3    H234368   0.279   1.057  82.739  1.3999 -1.2192 -0.4116
 4293TIP3   OH234369   2.680   0.464  75.520 -0.7465 -0.1164 -0.0947
 4293TIP3    H134370   2.595   0.492  75.555 -1.0944 -1.6956  0.4195
 4293TIP3    H234371   2.662   0.378  75.481  0.6745 -0.6202  0.3051
 4294TIP3   OH234372   0.936   0.662  20.362  0.0980 -0.0346  0.2638
 4294TIP3    H134373   0.916   0.622  20.277 -1.2913  1.0647  0.0343
 4294TIP3    H234374   0.974   0.747  20.340  0.7815 -0.2046  0.7525
 4295TIP3   OH234375   0.136   0.358 106.293  0.1207 -0.4138  0.2482
 4295TIP3    H134376   0.196   0.431 106.278  2.1568 -1.9181  0.5758
 4295TIP3    H234377   0.166   0.290 106.233 -2.3268 -0.7173 -0.7397
 4296TIP3   OH234378   1.982   1.017  79.588  0.3870  0.2208  0.2947
 4296TIP3    H134379   2.005   1.039  79.679  0.1203  1.3788  0.1006
 4296TIP3    H234380   1.913   1.079  79.565 -0.3245 -0.7881 -0.3483
 4297TIP3   OH234381   0.970   1.061   4.703  0.2627  0.2518  0.1743
 4297TIP3    H134382   1.034   0.991   4.693 -0.0996 -0.0212 -0.2386
 4297TIP3    H234383   0.983   1.117   4.627  1.1465  1.1354  0.9344
 4298TIP3   OH234384   0.000   0.299  84.604  0.3173  0.5192  0.2616
 4298TIP3    H134385  -0.088   0.263  84.613  0.1726  0.9471  0.5824
 4298TIP3    H234386  -0.006   0.361  84.531  0.0035  1.5743  1.1600
 4299TIP3   OH234387   2.495   0.509  31.307  0.3839 -0.1041  0.0081
 4299TIP3    H134388   2.399   0.511  31.310  0.3930  0.6222  0.0401
 4299TIP3    H234389   2.518   0.548  31.223  0.6890  1.9945  0.9988
 4300TIP3   OH234390   0.977   0.597  76.732 -0.2233  0.6229 -0.3533
 4300TIP3    H134391   0.891   0.555  76.730 -0.7651  1.6815  0.1137
 4300TIP3    H234392   1.025   0.549  76.799 -0.3194 -0.2052 -0.8632
 4301TIP3   OH234393   0.378   2.404  93.653 -0.4513  0.0276 -0.7649
 4301TIP3    H134394   0.314   2.474  93.662 -1.3675 -0.8685 -0.0847
 4301TIP3    H234395   0.444   2.423  93.721  0.0025  0.9297 -1.4403
 4302TIP3   OH234396   2.278   2.483   5.147  0.2231  0.1519  0.0624
 4302TIP3    H134397   2.216   2.413   5.124  1.3751 -0.3611 -1.6901
 4302TIP3    H234398   2.303   2.464   5.238 -0.4972 -0.9246  0.0575
 4303TIP3   OH234399   0.081   0.490  99.195  0.2872  0.2103  0.1629
 4303TIP3    H134400   0.009   0.494  99.259  0.3635  0.4288  0.2384
 4303TIP3    H234401   0.064   0.410  99.145 -0.2602  0.4942 -0.1193
 4304TIP3   OH234402   1.923   0.963  21.437 -0.2949 -0.2795 -0.3493
 4304TIP3    H134403   1.957   1.053  21.446 -0.9003 -0.0526 -0.2996
 4304TIP3    H234404   1.992   0.908  21.474  1.0970 -0.0326 -2.4112
 4305TIP3   OH234405   0.090   1.138  36.200  0.2347 -0.1409  0.0726
 4305TIP3    H134406   0.129   1.186  36.273 -1.6002  2.0473 -0.2522
 4305TIP3    H234407   0.144   1.163  36.124 -0.6558  1.4338 -0.0766
 4306TIP3   OH234408   1.522   2.073  22.229  0.4943  0.2805 -0.8077
 4306TIP3    H134409   1.473   2.108  22.155  1.3613  0.0817 -1.4844
 4306TIP3    H234410   1.515   2.141  22.296 -1.1997  0.0009 -0.6608
 4307TIP3   OH234411   0.409   0.479  19.692  0.3255 -0.6397  0.1108
 4307TIP3    H134412   0.442   0.457  19.779  2.3522 -0.6116 -0.5950
 4307TIP3    H234413   0.464   0.427  19.633 -0.7969 -0.4007 -1.1746
 4308TIP3   OH234414   1.429   1.626  77.996 -0.1272  0.4105 -0.0813
 4308TIP3    H134415   1.505   1.594  77.948 -0.4355 -2.1163  0.9673
 4308TIP3    H234416   1.451   1.612  78.088 -1.5138  0.4420  0.2776
 4309TIP3   OH234417   0.909   0.181  29.388 -0.2414 -0.3666  0.2082
 4309TIP3    H134418   0.909   0.087  29.371  0.3772 -1.0140  3.1310
 4309TIP3    H234419   0.876   0.190  29.478 -0.1661  2.1942  0.0801
 4310TIP3   OH234420   1.964   2.041  19.800  0.4223 -0.3437  0.9848
 4310TIP3    H134421   1.917   2.108  19.750 -1.3689 -1.3869  1.2040
 4310TIP3    H234422   1.900   1.972  19.814  1.8306 -1.5114  1.9612
 4311TIP3   OH234423   1.726   0.572  47.579  0.1305 -0.1208  0.1453
 4311TIP3    H134424   1.812   0.574  47.538  0.0357 -1.0183 -0.1100
 4311TIP3    H234425   1.680   0.500  47.536 -0.5471 -0.0215  0.6813
 4312TIP3   OH234426   0.537   2.247  83.339  0.4002  0.1728  0.6831
 4312TIP3    H134427   0.625   2.210  83.334  0.8066  0.9316  1.7786
 4312TIP3    H234428   0.480   2.172  83.357  0.8487 -0.2925  0.1817
 4313TIP3   OH234429   1.398   1.241  33.321  0.0319 -0.4619 -0.6789
 4313TIP3    H134430   1.342   1.165  33.335 -0.4216 -0.0354 -0.1445
 4313TIP3    H234431   1.475   1.225  33.376 -0.8408  0.2610  0.8242
 4314TIP3   OH234432   1.234   2.294   6.366 -0.4271  0.3025  0.4784
 4314TIP3    H134433   1.255   2.360   6.300  0.5947  1.0521  1.5108
 4314TIP3    H234434   1.193   2.343   6.438  1.7058  0.1208  1.9184
 4315TIP3   OH234435   0.400   2.332  92.058 -0.5671 -0.3751 -0.4111
 4315TIP3    H134436   0.396   2.325  92.154  1.7229  1.0795 -0.1325
 4315TIP3    H234437   0.408   2.241  92.028 -0.9583 -0.8310  0.7820
 4316TIP3   OH234438   1.150   0.708  78.170  0.4168  0.4258  0.0784
 4316TIP3    H134439   1.114   0.737  78.086 -1.3369 -1.1893  0.1920
 4316TIP3    H234440   1.151   0.612  78.164  0.4486  0.2791  1.8105
 4317TIP3   OH234441   2.651   1.629  30.763 -0.2174  0.0711 -0.0478
 4317TIP3    H134442   2.720   1.566  30.743  0.4814  1.6565 -3.2273
 4317TIP3    H234443   2.675   1.665  30.849  1.5394 -1.1499  0.0133
 4318TIP3   OH234444   0.195   2.427  99.515 -0.6170  0.1839 -0.4073
 4318TIP3    H134445   0.188   2.335  99.542 -1.7901  0.7402  1.3494
 4318TIP3    H234446   0.222   2.473  99.594 -0.6223  1.4381 -1.1095
 4319TIP3   OH234447   2.495   2.256 108.436  0.3510 -0.0157 -0.3903
 4319TIP3    H134448   2.586   2.252 108.466  0.3261  0.9508 -0.1616
 4319TIP3    H234449   2.443   2.257 108.517  0.2133  0.9721 -0.4744
 4320TIP3   OH234450   0.887   1.388  97.402 -0.5839 -0.4714  0.2989
 4320TIP3    H134451   0.941   1.326  97.451  0.5517  0.9339  0.8947
 4320TIP3    H234452   0.895   1.470  97.451 -1.5718  0.3081 -0.7961
 4321TIP3   OH234453   1.299   1.006 100.278  0.5505 -0.0317 -0.1877
 4321TIP3    H134454   1.390   0.986 100.258  0.8186  0.6419  0.3371
 4321TIP3    H234455   1.299   1.032 100.370 -0.3451 -1.0879  0.1359
 4322TIP3   OH234456   0.733   0.649 110.658  0.1916 -0.6141 -0.1137
 4322TIP3    H134457   0.805   0.636 110.597 -0.1369  1.7659 -1.1301
 4322TIP3    H234458   0.766   0.711 110.722 -0.2040 -1.3592  0.8401
 4323TIP3   OH234459   0.179   1.245  36.458  0.6011 -0.3187  0.1118
 4323TIP3    H134460   0.115   1.213  36.521  1.9109  0.8270  2.1200
 4323TIP3    H234461   0.151   1.335  36.440  0.5470 -0.4634 -0.5417
 4324TIP3   OH234462   0.406   2.001 102.119  0.3531  0.2185  0.5955
 4324TIP3    H134463   0.496   1.972 102.105  0.0398 -1.1667  1.2482
 4324TIP3    H234464   0.352   1.925 102.095 -0.7226  1.3850 -0.8859
 4325TIP3   OH234465   2.234   2.470   7.318  0.0742  0.5980  0.2336
 4325TIP3    H134466   2.299   2.501   7.381 -0.6885 -1.0891  1.9464
 4325TIP3    H234467   2.239   2.375   7.324  0.1139  0.3733 -2.4678
 4326TIP3   OH234468   0.350   2.263  26.779  0.2295 -0.2409 -0.1428
 4326TIP3    H134469   0.303   2.290  26.700 -1.9878 -2.6104  0.2240
 4326TIP3    H234470   0.405   2.190  26.750  0.5398 -0.1655  0.2481
 4327TIP3   OH234471   1.015   0.205   5.598  0.1053  0.1136 -0.3011
 4327TIP3    H134472   1.006   0.118   5.638  0.9487 -0.8404 -2.0750
 4327TIP3    H234473   0.957   0.261   5.650  0.7458 -1.1355  1.8853
 4328TIP3   OH234474   0.299   1.888  24.703  0.0168  0.5328  0.4399
 4328TIP3    H134475   0.243   1.820  24.741  1.0612 -1.0785 -0.7407
 4328TIP3    H234476   0.340   1.929  24.779 -0.3489 -0.4318  1.1910
 4329TIP3   OH234477   0.772   1.225  22.756  0.0138  0.0289 -0.0510
 4329TIP3    H134478   0.727   1.308  22.767  2.0295  1.0411  1.0994
 4329TIP3    H234479   0.821   1.234  22.674 -0.0667 -0.1959 -0.1270
 4330TIP3   OH234480   0.409   1.400  37.444  0.1374 -0.6714  0.1105
 4330TIP3    H134481   0.454   1.441  37.371  0.0344 -0.9176 -0.0918
 4330TIP3    H234482   0.316   1.419  37.429  0.1899  0.0610  0.6703
 4331TIP3   OH234483   0.362   0.239 100.877 -0.2568 -0.2957 -0.2662
 4331TIP3    H134484   0.361   0.294 100.799  0.9962 -0.2371 -0.2597
 4331TIP3    H234485   0.327   0.155 100.848  0.4816 -0.3663 -0.9694
 4332TIP3   OH234486   0.776   0.518  68.052  0.1845 -0.0193  0.2067
 4332TIP3    H134487   0.795   0.580  67.982 -0.9465  1.4548  1.1588
 4332TIP3    H234488   0.745   0.572  68.124 -2.3305 -1.7912  0.5661
 4333TIP3   OH234489   1.826   1.408  88.437  0.1890  0.0552 -0.4244
 4333TIP3    H134490   1.910   1.362  88.441 -0.7305 -1.6024  2.0376
 4333TIP3    H234491   1.849   1.500  88.451  1.5934 -0.3998  0.4282
 4334TIP3   OH234492   2.068   2.432  33.480  0.1445  0.1067 -0.2107
 4334TIP3    H134493   2.112   2.483  33.547  0.6597 -1.1128  0.4083
 4334TIP3    H234494   2.125   2.356  33.465 -0.6011 -0.3167 -1.0755
 4335TIP3   OH234495   1.064   2.602   9.906  0.5938  0.1691  0.0489
 4335TIP3    H134496   1.072   2.649   9.823 -0.7558 -0.3393 -0.3968
 4335TIP3    H234497   1.127   2.644   9.964  2.3231 -0.1501 -1.5322
 4336TIP3   OH234498   0.192   1.452  74.072  0.2950  0.3550 -0.2177
 4336TIP3    H134499   0.110   1.496  74.053  0.3167  0.6966  0.4535
 4336TIP3    H234500   0.241   1.454  73.990 -0.9221 -1.0916 -1.0433
 4337TIP3   OH234501   1.269   2.233  88.899 -0.5621 -0.0045  0.2490
 4337TIP3    H134502   1.249   2.162  88.837 -0.4776  0.0900  0.1116
 4337TIP3    H234503   1.216   2.307  88.869 -1.1360 -0.1963  0.7616
 4338TIP3   OH234504   0.690   2.055  28.969  0.0091 -0.7569  0.3190
 4338TIP3    H134505   0.724   2.031  29.055 -1.5700 -3.0901  0.3901
 4338TIP3    H234506   0.614   2.111  28.988  0.0560 -0.7253  0.4115
 4339TIP3   OH234507   0.289   1.496  28.376 -0.3617  0.0787  0.0521
 4339TIP3    H134508   0.297   1.522  28.285  0.3289  0.2984  0.1647
 4339TIP3    H234509   0.288   1.400  28.374 -0.7218  0.0866 -0.2068
 4340TIP3   OH234510   2.333   2.591  21.755 -0.4497 -0.1021 -0.1095
 4340TIP3    H134511   2.321   2.636  21.671 -0.1072 -0.2496 -0.2394
 4340TIP3    H234512   2.348   2.500  21.731  3.2191  0.3655 -0.1474
 4341TIP3   OH234513   1.133   1.717  91.954  0.2276  0.2659 -0.3426
 4341TIP3    H134514   1.171   1.715  91.866  0.7838  0.3701 -0.1071
 4341TIP3    H234515   1.198   1.675  92.009 -0.1902  0.0624 -0.0049
 4342TIP3   OH234516   0.249   0.908  66.822  0.4446 -0.1820  0.0335
 4342TIP3    H134517   0.325   0.853  66.801  0.7434 -0.1596  1.0043
 4342TIP3    H234518   0.179   0.845  66.840  0.5362 -0.2288  0.2343
 4343TIP3   OH234519   1.983   2.406   7.814  0.1351 -0.6344 -0.2359
 4343TIP3    H134520   1.952   2.325   7.856  0.3776 -0.1964  0.8173
 4343TIP3    H234521   1.910   2.467   7.824 -0.2544 -0.8620 -1.5037
 4344TIP3   OH234522   2.013   1.019   6.592  0.1307  0.0006  0.5085
 4344TIP3    H134523   2.105   1.013   6.567 -0.5327  0.6261 -2.5583
 4344TIP3    H234524   1.996   1.113   6.597 -0.5984 -0.0753 -0.2766
 4345TIP3   OH234525   1.878   1.867  14.798 -0.6203 -0.4667  0.1416
 4345TIP3    H134526   1.822   1.916  14.857  0.3006  1.3678 -0.4326
 4345TIP3    H234527   1.822   1.845  14.724 -0.7190  0.9234 -0.2104
 4346TIP3   OH234528   1.411   2.616  36.158  0.3004  0.3164 -0.9143
 4346TIP3    H134529   1.489   2.641  36.207  1.8598 -1.7278 -2.1697
 4346TIP3    H234530   1.408   2.521  36.164 -0.0873  0.0465 -3.7278
 4347TIP3   OH234531   1.976   0.348   3.527  0.1048 -0.4303 -0.1982
 4347TIP3    H134532   1.898   0.293   3.540  0.3101 -0.4995  0.8718
 4347TIP3    H234533   2.033   0.296   3.470 -0.1861 -0.8355 -0.1259
 4348TIP3   OH234534   0.581   0.172 105.231 -0.0678 -0.2078 -0.4505
 4348TIP3    H134535   0.599   0.078 105.234 -2.2301 -0.6770 -0.5262
 4348TIP3    H234536   0.529   0.188 105.310  1.1797  1.1588  0.1280
 4349TIP3   OH234537   1.518   2.195  16.728 -0.3691 -0.4070  0.6187
 4349TIP3    H134538   1.549   2.145  16.803  2.6153 -0.3542 -0.4697
 4349TIP3    H234539   1.573   2.167  16.655 -1.7932  1.0329 -1.1309
 4350TIP3   OH234540   1.747   0.894  48.851 -0.2098  0.1732  0.2367
 4350TIP3    H134541   1.840   0.897  48.827 -0.1057 -0.9613  0.4697
 4350TIP3    H234542   1.701   0.915  48.770  0.2408  0.5509  0.0741
 4351TIP3   OH234543   2.129   0.100   1.863  0.0064 -0.3136 -0.0670
 4351TIP3    H134544   2.069   0.030   1.836 -1.3999  0.5143  0.8277
 4351TIP3    H234545   2.093   0.179   1.822  1.0781  0.0425 -0.3470
 4352TIP3   OH234546   0.735   2.296  12.933 -0.1418  0.0814  0.0901
 4352TIP3    H134547   0.742   2.345  12.851 -1.6746  1.1836  0.5941
 4352TIP3    H234548   0.657   2.241  12.921  0.3589 -0.7131  0.3515
 4353TIP3   OH234549   1.192   0.566  15.778 -0.5562  0.0889  0.5407
 4353TIP3    H134550   1.180   0.608  15.863 -3.1535 -1.5025  1.0947
 4353TIP3    H234551   1.137   0.616  15.718 -0.1326  0.1433  0.1926
 4354TIP3   OH234552   2.620   1.233 110.164 -0.0085  0.0764 -0.2722
 4354TIP3    H134553   2.658   1.320 110.171 -2.0864  0.8941  2.2666
 4354TIP3    H234554   2.538   1.246 110.116 -0.2413 -0.4967 -0.0359
 4355TIP3   OH234555   0.451   2.507  35.676  0.5409  0.3156 -0.0492
 4355TIP3    H134556   0.489   2.421  35.691  2.7556  0.7932 -2.3113
 4355TIP3    H234557   0.408   2.529  35.759  2.5828 -1.6295  1.6537
 4356TIP3   OH234558   2.087   2.556  41.101 -0.0564 -0.1570  0.2570
 4356TIP3    H134559   2.137   2.484  41.140  0.2075 -0.1224 -0.0098
 4356TIP3    H234560   2.018   2.576  41.165 -1.2749 -1.8671 -0.4617
 4357TIP3   OH234561   0.869   1.392  13.696  0.2757 -0.4256  0.2177
 4357TIP3    H134562   0.859   1.411  13.789 -1.1682 -1.7548  0.3736
 4357TIP3    H234563   0.791   1.429  13.656  0.5604 -0.4614 -0.3786
 4358TIP3   OH234564   1.560   1.039  58.513 -0.0984  0.1118 -0.6915
 4358TIP3    H134565   1.545   1.131  58.492  0.0551  0.3618  0.2546
 4358TIP3    H234566   1.643   1.039  58.561 -1.7450 -0.0219  2.4497
 4359TIP3   OH234567   1.506   0.647  12.009  0.0086 -0.3188  0.0127
 4359TIP3    H134568   1.454   0.643  12.090  1.1489  0.0991  0.7962
 4359TIP3    H234569   1.533   0.556  11.994 -1.5000 -0.6767 -0.8178
 4360TIP3   OH234570   1.933   0.547  23.412 -0.1012  0.3133  0.2971
 4360TIP3    H134571   1.915   0.534  23.505 -0.2484  1.3548  0.4247
 4360TIP3    H234572   1.999   0.617  23.410  0.3482 -0.1165 -0.3613
 4361TIP3   OH234573   1.928   0.136  17.592 -0.4699  0.1284 -0.0781
 4361TIP3    H134574   1.978   0.155  17.513 -0.6485  1.2843  0.0737
 4361TIP3    H234575   1.954   0.047  17.616  0.3771  0.1599 -0.8465
 4362TIP3   OH234576   1.668   2.215  23.917 -0.1908  0.0238  0.2396
 4362TIP3    H134577   1.696   2.129  23.950  0.8002  1.1877  2.6886
 4362TIP3    H234578   1.585   2.197  23.874  0.1968 -2.2405  0.2826
 4363TIP3   OH234579   2.532   2.352  98.280 -0.1069 -0.3029 -0.2276
 4363TIP3    H134580   2.444   2.374  98.310 -0.0074  0.5210 -0.5209
 4363TIP3    H234581   2.548   2.265  98.316 -1.0241 -0.4470 -0.1398
 4364TIP3   OH234582   0.833   0.490  95.082 -0.7225  0.1709  0.1106
 4364TIP3    H134583   0.760   0.454  95.032 -0.4028  2.3747 -2.1516
 4364TIP3    H234584   0.909   0.440  95.052 -0.7040  0.7275 -0.8130
 4365TIP3   OH234585   1.014   1.856  26.740 -0.7304 -0.4561 -0.5924
 4365TIP3    H134586   1.089   1.852  26.800 -1.0504 -1.4919 -0.2412
 4365TIP3    H234587   0.937   1.853  26.798 -1.0737  1.3715 -0.8965
 4366TIP3   OH234588   0.937   0.921  27.559 -0.3241  0.0134 -0.1251
 4366TIP3    H134589   0.874   0.926  27.487  0.2969  0.4713 -0.6532
 4366TIP3    H234590   0.977   1.008  27.561 -0.5795  0.1181  1.0094
 4367TIP3   OH234591   0.690   1.766 100.546  0.0112 -0.0311  0.2958
 4367TIP3    H134592   0.771   1.732 100.585  0.9010  0.9500 -0.6147
 4367TIP3    H234593   0.688   1.728 100.459 -0.6049 -0.1739  0.3687
 4368TIP3   OH234594   0.494   0.197  52.330 -0.3167 -0.1685  0.6775
 4368TIP3    H134595   0.571   0.251  52.348  0.1160 -0.5847  0.1121
 4368TIP3    H234596   0.420   0.254  52.351  0.0915  1.1820 -1.2869
 4369TIP3   OH234597   2.278   2.670  34.862 -0.0582  0.2952 -0.1536
 4369TIP3    H134598   2.302   2.705  34.776 -0.6575  0.1439 -0.3867
 4369TIP3    H234599   2.185   2.653  34.855 -0.4022  1.5399  0.9585
 4370TIP3   OH234600   1.480   1.125  51.436 -0.5801  0.2538 -0.1469
 4370TIP3    H134601   1.465   1.188  51.506  1.5534  2.1782 -1.2831
 4370TIP3    H234602   1.479   1.039  51.479  0.4629  1.3536  2.2088
 4371TIP3   OH234603   2.485   0.519  36.217 -0.2010  0.1046  0.1464
 4371TIP3    H134604   2.464   0.467  36.294 -0.2680  0.2406  0.2214
 4371TIP3    H234605   2.401   0.552  36.186 -0.1396  0.3154  0.2038
 4372TIP3   OH234606   0.589   0.214 106.385  0.3428  0.2579 -0.1185
 4372TIP3    H134607   0.572   0.147 106.452 -0.9965  1.0284  0.3526
 4372TIP3    H234608   0.528   0.192 106.314  0.1442  0.7584 -0.1107
 4373TIP3   OH234609   0.121   1.040  78.652 -0.0157 -0.1574  0.1339
 4373TIP3    H134610   0.030   1.068  78.667  0.5685  1.1694  1.4570
 4373TIP3    H234611   0.149   1.003  78.735  0.5569 -0.8784 -0.3717
 4374TIP3   OH234612   0.387   2.665  86.174 -0.3716  0.2498  0.1098
 4374TIP3    H134613   0.342   2.717  86.108  0.1265  1.5779  0.7711
 4374TIP3    H234614   0.425   2.591  86.126  0.5515  1.5348 -1.1944
 4375TIP3   OH234615   1.607   0.408 101.179  0.1909  0.1356 -0.7080
 4375TIP3    H134616   1.524   0.382 101.220  0.8130  0.3543  0.7610
 4375TIP3    H234617   1.600   0.503 101.169  0.3034  0.1743 -0.4494
 4376TIP3   OH234618   0.861   1.024  69.821  0.6854 -0.4507 -0.5781
 4376TIP3    H134619   0.908   0.943  69.844 -0.1050 -0.6106  0.5542
 4376TIP3    H234620   0.930   1.090  69.813  1.1575 -0.7392  0.7745
 4377TIP3   OH234621   2.648   1.931  11.627 -0.3511  0.5034  0.2594
 4377TIP3    H134622   2.734   1.963  11.654 -0.3170  1.4063 -0.8380
 4377TIP3    H234623   2.666   1.850  11.579 -0.2690 -0.1748  1.4111
 4378TIP3   OH234624   0.869   2.392  75.967 -0.5583 -0.1807  1.0304
 4378TIP3    H134625   0.855   2.447  75.890  0.7349 -0.0314  0.8743
 4378TIP3    H234626   0.951   2.425  76.005  0.5290 -2.2795  0.6553
 4379TIP3   OH234627   1.346   1.897  88.977  0.2728 -0.2391 -0.6163
 4379TIP3    H134628   1.317   1.829  89.038  0.9650  1.1003  1.3359
 4379TIP3    H234629   1.270   1.916  88.923 -1.1509  0.0967  1.4057
 4380TIP3   OH234630   1.266   1.193   1.888  0.4236 -0.2123  0.0849
 4380TIP3    H134631   1.240   1.163   1.975  0.7522  2.0807  1.0477
 4380TIP3    H234632   1.312   1.275   1.904  0.6251  0.1985 -2.2620
 4381TIP3   OH234633   2.522   0.821 110.717 -0.4489 -0.3541 -0.0829
 4381TIP3    H134634   2.614   0.806 110.694 -0.3228 -0.2203  0.3305
 4381TIP3    H234635   2.497   0.741 110.765 -0.7472 -0.6884 -0.7804
 4382TIP3   OH234636   0.335   2.223  81.547  0.0687 -0.5021 -0.0868
 4382TIP3    H134637   0.366   2.300  81.499 -1.5447 -0.9222 -1.9447
 4382TIP3    H234638   0.380   2.149  81.505 -1.6046 -0.9051 -1.2765
 4383TIP3   OH234639   1.143   0.879  75.767  0.0037  0.0668  0.4685
 4383TIP3    H134640   1.159   0.908  75.857 -1.7285  0.1206  0.7825
 4383TIP3    H234641   1.218   0.914  75.718  0.9887  0.0193  1.8708
 4384TIP3   OH234642   2.315   0.231  15.859  0.1289 -0.2293 -0.0424
 4384TIP3    H134643   2.319   0.317  15.817 -2.6223  0.0511  0.0474
 4384TIP3    H234644   2.402   0.194  15.848  0.7033  1.5747 -2.2471
 4385TIP3   OH234645   0.981   2.359  83.271 -0.4876  0.2339 -0.0948
 4385TIP3    H134646   0.936   2.283  83.307  1.2167 -0.6028  0.3512
 4385TIP3    H234647   0.972   2.426  83.340  0.0091 -0.3231  0.5152
 4386TIP3   OH234648   0.577   1.415  94.486 -0.1004 -0.5736 -0.1768
 4386TIP3    H134649   0.653   1.389  94.434  0.1432  0.3572 -0.2986
 4386TIP3    H234650   0.612   1.430  94.574 -0.1739 -0.2904 -0.1945
 4387TIP3   OH234651   1.063   1.063  92.410  0.5368  0.3426 -0.1569
 4387TIP3    H134652   1.063   1.149  92.367  0.0230 -0.6626 -2.3451
 4387TIP3    H234653   1.152   1.053  92.443  0.5378  1.8051  0.3757
 4388TIP3   OH234654   2.624   1.330   6.187  0.1738  0.2138 -0.0647
 4388TIP3    H134655   2.587   1.385   6.256 -0.8383 -0.6100  0.0626
 4388TIP3    H234656   2.673   1.391   6.132 -1.1277  1.2949 -0.0775
 4389TIP3   OH234657   1.832   1.420 101.916 -0.0463 -0.1657 -0.0030
 4389TIP3    H134658   1.906   1.391 101.969  0.3127  2.4100  1.0668
 4389TIP3    H234659   1.756   1.379 101.958  0.3649  0.7987  1.7795
 4390TIP3   OH234660   0.407   2.311  16.321  0.4517 -0.2167 -0.2519
 4390TIP3    H134661   0.474   2.261  16.276  1.3444  1.6930 -1.1323
 4390TIP3    H234662   0.424   2.402  16.297 -2.6505  0.3334 -0.7971
 4391TIP3   OH234663   1.455   0.271   9.820 -0.9327  0.2759  0.5180
 4391TIP3    H134664   1.468   0.260   9.914  0.5615 -1.2235  0.1862
 4391TIP3    H234665   1.472   0.364   9.804 -0.6645  0.4344  1.6490
 4392TIP3   OH234666   2.122   0.294  22.671 -0.1444  0.3459 -0.4776
 4392TIP3    H134667   2.179   0.309  22.595 -2.1028 -0.2854 -2.1818
 4392TIP3    H234668   2.157   0.215  22.713  0.9966  0.7249 -0.6999
 4393TIP3   OH234669   0.727   0.938  75.476  0.3692 -0.5109  0.3194
 4393TIP3    H134670   0.633   0.922  75.473  0.1088 -0.2014  3.7034
 4393TIP3    H234671   0.760   0.874  75.539  2.1887  0.3671  0.3134
 4394TIP3   OH234672   2.042   2.277  38.168 -0.6821 -0.0832 -0.0277
 4394TIP3    H134673   2.046   2.185  38.141  1.2169  0.2832 -1.2089
 4394TIP3    H234674   2.131   2.298  38.194 -1.4771  0.9433  2.1027
 4395TIP3   OH234675   2.490   0.036 100.129  0.0199 -0.6022  0.4407
 4395TIP3    H134676   2.433   0.062 100.057  0.4258 -1.5847 -0.2718
 4395TIP3    H234677   2.459  -0.052 100.153 -0.1056 -0.2884  1.4695
 4396TIP3   OH234678   0.663   0.593  94.338 -0.1591  0.0071  0.1235
 4396TIP3    H134679   0.754   0.583  94.366 -0.2914  0.0205  0.5585
 4396TIP3    H234680   0.614   0.531  94.392 -0.0607 -2.0294 -1.9560
 4397TIP3   OH234681   2.257   1.426  28.268  0.1612  0.1160 -0.4072
 4397TIP3    H134682   2.162   1.436  28.259  0.1961  0.0498 -0.9024
 4397TIP3    H234683   2.277   1.345  28.222  0.4783  0.2174 -0.4510
 4398TIP3   OH234684   1.396   2.292  32.011 -0.1519  0.1508  0.0915
 4398TIP3    H134685   1.353   2.375  32.033 -0.4449 -0.5631  2.4380
 4398TIP3    H234686   1.327   2.240  31.969 -0.8630  0.0165  1.3706
 4399TIP3   OH234687   0.075   0.113  20.211 -0.1686 -0.2940 -0.5244
 4399TIP3    H134688  -0.010   0.138  20.247 -0.1606  0.1505 -0.8064
 4399TIP3    H234689   0.088   0.023  20.241 -0.6598 -0.3087 -0.3418
 4400TIP3   OH234690   0.014   0.798 102.861  0.5402 -0.1839 -0.0630
 4400TIP3    H134691  -0.062   0.850 102.887  2.4567  2.0950  1.4432
 4400TIP3    H234692  -0.006   0.709 102.890 -2.7500 -0.4123 -2.4537
 4401TIP3   OH234693   1.120   0.642  81.330  0.0396 -0.1734  0.1221
 4401TIP3    H134694   1.086   0.583  81.262  1.3241 -0.0247 -0.6896
 4401TIP3    H234695   1.053   0.641  81.398 -0.2962 -2.0465 -0.1637
 4402TIP3   OH234696   1.251   1.294  16.448  0.4351  0.0822  0.1407
 4402TIP3    H134697   1.196   1.238  16.393 -0.2815  1.5191 -0.6507
 4402TIP3    H234698   1.224   1.383  16.427  1.0443  0.7269  1.9041
 4403TIP3   OH234699   2.091   1.241  83.208  0.3813  0.5448  0.1577
 4403TIP3    H134700   2.104   1.255  83.302 -0.3364 -0.7342  0.4671
 4403TIP3    H234701   2.176   1.263  83.169  0.9951  0.1626  1.2172
 4404TIP3   OH234702   1.583   0.532  94.194  0.0710 -0.2460  0.0227
 4404TIP3    H134703   1.659   0.491  94.235  1.4628  2.1634  0.0644
 4404TIP3    H234704   1.536   0.573  94.267  0.6989  1.2143 -0.3637
 4405TIP3   OH234705   2.332   2.544  82.553  0.0152  0.2391 -0.0281
 4405TIP3    H134706   2.335   2.632  82.591  0.5741 -0.1270  0.8024
 4405TIP3    H234707   2.246   2.510  82.580 -0.4566  0.7441 -0.8661
 4406TIP3   OH234708   1.549   2.191 107.199  0.9110  0.1458  0.3273
 4406TIP3    H134709   1.551   2.118 107.137 -0.7384 -0.1790  0.6262
 4406TIP3    H234710   1.508   2.262 107.150  0.5417  0.2082  0.7218
 4407TIP3   OH234711   2.476   0.653  58.904  0.0405 -0.2385  0.1490
 4407TIP3    H134712   2.484   0.567  58.864 -1.1575 -0.2034 -0.2158
 4407TIP3    H234713   2.470   0.714  58.831 -0.1413  0.0481  0.3961
 4408TIP3   OH234714   1.848   1.458  99.230 -0.1765  0.1623  0.2101
 4408TIP3    H134715   1.877   1.376  99.270 -1.5372  0.2060  1.3537
 4408TIP3    H234716   1.757   1.467  99.257 -0.2514  1.7195 -0.4676
 4409TIP3   OH234717   1.629   1.075  51.962  0.2025 -0.5890  0.0796
 4409TIP3    H134718   1.704   1.018  51.978  2.0068  2.0826  2.0231
 4409TIP3    H234719   1.622   1.129  52.040 -2.1679  1.0464 -1.1206
 4410TIP3   OH234720   0.128   0.799  12.420 -0.2691 -0.1371 -0.2862
 4410TIP3    H134721   0.182   0.721  12.405 -0.6949 -0.1325 -2.1030
 4410TIP3    H234722   0.046   0.765  12.455  0.5019 -0.2292  1.5458
 4411TIP3   OH234723   2.294   0.413  76.638  0.3967  0.0392  0.1357
 4411TIP3    H134724   2.348   0.491  76.623  1.5038 -0.9647 -1.4717
 4411TIP3    H234725   2.300   0.364  76.557 -2.1719 -0.6446  0.2716
 4412TIP3   OH234726   1.418   0.081  19.348  0.2861 -0.6148 -0.2287
 4412TIP3    H134727   1.480   0.034  19.293 -0.8339 -1.2320 -0.9913
 4412TIP3    H234728   1.333   0.067  19.306 -0.3855  0.1427  0.8363
 4413TIP3   OH234729   1.015   1.172  63.310  0.5928 -1.2619 -0.1543
 4413TIP3    H134730   1.053   1.260  63.320 -1.1153 -0.2997 -1.4368
 4413TIP3    H234731   1.056   1.137  63.231 -1.6764  0.1708 -2.1097
 4414TIP3   OH234732   0.088   0.579  28.548 -0.4897 -0.1073 -0.3689
 4414TIP3    H134733   0.129   0.512  28.602 -0.0476  0.4009 -0.0764
 4414TIP3    H234734   0.059   0.646  28.609  0.1568  0.5476 -0.7614
 4415TIP3   OH234735   0.916   2.492 110.250 -0.2003 -0.0451 -0.0863
 4415TIP3    H134736   0.975   2.424 110.218  0.5004  0.9326 -0.9334
 4415TIP3    H234737   0.971   2.548 110.304 -0.2537  1.0300 -1.1050
 4416TIP3   OH234738   0.615   0.516  37.357  0.1996  0.2953  0.0678
 4416TIP3    H134739   0.604   0.421  37.353 -1.8807  0.4332  0.8355
 4416TIP3    H234740   0.554   0.549  37.291  1.5251  1.1174 -0.7939
 4417TIP3   OH234741   2.190   1.187  94.563 -0.4367  0.3541 -0.1178
 4417TIP3    H134742   2.196   1.126  94.489 -1.0947 -0.6903  0.6555
 4417TIP3    H234743   2.215   1.135  94.639  0.1077  1.3812  0.4237
 4418TIP3   OH234744   1.117   0.961  19.293  0.1670  0.0823  0.0116
 4418TIP3    H134745   1.210   0.964  19.315 -0.4974  1.2867  3.1854
 4418TIP3    H234746   1.096   0.867  19.289  1.5904 -0.2212 -1.5119
 4419TIP3   OH234747   2.489   0.883  96.845 -0.5682 -0.4214  0.1121
 4419TIP3    H134748   2.539   0.882  96.927 -0.5759  0.5364  0.1413
 4419TIP3    H234749   2.553   0.904  96.778 -0.8360  0.4425  0.1045
 4420TIP3   OH234750   1.609   2.390  99.306  0.6597 -0.1215  0.0691
 4420TIP3    H134751   1.683   2.384  99.246  1.3329 -1.5086  0.9812
 4420TIP3    H234752   1.644   2.361  99.390 -0.7489 -0.0754  0.6940
 4421TIP3   OH234753   1.510   2.297  95.322 -0.2605  0.2925 -0.2103
 4421TIP3    H134754   1.445   2.348  95.273  1.6025  2.0677 -0.9782
 4421TIP3    H234755   1.518   2.215  95.273  0.6189  1.5189 -2.2567
 4422TIP3   OH234756   1.626   1.175 103.749  0.4194  0.0650 -0.0518
 4422TIP3    H134757   1.615   1.182 103.844  0.2783  1.6536 -0.1492
 4422TIP3    H234758   1.548   1.130 103.719  0.6498 -0.8209  0.6105
 4423TIP3   OH234759   1.523   1.093  28.586 -0.3101  0.0340  0.3938
 4423TIP3    H134760   1.540   1.076  28.679  0.7894 -0.2244  0.1633
 4423TIP3    H234761   1.603   1.063  28.542 -1.0898 -0.5002 -0.7034
 4424TIP3   OH234762   0.572   2.049   2.477  0.1622 -0.3364 -0.0176
 4424TIP3    H134763   0.544   2.136   2.506  1.9362  0.7332 -1.2359
 4424TIP3    H234764   0.532   2.039   2.390 -0.7497 -1.1476  0.4821
 4425TIP3   OH234765   0.246   0.592  95.996  0.1351  0.0387  0.3682
 4425TIP3    H134766   0.181   0.658  96.019  1.5414  1.6139  0.0358
 4425TIP3    H234767   0.330   0.636  96.009  1.1509 -1.9107  0.7615
 4426TIP3   OH234768   1.240   0.636 105.946  0.2261  0.1099  0.2315
 4426TIP3    H134769   1.194   0.658 106.028  1.1282 -0.2541  0.8534
 4426TIP3    H234770   1.176   0.586 105.895 -0.4060  0.4950  0.6354
 4427TIP3   OH234771   0.928   1.315 103.406  0.8025  0.4755  0.1663
 4427TIP3    H134772   0.865   1.243 103.410 -1.7689  2.4912 -0.8342
 4427TIP3    H234773   0.989   1.290 103.337 -0.1740 -0.6708 -0.3273
 4428TIP3   OH234774   2.299   2.289  12.282  0.2736  0.3805  0.0997
 4428TIP3    H134775   2.374   2.231  12.267  0.5327  0.7938 -0.1917
 4428TIP3    H234776   2.335   2.377  12.275 -0.1771  0.5798  0.2875
 4429TIP3   OH234777   0.125   0.407  29.522 -0.1218  0.3429 -0.3966
 4429TIP3    H134778   0.195   0.466  29.549 -0.2837  0.2373  0.2755
 4429TIP3    H234779   0.134   0.331  29.578 -0.5355  0.1578 -0.5729
 4430TIP3   OH234780   0.821   0.015  86.116  0.8200 -0.3923  0.2470
 4430TIP3    H134781   0.791  -0.064  86.159 -0.7904  0.5121  0.8655
 4430TIP3    H234782   0.821   0.082  86.184 -3.1173  1.4177 -1.2010
 4431TIP3   OH234783   1.367   0.068  97.640 -0.3838 -0.0270  0.2302
 4431TIP3    H134784   1.281   0.105  97.618 -1.6466 -2.4010  0.8884
 4431TIP3    H234785   1.350  -0.024  97.657  2.2069 -0.4171  1.1212
 4432TIP3   OH234786   1.246   2.376  92.506 -0.2188 -0.7075 -0.6868
 4432TIP3    H134787   1.151   2.388  92.498 -0.2050  1.4048  1.2246
 4432TIP3    H234788   1.282   2.456  92.467  0.6001 -0.1422  1.1347
 4433TIP3   OH234789   2.373   2.155  26.037  0.6443  0.8955  0.4109
 4433TIP3    H134790   2.423   2.087  26.081  0.6433  1.5349  1.4336
 4433TIP3    H234791   2.410   2.160  25.949 -0.0800 -1.1781 -0.0718
 4434TIP3   OH234792   2.373   0.427  82.950  0.0476 -0.2116  0.3651
 4434TIP3    H134793   2.409   0.378  82.876 -0.6779  0.7636 -0.6498
 4434TIP3    H234794   2.304   0.481  82.913 -1.7741 -1.2115  2.0698
 4435TIP3   OH234795   1.729   2.685  12.780  0.6177 -0.2883 -0.2850
 4435TIP3    H134796   1.708   2.777  12.793  0.5719 -0.4017  0.4957
 4435TIP3    H234797   1.650   2.638  12.806  0.7180 -0.5607 -0.4608
 4436TIP3   OH234798   2.651   1.963  35.769 -0.0853  0.4891  0.1346
 4436TIP3    H134799   2.608   1.977  35.684  0.0535 -0.2243 -0.0605
 4436TIP3    H234800   2.616   1.879  35.800  2.3833 -1.0143 -0.8315
 4437TIP3   OH234801   2.054   0.717  80.165  0.3515  0.1025 -0.4285
 4437TIP3    H134802   2.006   0.665  80.100  1.3214 -1.9712  0.4231
 4437TIP3    H234803   2.069   0.656  80.238 -1.6551  2.5956  2.3020
 4438TIP3   OH234804   2.014   1.511  26.695 -0.4235 -0.1973  0.4780
 4438TIP3    H134805   2.027   1.593  26.741 -2.5123  0.7565 -0.4832
 4438TIP3    H234806   1.944   1.466  26.743 -0.6818 -0.4686 -0.1280
 4439TIP3   OH234807   0.110   1.968  89.214  0.2854  0.1742  0.0041
 4439TIP3    H134808   0.070   2.032  89.272  1.1251  0.6005  0.1322
 4439TIP3    H234809   0.056   1.968  89.135 -0.4908  0.0637  0.5247
 4440TIP3   OH234810   1.094   0.148  86.694  0.0337  0.0583 -0.1582
 4440TIP3    H134811   1.047   0.103  86.624  1.2180 -1.2349 -0.1613
 4440TIP3    H234812   1.052   0.234  86.699 -2.0758 -0.8921 -0.3902
 4441TIP3   OH234813   2.025   2.126  78.650  0.2227  0.4554 -0.0729
 4441TIP3    H134814   2.027   2.125  78.745 -0.8736  1.4942 -0.0049
 4441TIP3    H234815   2.072   2.206  78.626 -0.1796  0.6086 -0.3600
 4442TIP3   OH234816   1.988   0.960  17.892 -0.2937  0.2819  0.0556
 4442TIP3    H134817   1.942   0.899  17.833  0.6646  0.2348 -0.6659
 4442TIP3    H234818   1.936   0.959  17.972 -0.8122 -0.7907 -0.2682
 4443TIP3   OH234819   0.588   0.556  92.408 -0.1347  0.6696  0.1655
 4443TIP3    H134820   0.641   0.633  92.429 -0.2874  0.3465  1.9415
 4443TIP3    H234821   0.637   0.483  92.446 -0.4129  0.0036 -0.7477
 4444TIP3   OH234822   0.110   2.374  74.533  0.2939  0.4508  0.7114
 4444TIP3    H134823   0.098   2.323  74.613 -0.0359  0.6166  0.7663
 4444TIP3    H234824   0.194   2.344  74.498  0.3725  0.2795  1.0457
 4445TIP3   OH234825   0.632   1.351  21.139 -0.0647 -0.1262 -0.1400
 4445TIP3    H134826   0.609   1.310  21.222  0.4795  1.6355  0.9311
 4445TIP3    H234827   0.684   1.285  21.093  1.3963 -0.4221  1.8329
 4446TIP3   OH234828   0.438   2.519  20.312 -0.0513 -0.0467 -0.1907
 4446TIP3    H134829   0.519   2.550  20.352  0.2726 -0.9530 -0.1168
 4446TIP3    H234830   0.465   2.490  20.225 -0.9134  2.8351 -1.5478
 4447TIP3   OH234831   0.021   1.196  27.905 -0.1349  0.3470 -0.2657
 4447TIP3    H134832  -0.000   1.250  27.981 -2.0190  2.8909 -2.4268
 4447TIP3    H234833   0.111   1.221  27.883  0.0882  0.2961  0.5602
 4448TIP3   OH234834   1.737   2.052  10.028 -0.7883 -0.3259 -0.6631
 4448TIP3    H134835   1.797   1.982  10.004 -1.7199 -0.6782 -2.0866
 4448TIP3    H234836   1.724   2.103   9.947 -2.5689 -0.4180 -0.4883
 4449TIP3   OH234837   2.004   1.314  86.935  0.7166  0.1928 -0.1925
 4449TIP3    H134838   1.973   1.401  86.909 -0.4521 -0.4389 -1.0369
 4449TIP3    H234839   1.968   1.302  87.023  0.4221  0.3518 -0.2857
 4450TIP3   OH234840   0.041   0.693  96.892 -0.6071  0.2828  0.0420
 4450TIP3    H134841   0.088   0.771  96.863 -0.1522  0.1702  0.4851
 4450TIP3    H234842   0.040   0.636  96.815 -0.4362  0.4850 -0.1101
 4451TIP3   OH234843   0.221   0.563  47.793 -0.5730 -0.1015  0.7059
 4451TIP3    H134844   0.234   0.622  47.719 -2.1392  0.8170  1.1184
 4451TIP3    H234845   0.300   0.510  47.796 -0.6682 -0.4731 -1.8891
 4452TIP3   OH234846   1.016   0.946  20.657  0.1300  0.6482 -0.6747
 4452TIP3    H134847   0.997   0.943  20.563 -1.4865 -0.2452 -0.3591
 4452TIP3    H234848   0.952   1.009  20.692 -0.3665 -0.2311  0.0382
 4453TIP3   OH234849   0.973   1.127  93.966 -0.6317  0.1216 -0.3813
 4453TIP3    H134850   0.986   1.098  93.876  1.1665  1.5170 -0.6245
 4453TIP3    H234851   0.918   1.059  94.006  1.9029 -2.7021 -1.3360
 4454TIP3   OH234852   2.666   1.000  48.410 -0.2193 -0.5712  0.6506
 4454TIP3    H134853   2.746   0.975  48.365 -0.0803  1.4798 -0.3546
 4454TIP3    H234854   2.680   1.091  48.437 -1.6452 -0.6345  1.7865
 4455TIP3   OH234855   2.407   2.455  67.039 -0.0240 -0.2182  0.5083
 4455TIP3    H134856   2.474   2.488  66.980 -0.2882  0.6206  0.6584
 4455TIP3    H234857   2.397   2.363  67.015 -1.6153  0.5627 -2.1771
 4456TIP3   OH234858   2.441   0.192  43.431  0.3037 -0.0852  0.3790
 4456TIP3    H134859   2.452   0.218  43.522  1.0915  0.3226  0.1745
 4456TIP3    H234860   2.383   0.116  43.434 -0.3338  0.4252  1.1484
 4457TIP3   OH234861   1.029   1.432  57.553  0.3035  0.0577  0.4257
 4457TIP3    H134862   0.995   1.394  57.472 -0.9138 -0.1466  1.0121
 4457TIP3    H234863   1.072   1.513  57.526  2.5553 -1.4390 -0.8019
 4458TIP3   OH234864   1.115   1.633 103.505  0.5017  0.2587  0.0850
 4458TIP3    H134865   1.107   1.552 103.555 -3.5919 -0.2702 -1.0318
 4458TIP3    H234866   1.161   1.607 103.425  0.8627 -0.5329  0.5347
 4459TIP3   OH234867   2.123   2.353 110.847  0.6805 -0.3344 -0.1424
 4459TIP3    H134868   2.132   2.426 110.786  1.4533 -1.2432 -1.1418
 4459TIP3    H234869   2.196   2.364 110.908  0.4568  0.0424  0.0610
 4460TIP3   OH234870   1.341   0.725  20.341 -0.4051 -0.0288 -0.4955
 4460TIP3    H134871   1.406   0.719  20.411 -0.3057  0.8761 -0.4983
 4460TIP3    H234872   1.354   0.644  20.290 -0.8252 -0.9435  0.8002
 4461TIP3   OH234873   0.008   2.500  85.521 -0.2059  0.3636  0.5776
 4461TIP3    H134874  -0.064   2.438  85.538 -0.9967  1.0342 -0.2223
 4461TIP3    H234875   0.010   2.555  85.599  0.2430 -0.4013  1.1203
 4462TIP3   OH234876   0.582   0.941  16.166  0.1657 -0.3440  0.7742
 4462TIP3    H134877   0.515   1.002  16.198  0.6292 -0.6778  2.4207
 4462TIP3    H234878   0.544   0.906  16.085 -2.0147 -1.0810  2.0326
 4463TIP3   OH234879   2.340   1.813 104.329  0.0284  0.0365  0.3149
 4463TIP3    H134880   2.390   1.751 104.383  1.3544  0.6232 -0.1947
 4463TIP3    H234881   2.389   1.817 104.247 -2.2850 -1.3203 -1.2424
 4464TIP3   OH234882   1.292   1.810 107.135  0.1003  0.0209  0.7829
 4464TIP3    H134883   1.227   1.756 107.089  0.1602  0.2787  0.3916
 4464TIP3    H234884   1.292   1.775 107.224 -1.3357  0.6804  1.0816
 4465TIP3   OH234885   1.833   2.299  17.100  0.2454  0.0841  0.4129
 4465TIP3    H134886   1.892   2.280  17.027  0.8364  0.3433  0.8126
 4465TIP3    H234887   1.892   2.325  17.171 -0.4401  3.4779 -0.0889
 4466TIP3   OH234888   0.565   2.010  75.408 -0.0349  0.4363 -0.1244
 4466TIP3    H134889   0.482   2.025  75.452 -0.7577 -5.1638  1.2069
 4466TIP3    H234890   0.630   2.012  75.478  0.6496  2.1633 -0.7513
 4467TIP3   OH234891   1.669   1.742  75.238 -0.3431  0.1480 -0.3915
 4467TIP3    H134892   1.702   1.826  75.269 -1.1242 -0.1619  1.4454
 4467TIP3    H234893   1.591   1.726  75.291 -0.2766 -1.6817 -0.7715
 4468TIP3   OH234894   0.600   1.301  68.220 -0.3074  0.7446  1.1024
 4468TIP3    H134895   0.652   1.357  68.162  0.2886 -0.6148  0.2904
 4468TIP3    H234896   0.530   1.359  68.251 -3.4719  0.6699 -4.4501
 4469TIP3   OH234897   1.780   0.138  17.144  0.4070 -0.2131  0.2250
 4469TIP3    H134898   1.853   0.152  17.084 -0.0018 -0.5317 -0.3569
 4469TIP3    H234899   1.807   0.064  17.199  0.8947  0.2525  0.6228
 4470TIP3   OH234900   1.470   1.888   9.352 -0.0487 -0.1026  1.0352
 4470TIP3    H134901   1.556   1.852   9.330 -0.8643 -2.4055  1.3775
 4470TIP3    H234902   1.484   1.933   9.436  1.1249  0.9366  0.3157
 4471TIP3   OH234903   2.568   0.133  47.978  0.0428  0.2130 -0.1051
 4471TIP3    H134904   2.524   0.212  48.009  1.3878  1.3446 -0.9603
 4471TIP3    H234905   2.542   0.126  47.886  2.0259  1.2542 -0.8114
 4472TIP3   OH234906   2.619   0.708  80.529  0.3747 -0.4194  0.1120
 4472TIP3    H134907   2.538   0.692  80.576  0.6987 -2.8120 -0.0103
 4472TIP3    H234908   2.631   0.803  80.531 -1.6398 -0.1593  1.3946
 4473TIP3   OH234909   1.682   0.364 102.521 -0.3804 -0.4489 -0.6948
 4473TIP3    H134910   1.774   0.378 102.541 -0.4956 -0.2738 -0.2764
 4473TIP3    H234911   1.679   0.354 102.426 -0.0341  0.3954 -0.7983
 4474TIP3   OH234912   2.507   0.578  90.750  0.0587  0.4169 -0.2853
 4474TIP3    H134913   2.530   0.489  90.723  0.1446  0.1918  0.4844
 4474TIP3    H234914   2.588   0.615  90.784 -0.4308 -0.0204  1.4907
 4475TIP3   OH234915   1.106   2.304  25.385 -0.1550 -0.1123  0.5054
 4475TIP3    H134916   1.197   2.318  25.359 -0.1170 -0.0958  0.6455
 4475TIP3    H234917   1.109   2.225  25.439 -0.3749 -0.7097 -0.3286
 4476TIP3   OH234918   2.502   0.392  48.048 -0.6492 -0.1390  0.4625
 4476TIP3    H134919   2.488   0.444  48.127  1.1406  0.8873  0.1495
 4476TIP3    H234920   2.553   0.448  47.990  0.0774 -1.7052 -0.4933
 4477TIP3   OH234921   2.630   1.640  22.933  0.5045  0.7066  0.5435
 4477TIP3    H134922   2.683   1.565  22.905  0.8707  0.5777  1.5526
 4477TIP3    H234923   2.643   1.705  22.863  0.6337  0.0490 -0.0592
 4478TIP3   OH234924   0.210   1.227  97.129 -0.5722 -0.1494  0.4600
 4478TIP3    H134925   0.134   1.221  97.188 -0.4410 -0.2882  0.6187
 4478TIP3    H234926   0.182   1.288  97.061 -0.7069  0.0574  0.6977
 4479TIP3   OH234927   1.716   0.139 101.253 -0.3477 -0.0227  0.4032
 4479TIP3    H134928   1.807   0.149 101.279 -0.5924 -1.0727  1.7611
 4479TIP3    H234929   1.700   0.213 101.194  1.4394  0.0249 -0.0940
 4480TIP3   OH234930   2.484   0.604  18.322 -0.4214 -0.1676  0.1181
 4480TIP3    H134931   2.498   0.509  18.317 -0.5680 -0.2496  1.0314
 4480TIP3    H234932   2.389   0.613  18.332 -0.3746  0.0478  0.3873
 4481TIP3   OH234933   0.198   2.191  82.886 -0.0451  0.0257  0.0897
 4481TIP3    H134934   0.145   2.265  82.859 -0.4685 -1.1870 -2.9313
 4481TIP3    H234935   0.144   2.114  82.865  1.5080 -1.1647  0.2452
 4482TIP3   OH234936   1.045   1.680  13.972 -0.8013 -0.3133  0.2360
 4482TIP3    H134937   1.103   1.605  13.980  0.4496  0.5215 -0.8122
 4482TIP3    H234938   1.074   1.741  14.040  0.4893  0.6831 -1.1520
 4483TIP3   OH234939   1.646   0.467 106.688  0.1952 -0.3239  0.0642
 4483TIP3    H134940   1.653   0.396 106.751 -0.3825 -0.1149  0.3689
 4483TIP3    H234941   1.722   0.523 106.707 -0.0771 -0.1606  0.7056
 4484TIP3   OH234942   0.187   2.014   5.663 -0.2800 -0.7034 -0.1145
 4484TIP3    H134943   0.259   1.951   5.672  0.6167  0.3821  0.4834
 4484TIP3    H234944   0.216   2.075   5.596 -0.7381 -0.3580 -0.0074
 4485TIP3   OH234945   1.440   2.099  20.233 -0.2649 -0.3596  0.3717
 4485TIP3    H134946   1.512   2.038  20.212 -0.8437 -1.2233  0.8253
 4485TIP3    H234947   1.361   2.053  20.206 -0.6374  0.8133 -0.6199
 4486TIP3   OH234948   1.896   2.396  27.992  0.2189  0.0667  0.0215
 4486TIP3    H134949   1.849   2.427  27.915  1.0001  1.5862  0.1244
 4486TIP3    H234950   1.828   2.372  28.054 -0.4257 -1.3841 -1.1859
 4487TIP3   OH234951   1.973   0.064  98.391 -0.0813  0.3803 -0.2124
 4487TIP3    H134952   1.908   0.097  98.453  0.4949  0.4673  0.3436
 4487TIP3    H234953   1.929  -0.008  98.346 -0.2469 -0.1539  0.7993
 4488TIP3   OH234954   1.728   0.769  75.846 -0.1712  0.0871 -0.1658
 4488TIP3    H134955   1.692   0.851  75.811 -2.5371 -0.2692  1.1988
 4488TIP3    H234956   1.770   0.794  75.928 -0.0414  0.0644 -0.2257
 4489TIP3   OH234957   1.516   2.654  82.905  0.3013 -0.3279  0.2835
 4489TIP3    H134958   1.495   2.732  82.957  0.0864  0.6997 -1.2853
 4489TIP3    H234959   1.445   2.593  82.924 -1.0175  0.8998 -0.4900
 4490TIP3   OH234960   2.098   0.334  85.462  0.0121  0.2151  0.1348
 4490TIP3    H134961   2.043   0.310  85.537 -0.0782  0.4446  0.1417
 4490TIP3    H234962   2.167   0.268  85.461 -0.1593  0.0312  0.2378
 4491TIP3   OH234963   0.641   2.170  12.439 -0.1993  0.1555 -0.0669
 4491TIP3    H134964   0.655   2.264  12.428 -2.0842  0.5771  0.7275
 4491TIP3    H234965   0.621   2.138  12.350 -1.5636  0.9118 -0.0595
 4492TIP3   OH234966   2.451   1.618  69.038  0.4887 -0.3960  0.0698
 4492TIP3    H134967   2.390   1.586  69.104  1.3482 -1.6571  0.2887
 4492TIP3    H234968   2.511   1.676  69.085  0.2632 -0.2038  0.1230
 4493TIP3   OH234969   0.603   1.929   0.008 -0.3050  0.4810 -0.1375
 4493TIP3    H134970   0.669   1.880  -0.041  0.1366 -0.0929  0.9981
 4493TIP3    H234971   0.519   1.898  -0.027 -0.0742 -1.7805  1.1141
 4494TIP3   OH234972   1.268   1.413  86.033 -0.4932  0.3289  0.6482
 4494TIP3    H134973   1.341   1.471  86.057 -0.3600 -0.8250  3.4589
 4494TIP3    H234974   1.264   1.417  85.938  2.1675  1.7034  0.5064
 4495TIP3   OH234975   0.951   0.352   0.361 -0.1645  0.3553 -0.1338
 4495TIP3    H134976   0.912   0.436   0.384  0.4446  0.8078 -0.7138
 4495TIP3    H234977   0.878   0.290   0.366 -0.5822  0.8733  0.4852
 4496TIP3   OH234978   1.103   1.612  30.892 -0.1244 -0.1341 -0.4675
 4496TIP3    H134979   1.100   1.592  30.985 -0.6575  0.4774 -0.3409
 4496TIP3    H234980   1.012   1.629  30.868  0.1150  0.6407 -0.8835
 4497TIP3   OH234981   0.338   0.908  80.568 -0.4436  0.4240 -0.1980
 4497TIP3    H134982   0.342   1.000  80.541 -0.3634  0.2728 -0.7192
 4497TIP3    H234983   0.257   0.876  80.529 -0.5396  0.3113  0.0968
 4498TIP3   OH234984   1.158   2.611  11.351 -0.4388 -0.0905 -0.4229
 4498TIP3    H134985   1.170   2.651  11.265 -0.6706 -1.4207 -1.1121
 4498TIP3    H234986   1.224   2.542  11.354 -1.1672 -0.7931 -0.0258
 4499TIP3   OH234987   2.372   0.361   2.484  0.0557 -0.2408 -0.2528
 4499TIP3    H134988   2.442   0.306   2.517 -0.2453  0.3296  1.4668
 4499TIP3    H234989   2.412   0.448   2.476  0.0059 -0.2848 -0.9771
 4500TIP3   OH234990   1.653   0.410  34.039 -0.7726 -0.0921 -0.6403
 4500TIP3    H134991   1.590   0.410  34.111 -1.2560  0.6141 -1.0548
 4500TIP3    H234992   1.684   0.320  34.033  0.5218  0.1436  1.5334
 4501TIP3   OH234993   0.180   0.279  96.447  0.1922 -0.4927  0.6976
 4501TIP3    H134994   0.097   0.326  96.460  0.1913 -0.4294  0.4700
 4501TIP3    H234995   0.177   0.250  96.356  1.4096  1.4580 -0.0221
 4502TIP3   OH234996   0.731   2.637  93.344  0.1403 -0.1794 -0.0904
 4502TIP3    H134997   0.701   2.554  93.305  0.9931 -0.1408 -0.8801
 4502TIP3    H234998   0.655   2.670  93.392 -0.5264 -0.9349 -0.5880
 4503TIP3   OH234999   2.147   1.868 105.747  0.4563  0.0192 -0.4358
 4503TIP3    H135000   2.108   1.830 105.668 -0.0541  0.4788 -0.4092
 4503TIP3    H235001   2.077   1.864 105.812  1.0102 -0.7641  0.1333
 4504TIP3   OH235002   2.180   2.367  94.912 -0.8823  0.3775  0.0475
 4504TIP3    H135003   2.137   2.302  94.968 -0.8016 -0.8219 -1.2246
 4504TIP3    H235004   2.258   2.323  94.879  0.3009  1.8420  0.7424
 4505TIP3   OH235005   1.462   0.384  99.942 -0.6749 -0.2111 -0.2609
 4505TIP3    H135006   1.539   0.407  99.889  0.4385 -0.9950  0.9783
 4505TIP3    H235007   1.391   0.439  99.906  0.4724  0.6212 -1.3389
 4506TIP3   OH235008   1.774   1.016 108.989  0.2901  0.1746  0.4268
 4506TIP3    H135009   1.772   1.057 109.075  0.3234 -0.5999  0.8079
 4506TIP3    H235010   1.752   0.924 109.006  1.5373 -0.2634 -0.2221
 4507TIP3   OH235011   1.639   2.588  18.487 -0.5024 -0.3875  0.2386
 4507TIP3    H135012   1.608   2.567  18.576 -1.7532 -0.3358 -0.1704
 4507TIP3    H235013   1.630   2.505  18.439 -1.0486 -0.0925 -0.1720
 4508TIP3   OH235014   2.072   0.223 108.107  0.9216  0.1445 -0.4401
 4508TIP3    H135015   2.069   0.135 108.144 -0.2302  0.7286  0.9097
 4508TIP3    H235016   1.987   0.234 108.065  0.8851  0.7796 -0.2015
 4509TIP3   OH235017   0.066   2.678  16.854  0.5972  0.2015  0.0084
 4509TIP3    H135018   0.145   2.661  16.904  0.5006 -2.5139 -0.6105
 4509TIP3    H235019   0.079   2.764  16.816  2.8047  0.2268  0.7174
 4510TIP3   OH235020   0.160   1.321 105.566 -0.5676 -0.3832 -0.2190
 4510TIP3    H135021   0.252   1.304 105.587 -0.5989 -0.1108  0.1596
 4510TIP3    H235022   0.163   1.393 105.503 -0.5107 -0.5939 -0.4588
 4511TIP3   OH235023   0.296   0.283  20.292 -0.3929  0.9112  0.0424
 4511TIP3    H135024   0.269   0.373  20.274 -0.0077  0.9093 -0.5596
 4511TIP3    H235025   0.222   0.230  20.262  0.1536  0.9216 -1.3695
 4512TIP3   OH235026   0.819   0.990  15.883  0.3659 -0.0108 -0.1748
 4512TIP3    H135027   0.734   0.950  15.867 -0.5105  0.8879  1.8502
 4512TIP3    H235028   0.811   1.079  15.848  1.0202 -0.3865 -1.3255
 4513TIP3   OH235029   1.004   1.595   1.592 -0.0080  0.0541  0.2989
 4513TIP3    H135030   1.061   1.519   1.581 -0.1081  0.0316 -0.0604
 4513TIP3    H235031   1.063   1.667   1.616  0.2589  0.1899 -0.7298
 4514TIP3   OH235032   2.250   0.513 107.047 -0.3066  0.7900 -0.2970
 4514TIP3    H135033   2.288   0.538 106.963 -2.0650  0.2822 -1.3045
 4514TIP3    H235034   2.235   0.419 107.039  0.5773  0.5009  1.0694
 4515TIP3   OH235035   0.183   1.158  80.743  1.5052 -0.1135  0.3259
 4515TIP3    H135036   0.259   1.133  80.796  1.4019 -0.3435  0.3665
 4515TIP3    H235037   0.181   1.253  80.748  0.4109 -0.1808  2.2633
 4516TIP3   OH235038   0.526   1.936 105.528 -0.3660 -0.1425 -0.5470
 4516TIP3    H135039   0.526   1.996 105.603  0.2194 -0.8494  0.0415
 4516TIP3    H235040   0.543   1.992 105.452  0.5319  0.4005  0.0354
 4517TIP3   OH235041   1.715   2.214   4.698 -0.2616  0.0967  0.0547
 4517TIP3    H135042   1.792   2.208   4.754 -0.0381  1.0662 -0.1355
 4517TIP3    H235043   1.642   2.194   4.755  0.2550 -3.7703 -0.3352
 4518TIP3   OH235044   0.801   2.533 110.547 -0.1430 -0.0543  0.3231
 4518TIP3    H135045   0.896   2.530 110.534 -0.1668 -0.8883  0.2802
 4518TIP3    H235046   0.786   2.615 110.593  0.6351 -0.0612  0.6038
 4519TIP3   OH235047   0.278   0.105  22.352 -0.6918  0.4008 -0.6172
 4519TIP3    H135048   0.286   0.168  22.423  0.4996  1.3586 -1.5532
 4519TIP3    H235049   0.288   0.019  22.394 -2.2990  0.7880  0.6656
 4520TIP3   OH235050   0.934   0.202 110.247  0.7263 -0.1914  0.3960
 4520TIP3    H135051   0.937   0.125 110.191  1.6710  0.4269 -0.4487
 4520TIP3    H235052   1.006   0.258 110.215 -0.3346  1.3294  0.5460
 4521TIP3   OH235053   1.011   0.317  34.246  0.0165 -0.1308 -0.3527
 4521TIP3    H135054   1.038   0.238  34.291 -1.8268  0.0194  1.1001
 4521TIP3    H235055   0.917   0.309  34.236 -0.0027  1.1584 -1.6750
 4522TIP3   OH235056   0.134   2.426  32.280  0.4436  0.4713  0.1362
 4522TIP3    H135057   0.094   2.455  32.362  0.4462  0.0991  0.2745
 4522TIP3    H235058   0.165   2.337  32.299  0.0935  0.2329 -0.3796
 4523TIP3   OH235059   2.392   2.239  76.368 -0.2589 -0.0270 -0.3891
 4523TIP3    H135060   2.327   2.170  76.352 -2.1233  1.6216 -0.4205
 4523TIP3    H235061   2.351   2.294  76.436  1.0501  1.1657 -0.5242
 4524TIP3   OH235062   2.305   1.586  92.712  0.3277  0.4704 -0.0695
 4524TIP3    H135063   2.281   1.661  92.766  1.7292  0.6720  0.3183
 4524TIP3    H235064   2.290   1.510  92.769  2.0287  0.6977  0.7394
 4525TIP3   OH235065   0.959   2.216  14.951  0.0479 -0.0897  0.5284
 4525TIP3    H135066   0.911   2.210  14.869 -0.1912 -1.3000  0.7360
 4525TIP3    H235067   0.979   2.125  14.974  2.4684  0.3495  0.4334
 4526TIP3   OH235068   2.029   0.105  12.039  0.2100  0.1879 -0.0284
 4526TIP3    H135069   1.949   0.055  12.022 -0.0553  0.0776  1.4622
 4526TIP3    H235070   2.018   0.186  11.988 -0.2905 -0.3452 -0.7940
 4527TIP3   OH235071   1.712   2.607  20.533 -0.7144 -0.1996  0.0906
 4527TIP3    H135072   1.661   2.568  20.463 -1.1490  0.8779 -0.2198
 4527TIP3    H235073   1.797   2.562  20.530 -0.9604 -0.6172 -0.6879
 4528TIP3   OH235074   1.216   0.954  32.940 -0.5944  0.5215  0.0118
 4528TIP3    H135075   1.301   0.993  32.963  0.0616 -1.3035  0.8365
 4528TIP3    H235076   1.152   1.019  32.969  0.4720  1.5275  0.2200
 4529TIP3   OH235077   0.691   0.627   9.431  0.0653 -0.1993 -0.7696
 4529TIP3    H135078   0.645   0.551   9.396 -0.0540  0.2692 -1.6725
 4529TIP3    H235079   0.776   0.593   9.458 -1.5727 -1.6580  3.4184
 4530TIP3   OH235080   2.010   2.312   2.556 -0.0079 -0.3462 -0.4932
 4530TIP3    H135081   2.089   2.301   2.609  0.1716  1.8063 -0.2261
 4530TIP3    H235082   1.954   2.370   2.608 -1.8976 -1.9868 -0.5810
 4531TIP3   OH235083   2.253   1.576  36.796 -0.0497 -0.3227 -0.3286
 4531TIP3    H135084   2.297   1.661  36.787 -0.1445 -0.1938  0.4249
 4531TIP3    H235085   2.243   1.546  36.706 -0.1117  0.5139 -0.6148
 4532TIP3   OH235086   1.845   1.222  86.668 -0.1172 -0.1274  0.2482
 4532TIP3    H135087   1.770   1.271  86.636  0.3647  0.3240 -0.2014
 4532TIP3    H235088   1.808   1.160  86.731 -0.9466 -0.3225 -0.4160
 4533TIP3   OH235089   0.330   1.873  67.111  0.8908  0.6756  0.3908
 4533TIP3    H135090   0.323   1.954  67.162 -1.3352  1.2975 -0.7900
 4533TIP3    H235091   0.245   1.863  67.069  1.5414 -1.6099 -0.5447
 4534TIP3   OH235092   1.567   2.546  91.826  0.5290  0.1023  0.3276
 4534TIP3    H135093   1.662   2.561  91.826  0.4615  0.6724 -0.9827
 4534TIP3    H235094   1.546   2.522  91.917  1.9240 -0.0718  0.6200
 4535TIP3   OH235095   1.092   0.408  19.132 -0.1652 -0.2100 -0.2221
 4535TIP3    H135096   1.112   0.390  19.041  0.4441 -1.2726  0.1019
 4535TIP3    H235097   1.175   0.395  19.178 -0.1940  1.4342  0.3413
 4536TIP3   OH235098   2.509   2.532 102.012  0.0585 -0.1573  0.1207
 4536TIP3    H135099   2.551   2.615 102.031  0.0383 -0.2810  0.7081
 4536TIP3    H235100   2.491   2.493 102.098  1.6041 -1.5547 -0.1257
 4537TIP3   OH235101   0.731   1.425  94.016  0.3069 -0.0519  0.4242
 4537TIP3    H135102   0.683   1.506  93.996  3.2224  1.3035 -1.8613
 4537TIP3    H235103   0.697   1.361  93.953 -1.9548 -0.7313  2.1847
 4538TIP3   OH235104   1.322   0.281  94.896 -0.1077 -0.3912  0.1087
 4538TIP3    H135105   1.417   0.286  94.890 -0.1447  1.2151  0.5050
 4538TIP3    H235106   1.294   0.242  94.812  0.8119  0.3897 -0.5783
 4539TIP3   OH235107   0.707   1.363 108.031 -0.1662  0.0427 -0.0089
 4539TIP3    H135108   0.743   1.391 108.115 -0.3855 -0.2323  0.1793
 4539TIP3    H235109   0.662   1.280 108.050 -0.1555 -0.0576 -0.4091
 4540TIP3   OH235110   1.463   0.275  99.563 -0.3751  1.0166  0.0602
 4540TIP3    H135111   1.491   0.218  99.491 -2.0033 -1.6322  1.3778
 4540TIP3    H235112   1.386   0.320  99.530  0.4937  1.9924 -0.7307
 4541TIP3   OH235113   0.456   0.935  15.163 -0.2009  0.1820 -0.2634
 4541TIP3    H135114   0.371   0.960  15.127 -0.2709  0.4813  0.0949
 4541TIP3    H235115   0.435   0.873  15.233 -0.1395  0.3818 -0.0648
 4542TIP3   OH235116   2.147   0.080 108.519  0.5296  0.0804 -0.3401
 4542TIP3    H135117   2.192   0.164 108.527  0.5881  0.0018  0.1895
 4542TIP3    H235118   2.086   0.078 108.593  0.9007 -0.5683 -0.0447
 4543TIP3   OH235119   1.218   1.268  94.653  0.4954 -0.0882 -0.9103
 4543TIP3    H135120   1.126   1.242  94.653  0.2877  0.6101  0.1963
 4543TIP3    H235121   1.258   1.211  94.587 -0.6214 -0.7634 -1.0379
 4544TIP3   OH235122   1.407   1.946 106.048  0.0435  0.7659  0.0275
 4544TIP3    H135123   1.392   1.903 106.132  1.7907 -0.1986 -0.1095
 4544TIP3    H235124   1.440   1.876 105.991 -0.1745  1.6109 -1.1890
 4545TIP3   OH235125   2.417   1.992  87.960 -0.0480  0.7064  0.3252
 4545TIP3    H135126   2.361   2.069  87.956  0.5000  1.1244  0.6704
 4545TIP3    H235127   2.483   2.012  88.026  0.3420  0.1065  0.1398
 4546TIP3   OH235128   0.947   1.160  19.893  0.7259  0.1422 -0.8947
 4546TIP3    H135129   1.022   1.199  19.846  1.6539 -0.3704  0.1314
 4546TIP3    H235130   0.979   1.075  19.923 -0.5706 -0.4759 -1.1903
 4547TIP3   OH235131   2.552   0.802  28.950 -0.1617  0.2551  0.1696
 4547TIP3    H135132   2.468   0.756  28.955 -1.2859  1.7906 -2.4081
 4547TIP3    H235133   2.536   0.887  28.990 -0.0937  0.8066 -0.9231
 4548TIP3   OH235134   0.098   1.175  11.089  0.2523  0.4042 -0.5746
 4548TIP3    H135135   0.103   1.080  11.087 -1.9764  0.2240 -0.9100
 4548TIP3    H235136   0.029   1.194  11.152 -0.6776  1.6746 -1.8908
 4549TIP3   OH235137   2.020   1.421  23.891 -0.1627 -0.3997 -0.2044
 4549TIP3    H135138   1.961   1.380  23.953  0.9943 -2.6831 -0.5109
 4549TIP3    H235139   1.984   1.398  23.805  0.2947 -0.4361 -0.3879
 4550TIP3   OH235140   0.303   0.453 110.981 -0.4889 -0.4457 -0.0999
 4550TIP3    H135141   0.349   0.398 110.917 -0.4032 -0.7134  0.1886
 4550TIP3    H235142   0.260   0.520 110.928 -0.5957 -0.7928 -0.4547
 4551TIP3   OH235143   1.752   0.320 104.903  0.0000  0.2881 -0.2804
 4551TIP3    H135144   1.733   0.227 104.889 -2.3216  0.6210  0.2392
 4551TIP3    H235145   1.734   0.334 104.995  0.9949  1.1511 -0.2003
 4552TIP3   OH235146   1.284   1.525  87.131 -0.0104 -0.0849  0.1443
 4552TIP3    H135147   1.206   1.560  87.089 -0.4962  0.4164  1.4283
 4552TIP3    H235148   1.355   1.544  87.069 -0.5245  1.6560  0.0460
 4553TIP3   OH235149   0.942   1.114  95.545 -0.3082 -0.2933  0.0531
 4553TIP3    H135150   0.936   1.066  95.463  1.2172 -0.9287  0.2762
 4553TIP3    H235151   0.896   1.060  95.609 -1.1199 -0.0062 -0.2793
 4554TIP3   OH235152   2.657   0.382 104.388 -0.2379 -0.3893  0.3691
 4554TIP3    H135153   2.698   0.466 104.367  0.7887 -1.1600 -0.8187
 4554TIP3    H235154   2.587   0.373 104.322  0.3773 -0.9639 -0.2192
 4555TIP3   OH235155   2.511   0.951   1.230  0.1684 -0.0893  0.3815
 4555TIP3    H135156   2.473   0.931   1.145  0.1607 -0.1709  0.4040
 4555TIP3    H235157   2.604   0.932   1.220  0.5929  2.1576 -0.3191
 4556TIP3   OH235158   1.026   1.738   6.292 -0.1358 -0.2654 -0.7684
 4556TIP3    H135159   1.043   1.789   6.371 -0.5546 -2.0633  0.5501
 4556TIP3    H235160   1.112   1.709   6.263  0.0381  0.5727 -1.1114
 4557TIP3   OH235161   0.425   0.597  37.192 -0.4114 -0.2764  0.1137
 4557TIP3    H135162   0.402   0.505  37.180  0.5087 -0.3561 -1.3285
 4557TIP3    H235163   0.371   0.644  37.129 -0.7036  0.1499  0.6737
 4558TIP3   OH235164   0.385   0.053  28.998  0.4687  0.2453 -0.1944
 4558TIP3    H135165   0.405   0.077  29.089  0.2203  0.8204 -0.2869
 4558TIP3    H235166   0.471   0.036  28.959  0.5155 -0.9113  0.3883
 4559TIP3   OH235167   2.003   0.876  93.123 -0.2405  0.1221  0.8670
 4559TIP3    H135168   2.031   0.824  93.048 -0.7184 -0.3908  1.0377
 4559TIP3    H235169   1.964   0.954  93.084 -1.5462 -0.6720  0.5265
 4560TIP3   OH235170   1.442   1.249  23.141 -0.7155  0.2288 -0.0642
 4560TIP3    H135171   1.355   1.243  23.100 -0.2969  2.8714 -1.6001
 4560TIP3    H235172   1.503   1.227  23.071 -0.0826 -0.6154  0.7330
 4561TIP3   OH235173   0.317   1.928  28.871  0.0675  0.2757  0.4130
 4561TIP3    H135174   0.232   1.898  28.906  0.6059  0.3788  1.8755
 4561TIP3    H235175   0.370   1.945  28.949  1.8307 -0.8925 -0.4810
 4562TIP3   OH235176   0.857   0.210  92.371  0.3203 -0.0796 -0.2124
 4562TIP3    H135177   0.863   0.302  92.395 -1.1855  0.2067 -0.8397
 4562TIP3    H235178   0.944   0.175  92.390  1.0224  1.5335 -0.2829
 4563TIP3   OH235179   2.050   0.840 106.304  0.1793  0.1007 -0.2358
 4563TIP3    H135180   1.981   0.905 106.314 -0.7026 -0.7414 -0.7828
 4563TIP3    H235181   2.105   0.874 106.233 -0.1961  0.3077 -0.4228
 4564TIP3   OH235182   1.539   0.922  32.506 -0.0096  0.2698 -0.1171
 4564TIP3    H135183   1.501   0.897  32.422 -1.8411  0.4672  0.6080
 4564TIP3    H235184   1.623   0.876  32.510 -0.8256 -1.3782 -1.1698
 4565TIP3   OH235185   1.383   2.200  94.596 -0.4770  0.0704 -0.4091
 4565TIP3    H135186   1.458   2.159  94.554  0.8232  0.0625  1.7626
 4565TIP3    H235187   1.376   2.157  94.681 -3.2422 -0.2150 -0.6823
 4566TIP3   OH235188   0.478   0.370   6.655  0.3576 -0.1471  0.2625
 4566TIP3    H135189   0.398   0.369   6.603  0.5373  0.4782 -0.0373
 4566TIP3    H235190   0.510   0.460   6.648  1.1461 -0.4169  0.2827
 4567TIP3   OH235191   1.280   1.071  97.677 -0.5130 -0.8310  0.1813
 4567TIP3    H135192   1.201   1.024  97.650 -1.1787 -0.5990  1.6100
 4567TIP3    H235193   1.349   1.040  97.618 -1.7317 -0.7849 -1.3354
 4568TIP3   OH235194   1.884   0.010  57.803 -0.0730 -0.3217  0.1370
 4568TIP3    H135195   1.827   0.085  57.825 -0.6608  0.0480 -2.3773
 4568TIP3    H235196   1.949   0.046  57.743 -2.6102 -2.3461 -4.3108
 4569TIP3   OH235197   0.409   2.110   4.377  0.3374  0.3773 -0.7221
 4569TIP3    H135198   0.347   2.082   4.309  0.1137  1.4118 -0.9549
 4569TIP3    H235199   0.361   2.096   4.459  0.3578 -0.2395 -0.8122
 4570TIP3   OH235200   1.178   1.955  37.750  0.0333  0.1638 -0.8507
 4570TIP3    H135201   1.138   1.949  37.837  0.0429  1.0168 -0.7854
 4570TIP3    H235202   1.271   1.971  37.767  0.4819 -1.9650 -0.9970
 4571TIP3   OH235203   0.030   2.318  48.116  0.3790 -0.6914  0.2740
 4571TIP3    H135204  -0.028   2.310  48.041  0.2152 -2.0815  0.5236
 4571TIP3    H235205   0.011   2.241  48.170  1.8589 -0.7453  0.7785
 4572TIP3   OH235206   0.869   2.095   2.247 -0.3634  0.2097  0.4130
 4572TIP3    H135207   0.860   2.190   2.253 -1.1174  0.2206 -0.5989
 4572TIP3    H235208   0.814   2.070   2.173  0.8271 -0.8758 -0.1483
 4573TIP3   OH235209   0.007   2.459  88.938  0.0875  0.2852 -0.1083
 4573TIP3    H135210  -0.045   2.382  88.959 -3.0795  1.8964 -1.4675
 4573TIP3    H235211   0.069   2.428  88.872 -1.3141 -1.0576 -0.8625
 4574TIP3   OH235212   1.563   1.715 105.772 -0.1035  0.5214 -0.4587
 4574TIP3    H135213   1.525   1.720 105.684 -0.3838  1.8967 -0.2955
 4574TIP3    H235214   1.603   1.801 105.784 -1.1926  0.8310  1.2396
 4575TIP3   OH235215   1.900   2.562  26.922 -0.2186 -0.4073 -0.1696
 4575TIP3    H135216   1.919   2.534  26.833  0.8636 -1.8967  0.5067
 4575TIP3    H235217   1.948   2.644  26.932  2.4404 -1.8770  0.0610
 4576TIP3   OH235218   0.482   1.398  83.621 -0.4821 -0.6344  0.5175
 4576TIP3    H135219   0.522   1.479  83.654  0.7934 -0.2923 -1.6979
 4576TIP3    H235220   0.405   1.386  83.676 -0.9595  2.3073  0.6629
 4577TIP3   OH235221   1.322   0.657  99.668  0.2058  0.9921 -0.6252
 4577TIP3    H135222   1.327   0.614  99.753  1.9189  1.4495 -0.4509
 4577TIP3    H235223   1.229   0.656  99.646 -0.1489 -0.0562  0.7640
 4578TIP3   OH235224   2.316   1.339  87.774  0.1235 -0.2201 -0.1644
 4578TIP3    H135225   2.262   1.411  87.805 -1.0886  0.1978 -2.9551
 4578TIP3    H235226   2.296   1.267  87.834 -0.2669  1.1270  1.3924
 4579TIP3   OH235227   0.211   0.402  28.713  0.1305 -0.1515 -0.0292
 4579TIP3    H135228   0.276   0.332  28.708  0.9323  0.5674  0.0610
 4579TIP3    H235229   0.177   0.396  28.802 -0.4295 -0.9550 -0.2819
 4580TIP3   OH235230   1.316   1.522 108.209  0.8674  0.3143  0.1621
 4580TIP3    H135231   1.275   1.438 108.231 -0.9706  1.1139 -0.0720
 4580TIP3    H235232   1.369   1.543 108.287  0.5530 -0.5820  0.6354
 4581TIP3   OH235233   0.293   0.642  14.727 -0.5329  0.0777 -0.5615
 4581TIP3    H135234   0.241   0.699  14.670 -1.2054  0.9643  0.8902
 4581TIP3    H235235   0.244   0.639  14.809  2.1821  1.8290  1.2708
 4582TIP3   OH235236   1.189   1.116 104.952  0.1609  0.0174 -0.1168
 4582TIP3    H135237   1.205   1.040 105.010  0.3395  0.0136 -0.1688
 4582TIP3    H235238   1.157   1.077 104.871 -1.8529  0.1128  0.5703
 4583TIP3   OH235239   1.112   2.037   2.630  0.3945  0.2446  0.6804
 4583TIP3    H135240   1.017   2.035   2.617  0.5144  1.1353 -0.5203
 4583TIP3    H235241   1.133   2.130   2.637  1.4664  0.2358 -1.5998
 4584TIP3   OH235242   1.496   1.118  74.084 -0.0689 -0.2660 -0.4889
 4584TIP3    H135243   1.454   1.055  74.026  0.0445 -0.9025  0.0985
 4584TIP3    H235244   1.425   1.178  74.109 -0.4436 -0.8200 -0.1930
 4585TIP3   OH235245   2.137   1.767  84.517 -0.4048  0.7381 -0.1876
 4585TIP3    H135246   2.131   1.854  84.478  0.1201  0.0747 -1.8679
 4585TIP3    H235247   2.215   1.728  84.478 -0.5416 -0.4343  0.6386
 4586TIP3   OH235248   1.420   2.666 105.777  0.1101  0.3771  0.5439
 4586TIP3    H135249   1.446   2.741 105.723 -0.1299 -0.6136 -1.0195
 4586TIP3    H235250   1.489   2.601 105.762 -1.1749 -0.8003 -0.4885
 4587TIP3   OH235251   2.093   1.898  15.930 -0.4167 -0.3531 -0.2399
 4587TIP3    H135252   2.105   1.933  16.018 -1.2698 -2.0818  0.6114
 4587TIP3    H235253   2.007   1.930  15.902 -0.0155  0.4438 -0.5851
 4588TIP3   OH235254   1.781   0.429  97.446  0.0114 -0.4597  0.2594
 4588TIP3    H135255   1.873   0.428  97.420  0.2307  0.1411  1.0088
 4588TIP3    H235256   1.744   0.505  97.401 -0.5300 -1.6163 -1.3441
 4589TIP3   OH235257   2.368   1.776  89.106 -0.1778  0.2275  0.2534
 4589TIP3    H135258   2.289   1.830  89.106 -0.6065 -0.2011  3.4739
 4589TIP3    H235259   2.428   1.822  89.048 -2.1555  1.5161 -0.9107
 4590TIP3   OH235260   2.245   2.390  80.185 -0.3677  0.0412 -0.1316
 4590TIP3    H135261   2.191   2.323  80.229  0.0441 -1.4770 -1.8284
 4590TIP3    H235262   2.188   2.424  80.116  0.1557 -0.1283 -0.6479
 4591TIP3   OH235263   0.098   0.015  79.206  0.3481  0.0190  0.5365
 4591TIP3    H135264   0.174  -0.035  79.237  0.7889  1.0767  1.2236
 4591TIP3    H235265   0.130   0.105  79.199 -0.7312  0.4042  0.4274
 4592TIP3   OH235266   1.870   0.720  32.103 -0.2489 -0.5158 -0.0307
 4592TIP3    H135267   1.880   0.814  32.117 -3.0001  0.0888 -1.3299
 4592TIP3    H235268   1.910   0.705  32.017  1.7329 -0.9240  0.9252
 4593TIP3   OH235269   2.107   2.279  88.242  0.2683 -0.5921  0.3789
 4593TIP3    H135270   2.029   2.302  88.192  0.8837 -1.1922 -0.9192
 4593TIP3    H235271   2.080   2.285  88.333 -0.4489  2.2057  0.0718
 4594TIP3   OH235272   0.315   1.326 111.752 -0.1402 -0.3072  0.1349
 4594TIP3    H135273   0.221   1.326 111.769  0.0737  0.2459  1.4801
 4594TIP3    H235274   0.354   1.294 111.834  0.8038 -1.6626 -0.7977
 4595TIP3   OH235275   1.338   0.401  79.042  0.9705  0.1284  0.3245
 4595TIP3    H135276   1.429   0.428  79.049  0.1868  3.9068 -1.5039
 4595TIP3    H235277   1.321   0.394  78.948 -0.4906 -1.2421  0.6353
 4596TIP3   OH235278   0.143   2.125  73.817  0.4469 -0.2798  0.5715
 4596TIP3    H135279   0.133   2.065  73.891 -2.2440  0.0567  0.5845
 4596TIP3    H235280   0.122   2.211  73.853 -1.7051 -0.2133 -0.6481
 4597TIP3   OH235281   1.387   2.516  99.563  0.1687  0.6086 -0.6296
 4597TIP3    H135282   1.472   2.530  99.605  0.9548 -2.3364 -1.0310
 4597TIP3    H235283   1.400   2.439  99.508 -2.8981 -0.1736 -0.3876
 4598TIP3   OH235284   0.571   1.808   1.447  0.5004  0.5861 -0.1375
 4598TIP3    H135285   0.501   1.874   1.451 -0.8805 -0.8089 -0.5804
 4598TIP3    H235286   0.643   1.848   1.495  0.6367  3.4749 -2.4207
 4599TIP3   OH235287   1.029   0.726  82.234  0.4874  0.3528  0.5573
 4599TIP3    H135288   1.106   0.733  82.290  0.8237 -0.8190  0.2770
 4599TIP3    H235289   0.983   0.648  82.265  0.8671 -0.5375 -0.9668
 4600TIP3   OH235290   0.437   1.700 105.418 -0.2246  0.5426 -0.0589
 4600TIP3    H135291   0.479   1.779 105.452  1.2504 -0.0826 -0.3553
 4600TIP3    H235292   0.507   1.635 105.416 -2.0014 -1.7316  3.0453
 4601TIP3   OH235293   2.427   2.207  77.523  0.0909  0.0254 -0.3741
 4601TIP3    H135294   2.478   2.208  77.443 -1.3160  0.2068 -1.3082
 4601TIP3    H235295   2.412   2.300  77.543  0.5562 -0.0151  0.1848
 4602TIP3   OH235296   1.752   0.376  32.972  0.1947  0.2256  0.0954
 4602TIP3    H135297   1.803   0.429  32.911  0.8043 -1.6065 -1.0653
 4602TIP3    H235298   1.751   0.288  32.933 -2.9905 -0.0734  0.5942
 4603TIP3   OH235299   0.930   1.109 109.879  0.3847 -0.3302 -0.9617
 4603TIP3    H135300   0.944   1.051 109.954  1.2669 -0.5597 -1.2852
 4603TIP3    H235301   0.986   1.072 109.811 -1.1366 -0.6901 -2.0517
 4604TIP3   OH235302   1.656   1.024  11.810 -0.2026  0.0290 -0.4247
 4604TIP3    H135303   1.674   0.932  11.828  2.4998  1.0705  3.3665
 4604TIP3    H235304   1.740   1.061  11.784 -0.6932  1.8033  0.3189
 4605TIP3   OH235305   2.028   1.703  32.614 -0.3133  0.4336 -0.2515
 4605TIP3    H135306   1.962   1.715  32.682 -0.5403 -0.6272 -0.2617
 4605TIP3    H235307   1.986   1.736  32.534 -1.5574 -1.7899 -0.6085
 4606TIP3   OH235308   1.327   1.318  99.550 -0.3961 -0.0594 -0.7724
 4606TIP3    H135309   1.294   1.380  99.615  0.0872  0.0712 -0.6555
 4606TIP3    H235310   1.267   1.243  99.556  0.0298 -0.3228  0.2729
 4607TIP3   OH235311   2.649   0.696  30.272  0.3139  0.5952  0.0869
 4607TIP3    H135312   2.734   0.736  30.287  1.3665 -1.1017 -0.9003
 4607TIP3    H235313   2.639   0.634  30.344  0.0896  0.5417  0.0093
 4608TIP3   OH235314   2.587   0.067  99.491  0.0485  0.0698  0.2713
 4608TIP3    H135315   2.611   0.045  99.401  0.8317 -0.2208  0.5526
 4608TIP3    H235316   2.553  -0.014  99.528 -1.6178  0.5133 -0.1765
 4609TIP3   OH235317   0.646   0.853  82.539 -0.3172  0.3935  0.4174
 4609TIP3    H135318   0.623   0.856  82.446 -1.7927 -0.0935  0.7423
 4609TIP3    H235319   0.606   0.772  82.571 -1.9123  1.7307  1.9936
 4610TIP3   OH235320   0.572   0.601  95.909  0.0718 -0.2523  0.2753
 4610TIP3    H135321   0.667   0.603  95.921 -0.0153  0.1120  0.9808
 4610TIP3    H235322   0.555   0.524  95.855  1.0905  1.5611 -2.9138
 4611TIP3   OH235323   0.626   0.193  32.986 -0.3878  0.4558  0.3300
 4611TIP3    H135324   0.676   0.131  33.039 -1.1602 -0.9195 -0.4911
 4611TIP3    H235325   0.563   0.231  33.047 -1.5978 -1.4678  0.3510
 4612TIP3   OH235326   0.784   0.254  94.295  0.2314  0.2772  0.1057
 4612TIP3    H135327   0.745   0.291  94.216 -0.4215  1.0614  0.7824
 4612TIP3    H235328   0.730   0.287  94.367  1.5906  0.6400  1.0011
 4613TIP3   OH235329   0.073   0.776  40.117 -0.1889  0.1020 -0.2232
 4613TIP3    H135330   0.051   0.841  40.184  0.6453  1.7222 -1.4579
 4613TIP3    H235331   0.109   0.703  40.165  0.9608  1.4727  1.0879
 4614TIP3   OH235332   2.219   0.308  47.853  0.1147 -0.5698  0.2660
 4614TIP3    H135333   2.175   0.263  47.925  0.0100 -0.0304  0.5471
 4614TIP3    H235334   2.285   0.247  47.822  0.7294 -0.4803  1.3764
 4615TIP3   OH235335   2.523   2.608   7.735  0.3497  0.0550  0.4695
 4615TIP3    H135336   2.502   2.516   7.754 -2.2893  0.8022  1.6229
 4615TIP3    H235337   2.596   2.628   7.794  1.8741 -1.6238 -0.7706
 4616TIP3   OH235338   1.969   1.276  90.926 -0.2863  0.6057  0.0830
 4616TIP3    H135339   2.040   1.298  90.867  0.9000 -1.3118  0.6964
 4616TIP3    H235340   1.897   1.248  90.869  0.7116 -0.8495 -0.5061
 4617TIP3   OH235341   0.790   2.030  25.670  0.1098  0.3856 -0.6008
 4617TIP3    H135342   0.767   2.123  25.674 -0.5645  0.1844  0.9145
 4617TIP3    H235343   0.725   1.987  25.725  1.8050 -0.7068  0.6373
 4618TIP3   OH235344   0.273   1.843  84.833 -0.0462 -0.4086  0.5889
 4618TIP3    H135345   0.200   1.783  84.847 -2.0113  1.1369 -2.1308
 4618TIP3    H235346   0.322   1.805  84.761 -0.3931  0.4143 -0.1006
 4619TIP3   OH235347   0.249   0.613  34.353  0.2621 -0.0515  0.5450
 4619TIP3    H135348   0.286   0.638  34.268  0.5461 -0.7938  0.4402
 4619TIP3    H235349   0.309   0.545  34.386 -1.0396 -1.3583  0.3372
 4620TIP3   OH235350   2.235   0.653 109.059  0.3562  0.0627 -0.0733
 4620TIP3    H135351   2.194   0.586 109.113  0.0191  0.0771 -0.3116
 4620TIP3    H235352   2.166   0.683 109.000  0.4268  0.8223  0.2246
 4621TIP3   OH235353   2.664   0.710  89.202 -0.1401  0.3695 -0.3209
 4621TIP3    H135354   2.629   0.621  89.201 -0.3667  0.4147  1.1079
 4621TIP3    H235355   2.588   0.766  89.189 -0.1706  0.3877 -0.0649
 4622TIP3   OH235356   0.079   1.087   8.075  0.5396  0.1994  0.0317
 4622TIP3    H135357   0.006   1.146   8.090  1.0944  1.1811 -0.9951
 4622TIP3    H235358   0.137   1.101   8.150  1.4568  2.2173 -0.9888
 4623TIP3   OH235359   1.189   2.074  13.307  0.5424  0.3721  0.2068
 4623TIP3    H135360   1.147   2.039  13.228 -1.1381 -0.3922  1.3795
 4623TIP3    H235361   1.201   2.167  13.288  1.1444  0.0254 -1.3274
 4624TIP3   OH235362   0.906   0.043 100.676  0.3306  0.2806  0.0171
 4624TIP3    H135363   0.854   0.081 100.747  0.8675 -0.9697  1.1253
 4624TIP3    H235364   0.993   0.032 100.714  0.6140 -0.4628 -0.8260
 4625TIP3   OH235365   0.506   0.276  75.375 -0.5031 -0.0848 -0.6566
 4625TIP3    H135366   0.461   0.192  75.363 -1.2708 -0.1929  2.1425
 4625TIP3    H235367   0.574   0.257  75.440  0.4926  1.0915 -1.3244
 4626TIP3   OH235368   0.533   1.740 110.721 -0.0020  0.0054  0.6498
 4626TIP3    H135369   0.602   1.780 110.774  0.2322 -1.3308  1.3973
 4626TIP3    H235370   0.454   1.746 110.774 -0.6147  1.9404 -0.3952
 4627TIP3   OH235371   0.957   2.525  30.400  0.5726  0.8339 -0.4132
 4627TIP3    H135372   1.016   2.480  30.341  1.1014  0.7348  0.1867
 4627TIP3    H235373   1.011   2.549  30.476 -0.2486  0.3355  0.3456
 4628TIP3   OH235374   2.542   0.743  87.109 -0.4156 -0.1176 -0.3762
 4628TIP3    H135375   2.480   0.791  87.054  1.0327  0.4060 -1.6391
 4628TIP3    H235376   2.580   0.810  87.167  0.8907  0.1413 -1.4696
 4629TIP3   OH235377   2.550   1.083  28.444 -0.0240 -0.4535 -0.2645
 4629TIP3    H135378   2.611   1.045  28.380 -0.5125  0.4396 -1.2862
 4629TIP3    H235379   2.605   1.140  28.498  0.2677 -0.6817 -0.3145
 4630TIP3   OH235380   2.249   0.368   8.571  0.5653  0.4398  0.3855
 4630TIP3    H135381   2.301   0.378   8.492  0.7513 -1.1363  0.2850
 4630TIP3    H235382   2.158   0.365   8.540  0.4055  2.4679  0.5008
 4631TIP3   OH235383   0.974   0.149 103.073  0.4913 -0.4613  0.5287
 4631TIP3    H135384   1.050   0.184 103.026 -0.9486  0.4717 -1.2364
 4631TIP3    H235385   0.972   0.198 103.155  1.3922  0.0103  0.2828
 4632TIP3   OH235386   0.641   0.647 104.207 -0.5007  0.0379 -0.3754
 4632TIP3    H135387   0.595   0.672 104.287 -1.5829 -2.4064 -0.1335
 4632TIP3    H235388   0.601   0.699 104.138  0.0242  1.7283  0.5556
 4633TIP3   OH235389   0.723   0.872  74.028 -0.2504 -0.4382 -0.6312
 4633TIP3    H135390   0.816   0.855  74.036  0.3309  2.7465  1.0360
 4633TIP3    H235391   0.687   0.852  74.114 -0.3269  1.8936 -0.0524
 4634TIP3   OH235392   0.306   0.978  14.510  0.2576  0.4069 -0.0674
 4634TIP3    H135393   0.378   0.932  14.466 -0.4064 -0.0195 -0.7277
 4634TIP3    H235394   0.296   1.059  14.461  0.2960  0.4833  0.0476
 4635TIP3   OH235395   0.951   1.921  91.120 -0.8871  0.0672 -0.3292
 4635TIP3    H135396   1.043   1.914  91.094 -0.8297 -1.0782  0.1176
 4635TIP3    H235397   0.942   2.011  91.151  0.3262 -0.0742  0.5091
 4636TIP3   OH235398   0.001   0.260  79.472  0.5855 -0.1752  0.0551
 4636TIP3    H135399   0.050   0.303  79.541  0.2236  0.3075  0.0189
 4636TIP3    H235400  -0.013   0.329  79.406  1.0002 -0.6493 -0.5389
 4637TIP3   OH235401   0.865   1.530 107.839  0.1702 -0.5216  0.1863
 4637TIP3    H135402   0.814   1.463 107.885 -0.6382  0.3124  0.5443
 4637TIP3    H235403   0.944   1.540 107.892 -0.2435 -0.3633  0.7895
 4638TIP3   OH235404   1.480   1.034  16.952  0.2108  0.0646  0.2048
 4638TIP3    H135405   1.542   1.098  16.988  0.5991 -0.9689  1.4105
 4638TIP3    H235406   1.398   1.050  16.999  0.5778 -0.9437  1.2352
 4639TIP3   OH235407   0.462   1.013 102.724  0.4978  0.2583 -0.9249
 4639TIP3    H135408   0.413   0.932 102.735  0.0929  0.3259 -2.0872
 4639TIP3    H235409   0.554   0.987 102.732  0.3223  0.1527  1.4287
 4640TIP3   OH235410   1.096   0.463   7.256  0.6627  0.3418  0.3164
 4640TIP3    H135411   1.104   0.527   7.186  0.8523  0.2659  0.2661
 4640TIP3    H235412   1.179   0.415   7.253  0.3496 -0.1844  0.0822
 4641TIP3   OH235413   0.916   2.663   3.033 -0.6032 -0.1561 -0.5252
 4641TIP3    H135414   0.916   2.684   3.127 -0.7030  0.0157 -0.5639
 4641TIP3    H235415   0.924   2.748   2.989  1.2472 -0.3352 -0.6512
 4642TIP3   OH235416   2.038   2.401  75.727 -0.2573 -0.3686  0.1784
 4642TIP3    H135417   1.957   2.452  75.734  0.0803  0.4353 -1.3519
 4642TIP3    H235418   2.074   2.401  75.816 -2.7789 -2.2517  1.3261
 4643TIP3   OH235419   2.227   1.246   8.917 -0.3164 -0.1463  0.5826
 4643TIP3    H135420   2.144   1.239   8.870  0.0868 -1.5938  0.0109
 4643TIP3    H235421   2.258   1.155   8.923  1.0789  0.3388  1.0527
 4644TIP3   OH235422   0.015   2.580  74.936  0.2353  0.3758  0.0014
 4644TIP3    H135423  -0.041   2.611  75.007 -1.0855 -0.6479 -0.5562
 4644TIP3    H235424  -0.027   2.500  74.905  1.5579  0.0320 -1.0103
 4645TIP3   OH235425   1.883   0.155  24.530 -0.1960  0.3108  0.0732
 4645TIP3    H135426   1.898   0.250  24.533 -0.3744  0.3710 -0.6350
 4645TIP3    H235427   1.800   0.142  24.577  0.6223  0.3063  1.5682
 4646TIP3   OH235428   1.188   0.081  11.565  0.2219  0.1440  0.3325
 4646TIP3    H135429   1.263   0.033  11.598  1.7213  1.8925 -0.4010
 4646TIP3    H235430   1.171   0.042  11.479  1.0937  0.5656 -0.0369
 4647TIP3   OH235431   1.393   0.846  27.643  0.3231  0.3578 -0.2891
 4647TIP3    H135432   1.349   0.899  27.577 -0.2495 -2.4584 -2.3432
 4647TIP3    H235433   1.334   0.772  27.657  0.8546  0.3815  2.8185
 4648TIP3   OH235434   0.060   1.000  33.761  0.2880  0.1153  0.0535
 4648TIP3    H135435   0.017   0.984  33.845  0.4771  0.5995  0.2480
 4648TIP3    H235436   0.097   1.088  33.770  0.4423  0.1062 -0.4818
 4649TIP3   OH235437   0.030   2.061  75.250 -0.0974 -0.0678 -0.1743
 4649TIP3    H135438   0.062   1.971  75.253 -0.7280 -0.2847  2.0330
 4649TIP3    H235439  -0.001   2.078  75.339  0.5976  2.5573 -0.3518
 4650TIP3   OH235440   1.623   0.786 100.567 -0.4567 -0.7194  0.3496
 4650TIP3    H135441   1.592   0.702 100.534 -2.4807  0.5073 -1.0931
 4650TIP3    H235442   1.687   0.816 100.502  0.2006 -1.0716  0.8220
 4651TIP3   OH235443   0.802   1.790  20.322 -0.3396 -0.2816  0.3952
 4651TIP3    H135444   0.824   1.708  20.367  1.6723  0.0919  0.2112
 4651TIP3    H235445   0.826   1.774  20.230  1.3907  0.8833  0.5826
 4652TIP3   OH235446   1.311   2.183 104.250 -0.2961  0.1953 -0.3790
 4652TIP3    H135447   1.283   2.094 104.272 -1.6015  0.1398 -2.0929
 4652TIP3    H235448   1.332   2.180 104.157  0.0334  1.5946 -0.3741
 4653TIP3   OH235449   1.209   1.687  16.922  0.3208  0.3836  0.3072
 4653TIP3    H135450   1.183   1.636  17.000 -1.3615  0.9821  0.1878
 4653TIP3    H235451   1.148   1.761  16.922 -0.6535 -0.3325 -2.3422
 4654TIP3   OH235452   0.541   2.363  98.739 -0.4792 -0.3182 -0.1892
 4654TIP3    H135453   0.491   2.347  98.659  1.3937 -0.8423 -1.3079
 4654TIP3    H235454   0.629   2.387  98.709 -0.4163  2.2290  1.6791
 4655TIP3   OH235455   1.663   1.152  91.562 -0.0976  0.0981 -0.2304
 4655TIP3    H135456   1.715   1.232  91.559  0.3630  0.1198  3.3445
 4655TIP3    H235457   1.573   1.182  91.551  0.2379  0.7307 -1.4354
 4656TIP3   OH235458   1.422   1.952  13.484  0.3791  0.1945  0.8240
 4656TIP3    H135459   1.353   2.017  13.498  0.6387  0.8744 -0.8742
 4656TIP3    H235460   1.379   1.882  13.435  0.7867  0.4483  0.0896
 4657TIP3   OH235461   2.155   0.527  28.673  0.5453  0.4599  0.4788
 4657TIP3    H135462   2.245   0.535  28.641  0.6854 -0.9659  0.4439
 4657TIP3    H235463   2.109   0.481  28.603  0.4131 -1.0708  1.5398
 4658TIP3   OH235464   1.768   2.245 107.010  0.4508  0.1879  0.6259
 4658TIP3    H135465   1.740   2.194 107.085  0.9455  0.9232  1.3346
 4658TIP3    H235466   1.811   2.182 106.952  0.5926 -0.2890  1.2414
 4659TIP3   OH235467   1.920   1.700  46.613  0.2767  0.1169 -0.7308
 4659TIP3    H135468   1.833   1.681  46.578 -1.3342  1.3051  2.2284
 4659TIP3    H235469   1.937   1.790  46.586 -0.3016  0.5352  0.2735
 4660TIP3   OH235470   1.581   1.627  17.608  0.1210  0.3219  0.0576
 4660TIP3    H135471   1.490   1.645  17.584  0.2952  0.7021 -0.3379
 4660TIP3    H235472   1.575   1.573  17.687 -0.4592 -0.5019 -0.5309
 4661TIP3   OH235473   0.424   2.309   2.062 -0.2238  0.3779  0.0390
 4661TIP3    H135474   0.460   2.257   2.134  0.0549 -1.3091 -1.2780
 4661TIP3    H235475   0.330   2.315   2.082 -0.1040  0.2029  0.6990
 4662TIP3   OH235476   2.435   0.097  35.734  0.1125  0.2683 -0.3798
 4662TIP3    H135477   2.421   0.181  35.692 -0.8862 -0.4965 -1.6535
 4662TIP3    H235478   2.458   0.038  35.662 -0.9140 -0.9121  0.2306
 4663TIP3   OH235479   1.181   0.999  95.858 -0.0454  0.0962  0.4159
 4663TIP3    H135480   1.272   0.985  95.831  0.7045  0.0310  2.7493
 4663TIP3    H235481   1.154   1.078  95.810  0.2354 -1.3884 -2.4265
 4664TIP3   OH235482   1.847   1.518  11.344  0.3568  0.0487 -0.0712
 4664TIP3    H135483   1.876   1.428  11.329  1.2365  0.5920 -1.8779
 4664TIP3    H235484   1.845   1.527  11.439  0.9191 -1.6663  0.1310
 4665TIP3   OH235485   1.572   0.113  17.943  0.0861  0.3452  0.2260
 4665TIP3    H135486   1.625   0.192  17.950  0.8705 -0.0573 -0.9203
 4665TIP3    H235487   1.635   0.042  17.931 -0.6452 -0.3383  0.2978
 4666TIP3   OH235488   2.208   1.379  80.461  0.0883  0.5855  0.2451
 4666TIP3    H135489   2.122   1.347  80.432  0.9503 -0.3100 -1.5043
 4666TIP3    H235490   2.262   1.374  80.383  2.2541 -0.6677  1.7340
 4667TIP3   OH235491   1.351   0.744 104.885  0.5608 -0.9273  0.3221
 4667TIP3    H135492   1.345   0.753 104.980 -0.2310  0.1815  0.1978
 4667TIP3    H235493   1.381   0.830 104.854  2.8167 -1.8904 -0.3045
 4668TIP3   OH235494   1.604   1.762   7.591  0.3408  0.3593  0.2032
 4668TIP3    H135495   1.576   1.709   7.666 -0.7156  1.0495  0.3302
 4668TIP3    H235496   1.697   1.777   7.606  0.5321 -0.9645  0.4563
 4669TIP3   OH235497   1.202   1.143   3.433 -0.2271  0.0904  0.0321
 4669TIP3    H135498   1.243   1.129   3.519  0.0722  2.2785  0.2984
 4669TIP3    H235499   1.275   1.141   3.371 -0.4418 -1.4773 -0.2120
 4670TIP3   OH235500   0.458   0.738 110.924  0.1308 -0.2441 -0.0182
 4670TIP3    H135501   0.429   0.762 111.012 -2.1965 -0.9628 -0.4971
 4670TIP3    H235502   0.525   0.671 110.938  0.1323 -0.0144  1.2132
 4671TIP3   OH235503   2.166   1.013   2.320  0.4140  0.0174 -0.1175
 4671TIP3    H135504   2.129   1.027   2.407  1.3111 -0.3396  0.3401
 4671TIP3    H235505   2.091   1.006   2.262 -0.2103 -0.2864  0.7152
 4672TIP3   OH235506   0.101   0.459 102.212 -0.1041  0.6608 -0.1587
 4672TIP3    H135507   0.157   0.468 102.135  0.7493  0.4527  0.4190
 4672TIP3    H235508   0.157   0.416 102.277 -1.1555 -0.1793  0.2164
 4673TIP3   OH235509   0.908   0.117  73.934  0.1774  0.4603  0.8910
 4673TIP3    H135510   0.971   0.148  73.868 -0.8351 -0.9738 -0.8487
 4673TIP3    H235511   0.828   0.165  73.914 -0.2441 -0.2651  0.8135
 4674TIP3   OH235512   2.377   0.732 103.119  0.4317  0.0080 -0.0744
 4674TIP3    H135513   2.329   0.812 103.098  0.1763  0.5831  2.4026
 4674TIP3    H235514   2.438   0.758 103.188  0.1414 -1.9825  1.0107
 4675TIP3   OH235515   1.073   0.088 100.140 -0.3956  0.0500 -0.1619
 4675TIP3    H135516   1.126   0.041 100.075 -1.4656  0.4941 -1.3931
 4675TIP3    H235517   0.984   0.057 100.127 -0.6382  0.1099  1.1553
 4676TIP3   OH235518   1.390   2.394 108.950  0.1187  0.3554 -0.3437
 4676TIP3    H135519   1.349   2.396 109.037  1.1644  2.6043  0.1917
 4676TIP3    H235520   1.439   2.312 108.948  0.0415  0.2432  1.1921
 4677TIP3   OH235521   0.762   1.836   3.723 -0.2440 -0.3931 -0.2337
 4677TIP3    H135522   0.711   1.916   3.739  1.1838  0.8794 -1.6852
 4677TIP3    H235523   0.696   1.768   3.710 -1.4999  0.4975  1.1511
 4678TIP3   OH235524   2.555   1.468  74.958 -0.0390  0.6202  0.5672
 4678TIP3    H135525   2.614   1.453  74.884 -0.3751  0.3278  0.3540
 4678TIP3    H235526   2.469   1.440  74.926 -0.2369  0.7528  0.9806
 4679TIP3   OH235527   2.005   1.775  92.661  0.1372 -0.0743  0.1163
 4679TIP3    H135528   2.072   1.749  92.725  0.8114 -0.4257 -0.7176
 4679TIP3    H235529   1.942   1.703  92.663  0.2120 -0.1360  0.3085
 4680TIP3   OH235530   1.376   0.949  99.671  0.5061  0.0479  0.7428
 4680TIP3    H135531   1.395   0.867  99.715 -0.2979 -1.3794 -1.4081
 4680TIP3    H235532   1.420   0.943  99.587 -0.4236  1.3687  0.1120
 4681TIP3   OH235533   0.714   1.580  73.633  0.5068  0.6396  0.3710
 4681TIP3    H135534   0.629   1.545  73.606  2.0093 -1.9255 -1.5111
 4681TIP3    H235535   0.770   1.570  73.556  2.6850  1.7268  1.7007
 4682TIP3   OH235536   1.283   0.460   3.440  0.0110 -0.6614  0.0879
 4682TIP3    H135537   1.283   0.536   3.497 -1.0537  0.7436 -1.6749
 4682TIP3    H235538   1.365   0.466   3.392 -0.1664 -0.5056 -0.1974
 4683TIP3   OH235539   0.165   1.320 102.558  0.5653 -0.1320 -0.1860
 4683TIP3    H135540   0.167   1.379 102.482  2.3390  1.0549  0.6940
 4683TIP3    H235541   0.218   1.245 102.532 -1.3191 -1.1971 -1.1528
 4684TIP3   OH235542   2.173   0.294  90.233 -0.3742 -0.1872  0.2254
 4684TIP3    H135543   2.261   0.299  90.197  0.1950 -1.0487  1.4075
 4684TIP3    H235544   2.129   0.373  90.202  0.3957 -0.3707 -1.4263
 4685TIP3   OH235545   1.037   0.921  79.476  0.0701  0.2115 -0.2854
 4685TIP3    H135546   1.025   0.949  79.567  2.3201 -2.6383  1.0307
 4685TIP3    H235547   0.964   0.861  79.460  0.6830 -0.7316  0.3458
 4686TIP3   OH235548   0.200   2.321  17.762 -0.0885 -0.3867  0.0501
 4686TIP3    H135549   0.149   2.333  17.682 -0.8437  1.0357  0.7124
 4686TIP3    H235550   0.203   2.226  17.775 -2.0809 -0.5349 -0.3306
 4687TIP3   OH235551   0.221   2.097  80.148  0.5706 -0.2558 -0.0192
 4687TIP3    H135552   0.278   2.147  80.206  2.2338 -1.7849 -0.2726
 4687TIP3    H235553   0.152   2.064  80.206  0.2079  1.1377  0.3971
 4688TIP3   OH235554   0.603   1.331  85.385 -0.2947  0.4616 -0.0538
 4688TIP3    H135555   0.507   1.327  85.389 -0.4080 -1.1572 -2.2844
 4688TIP3    H235556   0.622   1.414  85.343 -1.0560 -1.0752 -3.7843
 4689TIP3   OH235557   0.167   1.826   3.967 -0.2479  0.4310  0.0348
 4689TIP3    H135558   0.174   1.922   3.969 -0.9925  0.5526 -1.5629
 4689TIP3    H235559   0.227   1.800   3.896 -0.2943 -0.2653  0.2483
 4690TIP3   OH235560   1.943   0.426  90.506 -0.1026 -0.3816 -0.1683
 4690TIP3    H135561   2.028   0.446  90.545 -0.9495  1.9728  0.6276
 4690TIP3    H235562   1.951   0.454  90.415  0.3712 -1.4482 -0.4707
 4691TIP3   OH235563   0.820   0.557   7.311  0.0311  0.4197 -0.4530
 4691TIP3    H135564   0.842   0.569   7.218 -0.2909  0.8339 -0.4728
 4691TIP3    H235565   0.904   0.561   7.356  0.8123 -3.7845 -1.0991
 4692TIP3   OH235566   1.313   2.462  11.016 -0.1832  0.7188  0.0359
 4692TIP3    H135567   1.231   2.501  10.985  0.9229  2.5518 -0.7261
 4692TIP3    H235568   1.342   2.406  10.944 -0.8756 -0.1832  0.4292
 4693TIP3   OH235569   1.725   1.161  97.312  0.0534  0.1244 -0.3079
 4693TIP3    H135570   1.629   1.164  97.316  0.0862  0.2144  0.3927
 4693TIP3    H235571   1.752   1.140  97.401  0.6403 -1.1387 -0.7660
 4694TIP3   OH235572   2.566   1.915  89.748 -0.0209  0.1358  0.0546
 4694TIP3    H135573   2.650   1.930  89.705  0.9592 -3.0001  0.6045
 4694TIP3    H235574   2.502   1.909  89.676  0.8753 -0.9952 -0.6747
 4695TIP3   OH235575   1.197   2.018   5.238  0.0366 -0.6331  0.1915
 4695TIP3    H135576   1.220   1.930   5.207  0.8591 -0.0953 -0.7947
 4695TIP3    H235577   1.268   2.074   5.206 -1.5404  0.7491 -1.0816
 4696TIP3   OH235578   2.009   0.582  29.826  0.2481 -0.3103  0.1267
 4696TIP3    H135579   2.093   0.569  29.782 -0.2757  1.3908 -1.5028
 4696TIP3    H235580   2.033   0.613  29.913  1.2882 -2.2167  0.5873
 4697TIP3   OH235581   1.778   1.202  94.569 -0.0275  0.0918  0.1928
 4697TIP3    H135582   1.829   1.152  94.504 -0.9373  0.5630 -0.9019
 4697TIP3    H235583   1.843   1.258  94.611  0.6826 -0.6433  0.1116
 4698TIP3   OH235584   0.465   1.099   7.131 -0.2114  0.5260 -0.3221
 4698TIP3    H135585   0.370   1.098   7.145 -0.3379 -0.2868 -1.1545
 4698TIP3    H235586   0.482   1.022   7.077  1.2161 -0.7188  1.7580
 4699TIP3   OH235587   2.057   0.189   2.920  0.2286 -0.0898 -0.1746
 4699TIP3    H135588   2.040   0.283   2.910  1.7108  0.4656  1.7563
 4699TIP3    H235589   2.146   0.185   2.956 -0.6125 -2.0702  1.9854
 4700TIP3   OH235590   1.713   0.438   9.868 -0.4023  0.1464 -0.2232
 4700TIP3    H135591   1.796   0.482   9.853 -0.0265  0.1898  1.6928
 4700TIP3    H235592   1.647   0.498   9.833  0.3111  0.4216 -1.1435
 4701TIP3   OH235593   0.053   1.852  77.046 -0.0155 -0.5441 -0.0179
 4701TIP3    H135594   0.137   1.811  77.025 -0.9013 -1.2485 -2.5714
 4701TIP3    H235595   0.076   1.944  77.063  1.3404 -0.8811  0.1184
 4702TIP3   OH235596   0.410   2.265   0.509 -0.2375 -0.1913 -0.1301
 4702TIP3    H135597   0.333   2.227   0.469  0.3697 -0.7268 -0.8192
 4702TIP3    H235598   0.478   2.198   0.498  0.0543 -0.1884  1.4379
 4703TIP3   OH235599   1.963   2.277  28.827 -0.0735 -0.5768  0.5885
 4703TIP3    H135600   1.937   2.280  28.736  1.9756 -3.1076 -0.2128
 4703TIP3    H235601   2.046   2.326  28.830 -0.8926  0.8185  1.4610
 4704TIP3   OH235602   1.214   2.247  97.680 -0.3956 -0.2970  0.1041
 4704TIP3    H135603   1.257   2.165  97.704 -0.1525  0.3134  1.9299
 4704TIP3    H235604   1.161   2.225  97.604 -1.7101 -2.6011  1.5510
 4705TIP3   OH235605   0.568   1.570   9.075 -0.7100 -0.4201 -0.1122
 4705TIP3    H135606   0.561   1.663   9.054  1.3616 -0.0031  0.7287
 4705TIP3    H235607   0.497   1.529   9.026 -2.2579  1.6881  0.2093
 4706TIP3   OH235608   1.538   0.602  33.632  0.0291  0.5096  0.2908
 4706TIP3    H135609   1.610   0.554  33.671  0.3890 -0.1212 -1.0970
 4706TIP3    H235610   1.519   0.672  33.695  0.9185 -0.1399  1.3172
 4707TIP3   OH235611   1.920   2.034 111.111 -0.3593  0.0957  0.3073
 4707TIP3    H135612   1.871   2.096 111.165  0.3587 -0.5257  1.7083
 4707TIP3    H235613   1.945   1.963 111.170  1.5386 -0.0103 -0.5149
 4708TIP3   OH235614   1.345   1.503 105.112  0.2249 -0.1486  0.0742
 4708TIP3    H135615   1.378   1.413 105.101  1.5367  0.1938  0.8752
 4708TIP3    H235616   1.418   1.558 105.085 -0.7945  0.7096 -1.0195
 4709TIP3   OH235617   1.488   0.256 100.419 -0.0908  0.3287 -0.3877
 4709TIP3    H135618   1.459   0.288 100.334 -0.7857 -0.1766 -0.3491
 4709TIP3    H235619   1.493   0.161 100.408 -0.6422  0.2179  0.2773
 4710TIP3   OH235620   2.139   0.649  84.309  0.1959  0.1783  0.5204
 4710TIP3    H135621   2.055   0.667  84.352 -0.5382  0.0754 -0.8272
 4710TIP3    H235622   2.123   0.572  84.255  1.4238 -0.3969  0.9337
 4711TIP3   OH235623   2.355   1.216  22.238 -0.2085 -0.2357 -0.3321
 4711TIP3    H135624   2.369   1.274  22.313  0.2291  0.9914 -1.3351
 4711TIP3    H235625   2.425   1.151  22.244  0.2500  0.2813 -0.0878
 4712TIP3   OH235626   1.107   0.426  28.791 -0.1211  0.1705 -0.0226
 4712TIP3    H135627   1.118   0.490  28.722 -0.1205  0.1043 -0.0838
 4712TIP3    H235628   1.186   0.435  28.845  1.3344 -1.7553 -1.6567
 4713TIP3   OH235629   1.877   0.732  88.485  0.0196 -0.1894  1.0377
 4713TIP3    H135630   1.782   0.723  88.491  0.1558 -1.5623  1.5778
 4713TIP3    H235631   1.901   0.676  88.411  0.3744  0.4254  0.6819
 4714TIP3   OH235632   1.903   1.857 105.928 -0.1304  0.2824  0.6668
 4714TIP3    H135633   1.906   1.770 105.888 -3.6131  0.7087 -0.9138
 4714TIP3    H235634   1.902   1.839 106.022  1.6755 -1.1639  0.4727
 4715TIP3   OH235635   1.095   1.911 105.397  0.3335  0.2624 -0.0123
 4715TIP3    H135636   1.120   1.821 105.376  0.5229  0.6177 -1.4064
 4715TIP3    H235637   1.021   1.902 105.457  0.6977 -0.8112  0.3072
 4716TIP3   OH235638   1.507   0.299  32.294 -0.0787 -0.0919  0.7558
 4716TIP3    H135639   1.585   0.295  32.240 -0.2467 -3.4552  0.5641
 4716TIP3    H235640   1.528   0.363  32.363  1.4283  1.6571 -1.2160
 4717TIP3   OH235641   1.881   0.234  22.115  0.4531  0.6759 -0.3524
 4717TIP3    H135642   1.965   0.205  22.080 -0.4346 -1.1161 -1.0988
 4717TIP3    H235643   1.817   0.207  22.050 -1.0296 -0.8831  1.6054
 4718TIP3   OH235644   1.506   2.626  32.066  0.8047  0.0749  0.3619
 4718TIP3    H135645   1.535   2.583  32.147  1.6011  0.9029  0.5427
 4718TIP3    H235646   1.442   2.567  32.028  2.8140 -1.9430 -0.0979
 4719TIP3   OH235647   1.871   2.088  12.591 -0.5387 -0.7080 -0.4490
 4719TIP3    H135648   1.954   2.127  12.563 -1.1031  0.5583 -0.4418
 4719TIP3    H235649   1.870   2.001  12.551  1.1563 -1.0817  0.2214
 4720TIP3   OH235650   0.813   1.794  88.001  0.5430  0.1697  0.3064
 4720TIP3    H135651   0.795   1.736  87.928 -0.4572  1.4530 -0.5176
 4720TIP3    H235652   0.903   1.825  87.986  1.2387 -1.4083  0.9685
 4721TIP3   OH235653   1.224   0.340  27.065  0.3584  0.0288 -0.0547
 4721TIP3    H135654   1.224   0.299  27.151 -1.0677  1.4225  0.6787
 4721TIP3    H235655   1.132   0.335  27.036  0.2478  2.0446 -0.2054
 4722TIP3   OH235656   1.094   1.636 107.079  0.5187 -0.5582 -0.4197
 4722TIP3    H135657   1.018   1.678 107.039  0.6734 -0.6870 -0.8551
 4722TIP3    H235658   1.071   1.628 107.172 -0.5560 -1.8189 -0.7695
 4723TIP3   OH235659   2.224   2.489  89.736  0.8168 -0.5170 -0.2850
 4723TIP3    H135660   2.130   2.474  89.740  0.7318 -0.2010 -1.0542
 4723TIP3    H235661   2.246   2.528  89.821  0.4150 -1.4607  0.2699
 4724TIP3   OH235662   2.158   1.109  84.237  0.2327  0.2914 -0.1014
 4724TIP3    H135663   2.133   1.089  84.146 -0.1526 -0.8654  0.2395
 4724TIP3    H235664   2.108   1.187  84.260 -0.8424 -0.3029 -0.3839
 4725TIP3   OH235665   1.549   0.986 111.427  0.0148 -0.0524 -0.0198
 4725TIP3    H135666   1.555   0.948 111.339  1.7836  0.5815 -0.2026
 4725TIP3    H235667   1.605   0.930 111.481 -0.5203 -0.0309  0.5787
 4726TIP3   OH235668   2.516   0.583 107.360 -0.4876 -0.1090 -0.2110
 4726TIP3    H135669   2.474   0.561 107.443 -0.4897  0.1802 -0.1332
 4726TIP3    H235670   2.504   0.506 107.305 -2.1331  0.3827 -0.5855
 4727TIP3   OH235671   1.822   0.827   6.633  0.3746  0.1614 -0.3088
 4727TIP3    H135672   1.892   0.891   6.618  0.6262 -0.3511 -1.4199
 4727TIP3    H235673   1.743   0.869   6.599  0.1481  0.6779  0.8065
 4728TIP3   OH235674   1.070   0.611  17.979 -0.5212 -0.1099  0.0638
 4728TIP3    H135675   1.100   0.581  18.065 -0.6890  0.0419  0.1772
 4728TIP3    H235676   1.149   0.614  17.925 -0.3683  0.0763  0.2963
 4729TIP3   OH235677   2.305   1.628   6.267  0.2668  0.2009  0.1314
 4729TIP3    H135678   2.209   1.625   6.262  0.2786 -0.0301  0.0264
 4729TIP3    H235679   2.327   1.717   6.241  0.1726 -0.2186 -1.5236
 4730TIP3   OH235680   1.807   1.355  76.443  0.1767  0.1007  0.1269
 4730TIP3    H135681   1.896   1.383  76.423  0.1201  1.0632  1.1355
 4730TIP3    H235682   1.811   1.326  76.534 -0.3534 -0.7327 -0.1024
 4731TIP3   OH235683   0.050   1.558   9.919  0.3989 -0.4364  0.9188
 4731TIP3    H135684  -0.034   1.515   9.938  0.4242 -1.1195 -0.4290
 4731TIP3    H235685   0.114   1.487   9.918  0.7124 -0.1555  0.2722
 4732TIP3   OH235686   2.476   0.965  38.546 -0.4429 -0.2410 -0.0914
 4732TIP3    H135687   2.527   0.957  38.626 -0.5692  0.6193  0.0868
 4732TIP3    H235688   2.387   0.941  38.572 -1.0488  2.5398  0.7015
 4733TIP3   OH235689   0.509   0.540   8.944 -0.2255 -0.1800  0.3556
 4733TIP3    H135690   0.488   0.618   8.893 -1.5997 -0.2815  0.7206
 4733TIP3    H235691   0.588   0.506   8.904  1.0940  2.0315  0.8996
 4734TIP3   OH235692   0.762   1.843 108.389  0.5401 -0.0347 -0.4748
 4734TIP3    H135693   0.682   1.892 108.369 -0.2636 -1.1571 -0.1647
 4734TIP3    H235694   0.833   1.898 108.357 -0.4375  0.3512 -2.1400
 4735TIP3   OH235695   0.536   1.509  19.191  0.6965 -0.2448 -0.3670
 4735TIP3    H135696   0.533   1.415  19.172  0.0227 -0.3429  0.2073
 4735TIP3    H235697   0.531   1.550  19.104 -0.1500 -0.7264 -0.5622
 4736TIP3   OH235698   0.915   2.550 108.674 -0.0860  0.1865 -0.3316
 4736TIP3    H135699   0.926   2.478 108.736  1.9425 -0.9624 -1.9303
 4736TIP3    H235700   0.920   2.629 108.729  1.3570 -0.7883  1.0334
 4737TIP3   OH235701   0.344   1.158  92.144 -0.5745 -0.1303  0.2344
 4737TIP3    H135702   0.265   1.189  92.101 -0.0217  1.5252  0.3399
 4737TIP3    H235703   0.394   1.115  92.074 -0.3997  1.1498 -0.4562
 4738TIP3   OH235704   1.193   2.203  90.928  0.4133  0.0062  0.3147
 4738TIP3    H135705   1.235   2.287  90.910  0.5956 -0.1255  0.1022
 4738TIP3    H235706   1.100   2.223  90.935  0.5870  0.4420  1.6838
 4739TIP3   OH235707   1.854   0.757 104.613 -0.2072  0.0097 -0.2795
 4739TIP3    H135708   1.847   0.670 104.574  0.1283 -0.0366 -0.2453
 4739TIP3    H235709   1.817   0.747 104.701  0.4562 -0.2648 -0.0240
 4740TIP3   OH235710   1.820   2.161 106.375 -0.3732  0.6429 -0.5101
 4740TIP3    H135711   1.842   2.174 106.468 -0.6820 -0.1351 -0.3155
 4740TIP3    H235712   1.873   2.225 106.328  0.1529  0.7135  0.1681
 4741TIP3   OH235713   2.582   1.682 111.113  0.5692  0.4151 -0.0978
 4741TIP3    H135714   2.560   1.632 111.191 -0.5054 -2.3477 -2.0354
 4741TIP3    H235715   2.499   1.720 111.084  0.8374  0.8596 -0.3030
 4742TIP3   OH235716   1.902   2.595  16.539 -0.2380 -0.0564  0.1198
 4742TIP3    H135717   1.817   2.596  16.496 -0.6126  1.4625  0.8542
 4742TIP3    H235718   1.957   2.653  16.487 -0.0667  0.1026  0.4752
 4743TIP3   OH235719   2.245   2.096  88.897 -0.3546  0.2017  0.1858
 4743TIP3    H135720   2.243   2.024  88.833 -0.2472 -0.3076  0.7451
 4743TIP3    H235721   2.334   2.094  88.932 -0.5194  0.2443  0.6068
 4744TIP3   OH235722   0.595   0.465   9.208  0.2601 -0.3500  0.0055
 4744TIP3    H135723   0.548   0.381   9.208 -2.0049  0.8408 -0.5515
 4744TIP3    H235724   0.581   0.500   9.120 -0.5271  1.4854  0.8215
 4745TIP3   OH235725   0.626   0.187  77.635 -0.5506 -0.2461  0.2201
 4745TIP3    H135726   0.612   0.217  77.725 -0.1465 -2.4803  1.0989
 4745TIP3    H235727   0.579   0.251  77.581 -4.5350 -1.1325  2.2501
 4746TIP3   OH235728   0.769   0.326 107.964 -0.1680  0.3158 -0.0337
 4746TIP3    H135729   0.717   0.402 107.992  0.0753  0.3205  0.4145
 4746TIP3    H235730   0.747   0.258 108.028  0.6172  0.4170  0.3552
 4747TIP3   OH235731   1.873   2.120   2.851  0.2975 -0.3140 -0.1550
 4747TIP3    H135732   1.823   2.183   2.799 -1.7388 -0.1641  1.8541
 4747TIP3    H235733   1.833   2.035   2.831  0.2695 -0.4070  0.2842
 4748TIP3   OH235734   1.472   2.214  75.283  0.3992 -0.3503  0.0090
 4748TIP3    H135735   1.393   2.205  75.336 -0.7542  0.4085 -1.5095
 4748TIP3    H235736   1.484   2.309  75.274  1.5658 -0.4520  0.2967
 4749TIP3   OH235737   0.911   0.747  85.954  0.5608 -0.0996  0.6814
 4749TIP3    H135738   0.855   0.822  85.935 -1.1694 -1.4705  0.0972
 4749TIP3    H235739   0.877   0.712  86.036  0.5170 -0.9667  0.3040
 4750TIP3   OH235740   0.636   1.311  34.159 -0.2587  0.7000 -0.5229
 4750TIP3    H135741   0.636   1.384  34.098 -0.4850  1.8363  0.7987
 4750TIP3    H235742   0.554   1.320  34.208 -1.4988 -1.8192 -1.8956
 4751TIP3   OH235743   1.588   0.246  94.859 -0.3992 -0.2627 -0.3138
 4751TIP3    H135744   1.620   0.158  94.840 -0.9811 -0.0175 -2.8361
 4751TIP3    H235745   1.650   0.305  94.816  0.2012  0.6312  1.6516
 4752TIP3   OH235746   1.825   0.130  13.717  0.2390  0.1874 -0.6340
 4752TIP3    H135747   1.755   0.132  13.782 -0.2139 -1.3817 -1.0179
 4752TIP3    H235748   1.802   0.057  13.659  1.2839  0.7450 -1.8065
 4753TIP3   OH235749   0.205   0.108 100.642 -0.1114  0.1004  0.3594
 4753TIP3    H135750   0.253   0.094 100.561  0.6076  2.5664  0.2507
 4753TIP3    H235751   0.113   0.103 100.618  0.0926 -0.9355 -0.2315
 4754TIP3   OH235752   0.109   2.105  86.538 -0.7870  1.0557  0.3629
 4754TIP3    H135753   0.127   2.168  86.469 -1.4553  0.7535 -0.1014
 4754TIP3    H235754   0.063   2.034  86.494 -1.2047  0.8483  1.1205
 4755TIP3   OH235755   1.000   0.629  89.667  0.0153 -0.2644 -0.0088
 4755TIP3    H135756   0.976   0.722  89.667  0.3598 -0.1711  0.0997
 4755TIP3    H235757   1.000   0.604  89.574  0.8473  0.0960 -0.1134
 4756TIP3   OH235758   0.748   0.391  97.178 -0.3935  0.9287 -0.3853
 4756TIP3    H135759   0.679   0.325  97.183  1.0360 -0.5825  1.1616
 4756TIP3    H235760   0.753   0.414  97.085 -0.9652 -1.1482 -0.9889
 4757TIP3   OH235761   2.649   0.112  59.046  0.5525  0.2539  0.1316
 4757TIP3    H135762   2.620   0.186  59.099 -3.1016 -1.0881  0.2934
 4757TIP3    H235763   2.568   0.069  59.018  2.4381 -2.0237 -2.3875
 4758TIP3   OH235764   2.426   0.144  57.478 -0.6897 -0.3250  0.2345
 4758TIP3    H135765   2.502   0.107  57.433 -1.4247  0.1709 -1.4985
 4758TIP3    H235766   2.457   0.226  57.516 -0.1177 -0.6402  0.4565
 4759TIP3   OH235767   1.875   1.359 111.730  0.0960  0.3591 -0.4427
 4759TIP3    H135768   1.894   1.274 111.690  1.2209  0.9295 -1.1674
 4759TIP3    H235769   1.868   1.340 111.824 -1.4016 -0.7996 -0.7484
 4760TIP3   OH235770   0.779   1.604  17.300 -0.1493 -0.1438  0.0791
 4760TIP3    H135771   0.718   1.605  17.373 -1.3663  0.9206 -0.8966
 4760TIP3    H235772   0.742   1.542  17.238 -1.2548  1.7748 -1.2801
 4761TIP3   OH235773   1.013   1.084  82.789 -0.3524 -0.1961  0.6026
 4761TIP3    H135774   1.038   1.158  82.735 -0.8737 -0.6733 -0.3195
 4761TIP3    H235775   0.949   1.119  82.851  0.4828  0.4196  1.1337
 4762TIP3   OH235776   1.650   2.416  14.025  0.1389  0.2623 -0.1302
 4762TIP3    H135777   1.582   2.447  14.085  0.3665  0.9019 -0.1925
 4762TIP3    H235778   1.722   2.478  14.037  0.5225 -0.1237 -0.4245
 4763TIP3   OH235779   1.126   2.467   3.003  0.0137 -0.3637  0.1466
 4763TIP3    H135780   1.171   2.416   3.072 -1.5970 -0.8904  0.8442
 4763TIP3    H235781   1.068   2.526   3.051 -0.5738 -0.1985 -0.7582
 4764TIP3   OH235782   2.150   1.412  29.453  0.3613  0.1057  0.3431
 4764TIP3    H135783   2.124   1.489  29.404  1.3042 -0.7204 -1.5654
 4764TIP3    H235784   2.077   1.394  29.512 -0.4708  1.6101 -0.1961
 4765TIP3   OH235785   1.376   1.451  75.111 -0.0687  0.3201  0.3941
 4765TIP3    H135786   1.455   1.396  75.112 -0.1062  0.2671  0.4310
 4765TIP3    H235787   1.410   1.541  75.114 -0.0352  0.2854  2.2010
 4766TIP3   OH235788   1.877   0.479  96.920  0.1328 -0.4550  0.0174
 4766TIP3    H135789   1.877   0.426  97.000  0.4460  0.0277  0.3383
 4766TIP3    H235790   1.966   0.468  96.884 -0.1679 -1.1092 -0.5763
 4767TIP3   OH235791   2.682   2.565  13.230  0.1095  0.5093 -0.0180
 4767TIP3    H135792   2.632   2.612  13.296 -0.5422 -0.9650  0.5902
 4767TIP3    H235793   2.773   2.567  13.263 -0.0012  0.8808  0.2686
 4768TIP3   OH235794   0.247   0.723  18.747 -0.1040 -0.6213  0.2714
 4768TIP3    H135795   0.181   0.781  18.709 -1.0361 -0.7586  1.6120
 4768TIP3    H235796   0.288   0.680  18.672  0.0142  1.1146 -0.6988
 4769TIP3   OH235797   1.221   1.917  21.558 -0.9453  0.1158 -0.4205
 4769TIP3    H135798   1.238   1.858  21.631 -1.0794  0.4758 -0.0984
 4769TIP3    H235799   1.262   1.873  21.483  0.0463  0.2018  0.0465
 4770TIP3   OH235800   1.411   1.189  88.433  0.2339 -0.2795  0.0990
 4770TIP3    H135801   1.415   1.279  88.399 -0.1615 -0.2297  0.1777
 4770TIP3    H235802   1.498   1.173  88.469  0.3411  0.0294 -0.0204
 4771TIP3   OH235803   1.411   1.290  98.714 -0.2617  0.4012 -0.0196
 4771TIP3    H135804   1.438   1.381  98.727  0.2879  0.3240 -0.5855
 4771TIP3    H235805   1.436   1.246  98.796 -0.9005  0.8260  0.4192
 4772TIP3   OH235806   2.657   1.399   0.961 -0.4180  0.2544  0.3916
 4772TIP3    H135807   2.677   1.310   0.990 -1.1220  0.0793  0.3615
 4772TIP3    H235808   2.729   1.452   0.994  0.1267 -0.3642  0.2179
 4773TIP3   OH235809   0.364   1.481  97.301  0.3592 -0.0072  0.1355
 4773TIP3    H135810   0.283   1.483  97.250  1.2455 -0.8412 -1.3635
 4773TIP3    H235811   0.392   1.390  97.300  1.5486  0.3320  0.2535
 4774TIP3   OH235812   1.071   1.458  88.069 -0.0164  0.3322 -0.1361
 4774TIP3    H135813   1.058   1.423  87.980 -1.9203 -0.1777  0.3076
 4774TIP3    H235814   1.155   1.505  88.063 -0.2375  0.5936 -2.2887
 4775TIP3   OH235815   2.222   0.871  90.009 -0.1137  0.5201  0.5711
 4775TIP3    H135816   2.253   0.912  89.928 -1.6465 -1.0529 -0.9003
 4775TIP3    H235817   2.270   0.916  90.078  2.2808  1.0120 -1.2601
 4776TIP3   OH235818   1.450   0.222  37.560 -0.0312  0.3261  0.3226
 4776TIP3    H135819   1.523   0.229  37.499 -0.5083 -1.5919 -0.5660
 4776TIP3    H235820   1.487   0.244  37.645  1.7275 -1.0584 -0.0248
 4777TIP3   OH235821   0.175   1.853   8.112 -0.1156  0.3590  0.2697
 4777TIP3    H135822   0.184   1.758   8.121  0.0646  0.3505  0.0398
 4777TIP3    H235823   0.231   1.889   8.181 -0.8905  0.3014  0.9407
 4778TIP3   OH235824   2.575   1.577  18.625  0.2152  0.5673  0.4354
 4778TIP3    H135825   2.508   1.617  18.571 -0.1707  0.5712  0.9081
 4778TIP3    H235826   2.646   1.555  18.565 -0.0760  0.8618 -0.0130
 4779TIP3   OH235827   2.553   1.749  27.936  0.6187 -0.1100 -0.0826
 4779TIP3    H135828   2.607   1.827  27.951  0.8472 -0.0470 -1.1304
 4779TIP3    H235829   2.471   1.768  27.981  1.3969 -0.1408  1.3951
 4780TIP3   OH235830   0.058   1.359  96.352 -0.3311  0.0914 -0.5317
 4780TIP3    H135831   0.114   1.385  96.279 -0.3990  0.9158 -0.3089
 4780TIP3    H235832   0.051   1.438  96.405 -0.5596 -0.4054  0.1889
 4781TIP3   OH235833   0.926   0.855  97.931  0.3495 -0.2878 -0.0896
 4781TIP3    H135834   0.942   0.805  98.011  1.1114  2.3803  1.5296
 4781TIP3    H235835   1.012   0.865  97.891  0.2828  0.1124 -0.1399
 4782TIP3   OH235836   0.352   0.031 111.094  0.1092  0.1164 -0.2981
 4782TIP3    H135837   0.262   0.009 111.072  0.1626 -0.0345 -0.3639
 4782TIP3    H235838   0.392   0.057 111.011  0.1907 -0.0356 -0.3087
 4783TIP3   OH235839   0.393   0.907  63.801  0.0733 -0.5051  0.8837
 4783TIP3    H135840   0.420   0.955  63.879  1.2627 -0.9294  0.7555
 4783TIP3    H235841   0.398   0.972  63.730 -2.0590  0.1715  1.2913
 4784TIP3   OH235842   2.095   1.693  34.549  0.5278 -0.2312  0.6870
 4784TIP3    H135843   2.076   1.603  34.525 -0.7920  0.0504  0.5863
 4784TIP3    H235844   2.068   1.700  34.640 -0.1742  0.2653  0.4511
 4785TIP3   OH235845   1.440   0.402  34.219  0.3925 -0.2762  0.1045
 4785TIP3    H135846   1.434   0.479  34.276  3.1933  0.7185 -0.7700
 4785TIP3    H235847   1.429   0.327  34.278 -0.5493  0.7636  1.2887
 4786TIP3   OH235848   2.079   0.187  15.177  0.6229 -0.3400 -0.3046
 4786TIP3    H135849   1.992   0.217  15.203  0.4369 -0.0082 -1.2653
 4786TIP3    H235850   2.118   0.154  15.258 -0.2279 -0.0904  0.2241
 4787TIP3   OH235851   1.915   1.547  86.217  0.0672 -0.2626 -0.0972
 4787TIP3    H135852   1.821   1.541  86.199 -0.1967  0.2025  1.0262
 4787TIP3    H235853   1.926   1.629  86.265  0.9838 -0.5116  0.1479
 4788TIP3   OH235854   2.298   2.334  81.586  0.0206 -0.0367  0.2926
 4788TIP3    H135855   2.240   2.357  81.515 -1.2255  0.7844  1.5296
 4788TIP3    H235856   2.376   2.298  81.543 -0.1624  1.5752 -1.5024
 4789TIP3   OH235857   2.532   1.960   2.602  0.0756  0.5575 -0.0678
 4789TIP3    H135858   2.501   2.028   2.542  0.3711 -1.4600 -2.6655
 4789TIP3    H235859   2.573   2.009   2.673 -1.2646  3.1119 -0.9163
 4790TIP3   OH235860   0.349   1.099  13.697  0.4814 -0.6963  0.0485
 4790TIP3    H135861   0.344   1.159  13.623  3.3730  1.4269  1.3493
 4790TIP3    H235862   0.326   1.152  13.773 -3.2605 -3.0269  0.7952
 4791TIP3   OH235863   2.305   0.144  88.422  0.2553 -0.3010 -0.1100
 4791TIP3    H135864   2.329   0.121  88.512 -0.9766  0.1008  0.3517
 4791TIP3    H235865   2.317   0.064  88.372  0.6218 -0.6257  0.4819
 4792TIP3   OH235866   0.099   0.074  86.802  0.6448  0.1005 -0.4044
 4792TIP3    H135867   0.119   0.165  86.778 -1.0293  0.5595 -0.2083
 4792TIP3    H235868   0.119   0.024  86.723 -0.7282  1.0099 -1.3972
 4793TIP3   OH235869   1.632   0.253  96.316 -0.5439 -0.1200  0.3779
 4793TIP3    H135870   1.715   0.207  96.329 -1.0324 -0.9717  0.5773
 4793TIP3    H235871   1.651   0.319  96.250  0.2463 -0.4385  0.2712
 4794TIP3   OH235872   0.461   2.329 106.628 -0.0660 -0.6600  0.7383
 4794TIP3    H135873   0.491   2.254 106.680  2.0360  0.9569  1.9801
 4794TIP3    H235874   0.528   2.340 106.561 -0.8021 -0.3827  0.0253
 4795TIP3   OH235875   0.099   1.509  98.880 -0.2836  0.6277 -0.2001
 4795TIP3    H135876   0.084   1.574  98.811 -0.1615 -0.0043 -0.8355
 4795TIP3    H235877   0.104   1.426  98.834  0.3964  0.2590  0.5164
 4796TIP3   OH235878   1.243   1.731  20.899  0.3674 -0.1619 -0.3704
 4796TIP3    H135879   1.250   1.642  20.934 -2.2004  0.6008  2.5118
 4796TIP3    H235880   1.295   1.784  20.958 -0.7541  0.6516 -0.0867
 4797TIP3   OH235881   1.465   0.905  64.312  0.6134  0.3353  0.5902
 4797TIP3    H135882   1.468   0.820  64.268  1.1852  0.2745  0.7444
 4797TIP3    H235883   1.423   0.886  64.396  0.8185  0.1851  0.6614
 4798TIP3   OH235884   0.608   1.599  11.787 -0.3253 -0.0911 -0.1649
 4798TIP3    H135885   0.536   1.545  11.820  0.2368 -1.5800 -1.2298
 4798TIP3    H235886   0.591   1.686  11.821 -0.5610 -1.1832  2.7994
 4799TIP3   OH235887   0.542   1.793   2.623 -0.0296  0.0212  0.6096
 4799TIP3    H135888   0.625   1.744   2.616  0.2429  0.4256  0.9832
 4799TIP3    H235889   0.563   1.880   2.589 -0.6594 -0.2702 -0.5792
 4800TIP3   OH235890   1.616   0.074  75.176  0.6461  0.3090  0.3609
 4800TIP3    H135891   1.663   0.106  75.099  1.2169  1.4645  1.1552
 4800TIP3    H235892   1.630   0.141  75.243 -1.5624  0.3374  0.8702
 4801TIP3   OH235893   2.664   2.555  68.375  0.2721 -0.4198 -0.6900
 4801TIP3    H135894   2.692   2.632  68.424  1.0480 -0.4236 -1.0915
 4801TIP3    H235895   2.721   2.555  68.297 -1.2257 -0.1520 -1.8327
 4802TIP3   OH235896   1.478   2.643 104.432  0.5528 -0.0269 -0.1560
 4802TIP3    H135897   1.522   2.655 104.349 -0.3268 -0.1879 -0.6627
 4802TIP3    H235898   1.451   2.551 104.432  0.3690  0.0217  0.2183
 4803TIP3   OH235899   1.816   0.826 106.029  0.1817 -0.3919  0.2266
 4803TIP3    H135900   1.758   0.786 106.094 -0.2217  0.6147  0.4973
 4803TIP3    H235901   1.902   0.787 106.047 -0.2927 -1.5440  0.1258
 4804TIP3   OH235902   1.588   1.700  77.699 -0.2767 -0.3191 -0.0628
 4804TIP3    H135903   1.551   1.766  77.758  0.4797 -1.4449  1.7400
 4804TIP3    H235904   1.645   1.750  77.640 -0.0928  0.7134  0.9607
 4805TIP3   OH235905   1.596   1.256 102.001 -0.1381  0.2960 -0.0225
 4805TIP3    H135906   1.606   1.162 102.016 -1.1133  0.3173  0.9227
 4805TIP3    H235907   1.548   1.287 102.078 -0.1396  1.5104 -0.4907
 4806TIP3   OH235908   2.457   0.819  72.776 -0.1162 -0.6864 -0.4830
 4806TIP3    H135909   2.503   0.793  72.856  0.0428 -2.0794 -0.9950
 4806TIP3    H235910   2.365   0.825  72.801 -0.1480 -1.7152 -0.3146
 4807TIP3   OH235911   1.474   1.074  79.435  0.6268  0.1748  0.2465
 4807TIP3    H135912   1.519   1.141  79.487  1.4216 -0.3146  0.2125
 4807TIP3    H235913   1.400   1.119  79.396  1.9317  1.3854 -0.9067
 4808TIP3   OH235914   1.494   2.130   3.214  0.5970  0.1715 -0.1348
 4808TIP3    H135915   1.547   2.175   3.279 -1.1142  0.4618  1.1350
 4808TIP3    H235916   1.557   2.081   3.161  2.3249  2.3408 -0.2282
 4809TIP3   OH235917   1.726   0.653  74.850  0.2493 -0.5822  0.0777
 4809TIP3    H135918   1.809   0.653  74.898  1.4790 -1.9789 -1.8880
 4809TIP3    H235919   1.721   0.565  74.812 -2.3110 -0.6429  0.3515
 4810TIP3   OH235920   0.181   0.485  16.691  0.2572 -0.8808 -0.3661
 4810TIP3    H135921   0.266   0.445  16.674  0.1738 -0.9049 -0.7480
 4810TIP3    H235922   0.193   0.577  16.667  0.8388 -0.3411  1.7804
 4811TIP3   OH235923   1.419   0.985  11.082 -0.0146 -0.1070 -0.4551
 4811TIP3    H135924   1.421   1.075  11.113 -0.4070 -0.3482  0.3077
 4811TIP3    H235925   1.424   0.992  10.987 -0.3349  0.7348 -0.4197
 4812TIP3   OH235926   0.071   0.815  34.332  1.0295  0.0377 -0.3664
 4812TIP3    H135927   0.101   0.873  34.261 -1.8513  0.4432 -1.3751
 4812TIP3    H235928   0.142   0.752  34.342  2.3596  1.0879 -2.3243
 4813TIP3   OH235929   0.004   0.631  69.480  0.1500 -0.5644  0.1184
 4813TIP3    H135930   0.087   0.595  69.449  0.1728 -1.2740  0.9758
 4813TIP3    H235931   0.014   0.636  69.575 -0.9625 -1.1146  0.2795
 4814TIP3   OH235932   2.562   0.784  93.318  0.0727  0.3668  0.2933
 4814TIP3    H135933   2.483   0.788  93.372  0.2892  2.6494  0.5189
 4814TIP3    H235934   2.569   0.692  93.293 -1.1836 -0.3854  2.4343
 4815TIP3   OH235935   0.809   0.467  99.418 -0.3708  0.2330  0.0156
 4815TIP3    H135936   0.735   0.413  99.391 -0.7596  1.2246 -0.9815
 4815TIP3    H235937   0.792   0.487  99.510 -0.7154 -0.5234  0.1242
 4816TIP3   OH235938   1.475   1.497   2.661  0.3711  0.1980  0.1998
 4816TIP3    H135939   1.477   1.548   2.580 -0.5934 -0.2006 -0.0810
 4816TIP3    H235940   1.555   1.445   2.658 -0.8485 -1.7402 -1.7693
 4817TIP3   OH235941   1.071   0.252 106.955 -0.0718  0.3036 -0.2174
 4817TIP3    H135942   0.986   0.293 106.938  0.2004  0.7896 -0.4180
 4817TIP3    H235943   1.100   0.291 107.038 -0.2542 -0.2088  0.0944
 4818TIP3   OH235944   1.378   0.140  80.869 -0.0679 -0.1913  0.0807
 4818TIP3    H135945   1.315   0.101  80.930  0.4428 -0.2266  0.5846
 4818TIP3    H235946   1.343   0.227  80.851  0.0427  0.0124  0.8229
 4819TIP3   OH235947   1.959   0.387  85.210 -0.2970 -0.3740  0.6929
 4819TIP3    H135948   1.991   0.337  85.284 -0.0120  0.1747  0.9475
 4819TIP3    H235949   1.879   0.342  85.183  0.1692 -1.1993  0.6534
 4820TIP3   OH235950   0.095   1.589   2.314  0.0353 -0.4296  0.0614
 4820TIP3    H135951   0.163   1.599   2.381 -0.3520 -0.4100  0.4535
 4820TIP3    H235952   0.136   1.535   2.247  0.0260 -1.4692  0.8701
 4821TIP3   OH235953   0.757   2.438  75.176  0.0609  0.4128 -0.6558
 4821TIP3    H135954   0.818   2.473  75.110  0.1871 -1.2709 -1.4856
 4821TIP3    H235955   0.689   2.395  75.125 -0.8464  0.6676  0.3076
 4822TIP3   OH235956   2.237   1.007  96.884  0.2394  0.2308 -0.4414
 4822TIP3    H135957   2.173   0.936  96.881  0.0473  0.3027  1.2645
 4822TIP3    H235958   2.321   0.963  96.872  0.0356 -0.1412 -0.5295
 4823TIP3   OH235959   0.177   0.048  93.904  0.1520 -0.7432  0.0550
 4823TIP3    H135960   0.268   0.019  93.912  0.9360  1.7373  0.8115
 4823TIP3    H235961   0.151   0.069  93.994 -0.2781  1.0406 -0.4657
 4824TIP3   OH235962   1.762   2.550 110.598 -0.2545 -0.4780 -0.3182
 4824TIP3    H135963   1.761   2.503 110.514  1.3440 -1.8092  0.3606
 4824TIP3    H235964   1.759   2.481 110.664 -1.6700  0.5588  0.7614
 4825TIP3   OH235965   2.153   1.721  16.283  0.3441 -0.5331 -0.1341
 4825TIP3    H135966   2.076   1.665  16.273  0.4529 -0.9844  1.4061
 4825TIP3    H235967   2.223   1.673  16.240  0.1679 -0.9996  0.0941
 4826TIP3   OH235968   0.831   2.176  23.425 -0.5145 -0.3046 -0.3616
 4826TIP3    H135969   0.869   2.242  23.482 -0.4610 -0.9589  0.3701
 4826TIP3    H235970   0.834   2.215  23.338  0.1912  0.3609 -0.0471
 4827TIP3   OH235971   1.773   0.921  21.190 -0.3087 -0.2125 -0.2430
 4827TIP3    H135972   1.817   0.842  21.157 -0.7860  0.1130 -1.7313
 4827TIP3    H235973   1.822   0.944  21.269  2.2316  0.1039 -1.8001
 4828TIP3   OH235974   2.343   1.052  26.442  0.8627  0.2505  0.4336
 4828TIP3    H135975   2.351   1.046  26.538 -0.6926  2.2123  0.7489
 4828TIP3    H235976   2.368   1.142  26.422 -0.4305  0.3655 -0.7992
 4829TIP3   OH235977   2.638   0.543  33.898  0.4729 -0.0589  0.3819
 4829TIP3    H135978   2.711   0.600  33.873  0.7098 -0.5169  0.0277
 4829TIP3    H235979   2.588   0.596  33.960  0.4451  0.7157 -0.2734
 4830TIP3   OH235980   1.335   1.953 110.010 -0.3686 -0.3340 -0.2550
 4830TIP3    H135981   1.241   1.939 110.006 -0.3761 -0.4606  0.2233
 4830TIP3    H235982   1.372   1.893 109.945 -0.7082  0.7489 -1.4862
 4831TIP3   OH235983   0.821   1.134 101.034  0.1698  0.5106 -0.5832
 4831TIP3    H135984   0.911   1.119 101.061  0.4021 -0.0425 -1.6111
 4831TIP3    H235985   0.821   1.222 100.996  0.0255  0.9471  0.3899
 4832TIP3   OH235986   2.239   2.202   4.283 -0.0863  0.1660 -0.1585
 4832TIP3    H135987   2.232   2.251   4.202 -2.2672  1.1057  0.5181
 4832TIP3    H235988   2.299   2.253   4.338  1.3390 -0.4396 -1.1022
 4833TIP3   OH235989   1.073   2.275  69.065 -0.5377 -0.0019  0.8747
 4833TIP3    H135990   1.057   2.362  69.027 -2.0847 -0.2039  1.0060
 4833TIP3    H235991   1.085   2.217  68.989 -1.0831  0.0497  0.7449
 4834TIP3   OH235992   0.124   2.109  63.226 -0.7932 -0.6791 -1.0456
 4834TIP3    H135993   0.192   2.163  63.184  0.1652 -2.2755 -1.6394
 4834TIP3    H235994   0.042   2.144  63.193 -0.2050  0.4846 -1.3330
 4835TIP3   OH235995   1.928   1.151  91.874 -0.1539  0.0570  0.0966
 4835TIP3    H135996   1.954   1.193  91.792 -3.0062  2.0961  0.0737
 4835TIP3    H235997   2.006   1.157  91.930  2.0337 -1.8484 -2.5041
 4836TIP3   OH235998   2.578   1.162  72.988 -0.0173  0.2623  0.0587
 4836TIP3    H135999   2.602   1.114  73.066  1.2590  1.2336  0.3020
 4836TIP3    H236000   2.621   1.115  72.916  0.2241  0.3462  0.1471
 4837TIP3   OH236001   0.257   0.998  74.266 -0.0549 -0.2640  0.1315
 4837TIP3    H136002   0.173   0.959  74.292  0.2384 -0.1802  1.2562
 4837TIP3    H236003   0.322   0.932  74.287  0.0297 -1.1180 -2.5429
 4838TIP3   OH236004   2.625   1.090  63.993  0.4578 -0.2257 -0.7386
 4838TIP3    H136005   2.565   1.064  64.063  2.2102  1.7265  1.6807
 4838TIP3    H236006   2.619   1.186  63.991  3.4847  0.0929 -0.2272
 4839TIP3   OH236007   1.590   2.185   9.792  0.4349  0.0462 -0.1679
 4839TIP3    H136008   1.666   2.204   9.736  0.9326  0.7533  0.7343
 4839TIP3    H236009   1.574   2.266   9.840  0.0167 -0.5449  0.7210
 4840TIP3   OH236010   2.165   1.897  87.659  0.0929 -0.2722  0.4136
 4840TIP3    H136011   2.178   1.803  87.653 -0.0984 -0.2860  0.2131
 4840TIP3    H236012   2.070   1.908  87.669  0.1910 -0.1472  1.3258
 4841TIP3   OH236013   0.957   0.238 102.453  0.2024 -0.1245 -0.1339
 4841TIP3    H136014   1.045   0.270 102.469 -0.4716  0.7955  2.0071
 4841TIP3    H236015   0.945   0.248 102.358  2.3083 -0.1597 -0.4528
 4842TIP3   OH236016   1.495   2.012  11.457 -0.1425  0.0889  0.1744
 4842TIP3    H136017   1.437   2.041  11.386 -0.8357  0.9025  1.0467
 4842TIP3    H236018   1.437   1.971  11.520  0.3529  0.1298  0.6633
 4843TIP3   OH236019   0.137   0.962  13.870 -0.3793 -0.1656  0.0118
 4843TIP3    H136020   0.189   0.959  13.790  0.8762 -0.8809  0.8149
 4843TIP3    H236021   0.047   0.957  13.840 -0.0811  2.0168 -1.4856
 4844TIP3   OH236022   1.617   2.315 104.514 -0.4364  0.5889  0.0747
 4844TIP3    H136023   1.624   2.377 104.441 -1.4544  0.7587  0.1063
 4844TIP3    H236024   1.677   2.349 104.580 -0.3519  1.0701 -0.2437
 4845TIP3   OH236025   2.625   1.304  83.967 -0.4615 -0.0694  0.0887
 4845TIP3    H136026   2.674   1.316  83.886  0.6156 -2.4074  0.3188
 4845TIP3    H236027   2.618   1.392  84.004  0.8111  0.7617 -1.5046
 4846TIP3   OH236028   0.335   0.129  33.106  0.0605  0.1078  0.2788
 4846TIP3    H136029   0.297   0.207  33.145 -1.0300 -0.0524 -0.4354
 4846TIP3    H236030   0.290   0.119  33.022 -0.7332 -1.9885  0.8815
 4847TIP3   OH236031   0.239   0.943  77.246  0.0031 -0.2463 -0.2117
 4847TIP3    H136032   0.303   0.981  77.306 -2.7752  2.7640  1.1290
 4847TIP3    H236033   0.238   1.002  77.171 -0.9202 -0.4767 -0.3911
 4848TIP3   OH236034   2.463   0.478   8.952  0.0058  0.3776 -0.0428
 4848TIP3    H136035   2.553   0.445   8.955  0.3465  0.9088 -2.3605
 4848TIP3    H236036   2.455   0.535   9.029  1.5474  0.0913  0.3572
 4849TIP3   OH236037   0.296   2.627  12.380 -0.4747 -0.6073  0.0212
 4849TIP3    H136038   0.388   2.629  12.405 -0.5799  1.6399  0.4363
 4849TIP3    H236039   0.254   2.690  12.439 -2.2808 -1.5882 -0.1558
 4850TIP3   OH236040   2.316   2.210 109.052 -0.3574 -0.1591 -0.1988
 4850TIP3    H136041   2.411   2.199 109.048 -0.5580 -1.8344 -0.9658
 4850TIP3    H236042   2.295   2.202 109.145  0.0698 -1.7521 -0.2100
 4851TIP3   OH236043   1.940   2.316   9.451 -0.2339  0.2214  0.0177
 4851TIP3    H136044   1.878   2.273   9.509 -1.5500  0.2557 -1.3108
 4851TIP3    H236045   1.921   2.410   9.460 -0.5585  0.2160 -0.5816
 4852TIP3   OH236046   0.875   1.104  81.966 -0.0089  0.2966  0.4601
 4852TIP3    H136047   0.930   1.026  81.978  1.1548  1.2083  1.3726
 4852TIP3    H236048   0.927   1.175  82.004 -0.1972  1.8644 -1.9778
 4853TIP3   OH236049   0.732   1.143  68.504 -0.0822  0.3096  0.5253
 4853TIP3    H136050   0.776   1.134  68.420 -0.9061 -0.0473  0.1274
 4853TIP3    H236051   0.649   1.187  68.484  0.1222  1.0711  1.2823
 4854TIP3   OH236052   1.634   2.482  96.785  0.3720 -0.0925 -0.3392
 4854TIP3    H136053   1.550   2.446  96.813  0.6765 -0.5738 -0.0278
 4854TIP3    H236054   1.683   2.494  96.867  0.5115  0.4388 -0.4917
 4855TIP3   OH236055   1.721   2.191  31.302 -0.2665 -0.3787  0.1950
 4855TIP3    H136056   1.725   2.208  31.208 -1.4228 -2.0580 -0.2085
 4855TIP3    H236057   1.807   2.217  31.335  0.3611 -0.2950 -1.4272
 4856TIP3   OH236058   0.568   1.191 110.642 -0.0953  0.0069 -0.1747
 4856TIP3    H136059   0.654   1.228 110.661 -0.7582  1.1534  0.6928
 4856TIP3    H236060   0.584   1.127 110.572  1.7324 -1.1106  1.1926
 4857TIP3   OH236061   0.833   2.149  88.359 -0.0334  0.1712 -0.2257
 4857TIP3    H136062   0.791   2.092  88.294 -2.1229  0.5749  0.6923
 4857TIP3    H236063   0.860   2.090  88.429  0.9445 -0.0776 -0.7829
 4858TIP3   OH236064   1.347   1.123  72.809  0.0491  0.1178 -0.9647
 4858TIP3    H136065   1.376   1.196  72.864 -2.3136  0.3525  0.0972
 4858TIP3    H236066   1.314   1.166  72.729  0.0559  0.0927 -0.9799
 4859TIP3   OH236067   1.528   1.291  16.428  0.3112  0.0024 -0.2807
 4859TIP3    H136068   1.558   1.203  16.452  0.1195  0.4204  1.6510
 4859TIP3    H236069   1.434   1.289  16.446  0.4003  0.7618  0.2665
 4860TIP3   OH236070   0.705   0.963  92.249  0.7435  0.3481 -0.0489
 4860TIP3    H136071   0.682   1.052  92.222  0.5091  0.5338  0.7518
 4860TIP3    H236072   0.633   0.908  92.217 -0.1990  0.7487  1.3090
 4861TIP3   OH236073   1.022   1.892  84.172 -0.3688  0.6875  0.0152
 4861TIP3    H136074   1.001   1.801  84.151 -0.3145  1.0144 -1.6418
 4861TIP3    H236075   1.068   1.888  84.256 -0.6258 -0.7721  0.1141
 4862TIP3   OH236076   2.388   1.780   3.237 -0.2096  0.0056  0.1701
 4862TIP3    H136077   2.460   1.833   3.202  0.4612 -0.9897  0.0259
 4862TIP3    H236078   2.323   1.779   3.167 -0.6871  1.4739  0.5534
 4863TIP3   OH236079   1.438   1.477  88.358  0.1957 -0.7804 -0.3365
 4863TIP3    H136080   1.486   1.488  88.440  0.7896 -0.2919 -0.7440
 4863TIP3    H236081   1.349   1.504  88.378  0.3235 -0.7273  0.1660
 4864TIP3   OH236082   2.436   2.523  99.509 -0.0906 -0.0648 -0.0253
 4864TIP3    H136083   2.394   2.532  99.595  1.9206  0.3038  0.9825
 4864TIP3    H236084   2.463   2.431  99.506  0.4267  0.0800  0.0475
 4865TIP3   OH236085   0.139   1.155  28.197  0.7671 -0.1556  0.4909
 4865TIP3    H136086   0.185   1.180  28.278  0.2533 -2.0004  1.4064
 4865TIP3    H236087   0.070   1.220  28.187  1.7531  0.9569  0.6983
 4866TIP3   OH236088   0.878   0.815   4.933 -0.3080  0.3149  0.4764
 4866TIP3    H136089   0.918   0.882   4.988 -0.9318 -0.5842  2.0647
 4866TIP3    H236090   0.922   0.734   4.957 -1.7854 -0.3826  0.9470
 4867TIP3   OH236091   2.107   2.405 108.399  0.5987  0.5235 -0.1068
 4867TIP3    H136092   2.034   2.453 108.439  0.0107 -1.9471  2.0709
 4867TIP3    H236093   2.066   2.351 108.332  1.0601  1.8718 -1.5475
 4868TIP3   OH236094   2.468   0.572 104.295  0.1370 -0.1471 -0.0798
 4868TIP3    H136095   2.478   0.631 104.370  0.3542  0.2198 -0.3999
 4868TIP3    H236096   2.509   0.618 104.222  0.5905 -0.8227 -0.2653
 4869TIP3   OH236097   1.034   2.582 103.066  0.1870  0.3157  0.5557
 4869TIP3    H136098   1.044   2.555 103.158 -0.5741  0.0161  0.5531
 4869TIP3    H236099   1.006   2.674 103.071  0.8765  0.5324  0.5977
 4870TIP3   OH236100   0.711   0.066   3.346 -0.0768  0.0439  0.1730
 4870TIP3    H136101   0.804   0.076   3.325  0.0220 -0.1160  0.5207
 4870TIP3    H236102   0.665   0.103   3.271  0.2589 -1.1974 -0.6787
 4871TIP3   OH236103   1.683   1.085  27.604  0.5535 -0.3311 -0.1315
 4871TIP3    H136104   1.762   1.128  27.637 -0.9834  2.3763  0.2665
 4871TIP3    H236105   1.631   1.068  27.682  0.2451 -1.1251 -0.4976
 4872TIP3   OH236106   0.862   1.680 101.738  0.5219  0.2318 -0.0625
 4872TIP3    H136107   0.954   1.703 101.721  0.5975 -0.6617 -1.0194
 4872TIP3    H236108   0.812   1.738 101.681  0.4525  1.0429  0.8015
 4873TIP3   OH236109   0.008   1.064 100.279 -0.0771 -0.5745  0.3129
 4873TIP3    H136110   0.056   1.023 100.352 -0.5592 -1.3507  0.2117
 4873TIP3    H236111   0.027   1.157 100.287  0.9052 -0.7916  0.6747
 4874TIP3   OH236112   1.481   0.450  77.258  0.3314  0.2084  0.4789
 4874TIP3    H136113   1.468   0.512  77.186  0.3215 -0.1473  0.1712
 4874TIP3    H236114   1.395   0.440  77.297 -0.3244 -1.7817 -1.2453
 4875TIP3   OH236115   0.800   2.413  78.663 -0.1051 -0.1021  0.0087
 4875TIP3    H136116   0.880   2.465  78.674 -0.4254  0.4663 -0.2647
 4875TIP3    H236117   0.737   2.452  78.724  0.1722 -1.2807  1.0619
 4876TIP3   OH236118   0.204   0.693 108.385 -0.0950 -0.0148 -0.5854
 4876TIP3    H136119   0.175   0.665 108.298 -2.1077 -2.4481  0.7348
 4876TIP3    H236120   0.275   0.632 108.407  0.5014  0.6815 -0.5307
 4877TIP3   OH236121   2.119   0.981  84.482 -0.6867 -0.1642  0.6122
 4877TIP3    H136122   2.157   0.998  84.396 -0.1654 -0.6606  0.7373
 4877TIP3    H236123   2.072   1.062  84.504 -1.0549 -0.1351 -0.2550
 4878TIP3   OH236124   2.369   1.189  96.720  0.5712 -0.3703 -0.0276
 4878TIP3    H136125   2.308   1.143  96.778  0.7403 -0.2538  0.2439
 4878TIP3    H236126   2.456   1.158  96.748  0.6618 -0.2055 -0.1257
 4879TIP3   OH236127   1.156   0.595  83.477 -0.1161  0.1844 -0.1360
 4879TIP3    H136128   1.129   0.672  83.428 -0.8062 -0.0320 -0.1008
 4879TIP3    H236129   1.167   0.625  83.567  1.7532  0.7241 -0.4981
 4880TIP3   OH236130   2.476   1.557 107.400  0.1943 -0.6239 -0.3672
 4880TIP3    H136131   2.484   1.550 107.305  1.0156  0.7020 -0.4325
 4880TIP3    H236132   2.449   1.648 107.415  1.7817 -0.2807  0.7170
 4881TIP3   OH236133   2.591   2.643  31.555 -0.0821  0.0528  0.3925
 4881TIP3    H136134   2.606   2.569  31.614  1.3355 -0.5463 -0.6715
 4881TIP3    H236135   2.639   2.716  31.595 -0.0016 -0.0676  0.5137
 4882TIP3   OH236136   1.941   0.233  58.209 -0.9954 -0.0066  0.3469
 4882TIP3    H136137   1.993   0.241  58.129  0.5117 -1.6232  1.0740
 4882TIP3    H236138   1.916   0.322  58.231 -0.8047  0.5487 -1.4967
 4883TIP3   OH236139   2.620   1.395  37.774 -0.0085 -0.4039  0.3529
 4883TIP3    H136140   2.701   1.389  37.724  1.2165  0.4065  2.1541
 4883TIP3    H236141   2.647   1.386  37.865 -1.6701  1.7428  1.1570
 4884TIP3   OH236142   1.310   2.283  16.015  0.0001 -0.2992  0.5166
 4884TIP3    H136143   1.322   2.258  15.924  0.4201  2.0313 -0.1530
 4884TIP3    H236144   1.376   2.233  16.063 -0.1091 -1.4159 -0.4791
 4885TIP3   OH236145   2.175   0.576  82.874  0.1529  0.4967  0.3405
 4885TIP3    H136146   2.106   0.599  82.936 -0.9429 -1.6145 -0.0222
 4885TIP3    H236147   2.200   0.660  82.835 -0.7217  1.5741  1.9754
 4886TIP3   OH236148   1.497   2.162  23.301 -0.0676 -0.2555  0.4390
 4886TIP3    H136149   1.506   2.070  23.327  0.1817  0.0724  1.5878
 4886TIP3    H236150   1.582   2.184  23.262  0.2501 -0.2403  1.1144
 4887TIP3   OH236151   1.777   0.383  25.568  0.0008  0.1330 -0.5897
 4887TIP3    H136152   1.790   0.394  25.662 -0.8157 -2.4483 -0.0898
 4887TIP3    H236153   1.824   0.456  25.528 -0.2628  1.7194  1.8303
 4888TIP3   OH236154   0.510   1.793  83.179 -0.5954  0.3518 -0.1709
 4888TIP3    H136155   0.432   1.825  83.225 -0.3717  0.1537  0.3597
 4888TIP3    H236156   0.478   1.763  83.095 -1.0113  0.7762 -0.1719
 4889TIP3   OH236157   2.408   2.169  92.276  0.3633  0.0593 -0.2301
 4889TIP3    H136158   2.433   2.205  92.191  0.2272 -0.2684 -0.4112
 4889TIP3    H236159   2.319   2.137  92.262  0.4522 -0.2671 -0.0462
 4890TIP3   OH236160   0.128   0.240  74.367 -0.0634 -0.8920  0.0807
 4890TIP3    H136161   0.088   0.325  74.387 -0.3789 -0.6143 -1.5817
 4890TIP3    H236162   0.152   0.246  74.275  0.1477 -2.5278 -0.0020
 4891TIP3   OH236163   0.940   0.173  36.490  0.2233 -0.0824  0.1789
 4891TIP3    H136164   0.880   0.113  36.534  0.2153 -0.0363  0.2294
 4891TIP3    H236165   1.021   0.122  36.479 -0.4563 -0.8263 -1.6834
 4892TIP3   OH236166   2.482   1.128  88.490 -0.5181 -0.1509 -0.2800
 4892TIP3    H136167   2.513   1.038  88.479 -0.4111 -0.0878 -0.4986
 4892TIP3    H236168   2.387   1.120  88.498 -0.7070 -0.1242 -2.2000
 4893TIP3   OH236169   0.334   2.313   1.506  0.1587  0.2408  0.3934
 4893TIP3    H136170   0.317   2.405   1.528  1.2732  0.2299  1.4344
 4893TIP3    H236171   0.403   2.316   1.440 -1.7478  0.2021 -1.6925
 4894TIP3   OH236172   1.333   1.138 107.153 -0.2182 -0.2836  0.6949
 4894TIP3    H136173   1.344   1.101 107.066 -1.5716 -1.5167  1.0174
 4894TIP3    H236174   1.305   1.228 107.137  0.8768 -0.0581 -0.1119
 4895TIP3   OH236175   2.437   1.963   3.624  0.0941 -0.0258  0.0103
 4895TIP3    H136176   2.474   1.875   3.633  0.8227  0.2612 -0.0632
 4895TIP3    H236177   2.394   1.962   3.538  1.4856  0.1523 -0.7292
 4896TIP3   OH236178   0.450   0.080 107.714  0.2176  0.6182  0.3615
 4896TIP3    H136179   0.387   0.028 107.765  1.4227  0.1441  1.4281
 4896TIP3    H236180   0.494   0.016 107.658  0.4346  0.7755  0.3492
 4897TIP3   OH236181   2.394   1.441  95.981 -0.2122 -0.3768  0.2498
 4897TIP3    H136182   2.420   1.520  95.933 -0.7680  1.5497  2.8650
 4897TIP3    H236183   2.449   1.372  95.944  0.3429  1.2050 -2.1423
 4898TIP3   OH236184   2.178   0.034  74.485 -0.4485 -0.1036 -0.1702
 4898TIP3    H136185   2.179   0.129  74.499  0.4182 -0.1643  0.2010
 4898TIP3    H236186   2.144  -0.002  74.566  0.0721 -0.1596  0.0282
 4899TIP3   OH236187   2.156   2.430 104.858 -0.1236 -0.4125  0.0069
 4899TIP3    H136188   2.095   2.498 104.829 -0.8897 -0.6820  0.9238
 4899TIP3    H236189   2.183   2.458 104.945 -1.3310 -1.8271  0.8773
 4900TIP3   OH236190   2.307   1.260  18.444 -0.0270 -0.2042 -0.2685
 4900TIP3    H136191   2.384   1.277  18.389  1.8874 -0.8329  2.0829
 4900TIP3    H236192   2.304   1.165  18.453  0.4240 -0.0678  1.6415
 4901TIP3   OH236193   1.333   2.133 101.279 -0.2623 -0.0602 -0.4598
 4901TIP3    H136194   1.409   2.080 101.302 -1.9166 -1.1383  3.2662
 4901TIP3    H236195   1.333   2.205 101.343 -2.9401 -0.7698  0.4769
 4902TIP3   OH236196   0.110   0.364  93.973 -0.4481  0.4700  0.3911
 4902TIP3    H136197   0.202   0.389  93.979  0.1403 -1.4709  0.2935
 4902TIP3    H236198   0.099   0.299  94.043 -1.1002 -1.0748 -1.0872
 4903TIP3   OH236199   2.561   0.665  29.307  0.4912 -0.3312 -0.8921
 4903TIP3    H136200   2.488   0.660  29.246 -0.1586  1.2556 -0.3080
 4903TIP3    H236201   2.520   0.660  29.394  1.2748 -1.3097 -0.5530
 4904TIP3   OH236202   1.391   2.257   0.294 -0.0949  0.5092  0.3739
 4904TIP3    H136203   1.329   2.329   0.306  0.1392  0.5881  1.1947
 4904TIP3    H236204   1.432   2.275   0.210 -0.6155  0.8893  0.1908
 4905TIP3   OH236205   2.085   2.333  80.861  0.2099 -0.1078  0.0683
 4905TIP3    H136206   2.065   2.261  80.921  0.1602  0.2924  0.5378
 4905TIP3    H236207   2.149   2.387  80.908 -1.8801  1.7327  0.9432
 4906TIP3   OH236208   0.797   2.119 107.366  0.1852  0.3420  0.3039
 4906TIP3    H136209   0.884   2.158 107.367  0.8189 -0.9705  1.8480
 4906TIP3    H236210   0.808   2.039 107.314 -0.7095  1.3033 -1.4681
 4907TIP3   OH236211   2.149   2.539  93.025 -0.0823 -0.3726  0.2043
 4907TIP3    H136212   2.163   2.619  92.976  0.2380 -0.7229 -0.2836
 4907TIP3    H236213   2.216   2.541  93.095  0.0509 -0.3088  0.0752
 4908TIP3   OH236214   2.009   1.157  26.543  0.2456 -0.3970 -0.5228
 4908TIP3    H136215   2.042   1.152  26.454  3.1242  2.5383  0.1918
 4908TIP3    H236216   1.932   1.213  26.537 -0.6199 -1.6033 -1.2930
 4909TIP3   OH236217   1.247   0.238  16.626  0.2025  0.3767 -0.0076
 4909TIP3    H136218   1.322   0.183  16.646 -0.0102 -0.1419 -0.6163
 4909TIP3    H236219   1.280   0.301  16.561 -0.2640 -0.8270 -1.4550
 4910TIP3   OH236220   0.178   1.463 102.310  0.3605 -0.1005  0.0302
 4910TIP3    H136221   0.268   1.491 102.292  0.3806 -0.0406  0.2229
 4910TIP3    H236222   0.143   1.438 102.225  0.9889 -1.3833  0.1273
 4911TIP3   OH236223   0.733   0.066  91.000  0.4790 -0.0512 -0.2703
 4911TIP3    H136224   0.696   0.006  90.935  1.0728 -0.0611 -0.6085
 4911TIP3    H236225   0.702   0.032  91.084 -1.0256  0.4727 -0.5868
 4912TIP3   OH236226   2.515   2.510   5.635  0.2753  0.2927  0.2054
 4912TIP3    H136227   2.432   2.482   5.674  0.2845  1.3368  1.0372
 4912TIP3    H236228   2.568   2.430   5.631 -0.4198 -0.2006  0.5875
 4913TIP3   OH236229   1.136   0.569  13.956 -0.3125 -0.0920 -0.4573
 4913TIP3    H136230   1.177   0.495  13.911 -0.7657 -1.9020  1.9566
 4913TIP3    H236231   1.204   0.601  14.015 -0.9688 -0.3316  0.4447
 4914TIP3   OH236232   0.458   0.552 109.242  0.1233  0.4473 -0.1128
 4914TIP3    H136233   0.468   0.617 109.312  1.2079  0.4000 -0.1969
 4914TIP3    H236234   0.472   0.601 109.161  0.4884  0.2053 -0.2023
 4915TIP3   OH236235   2.231   1.501  88.720  0.0188  0.3197  0.2682
 4915TIP3    H136236   2.272   1.579  88.682 -1.5788  1.3004  0.4678
 4915TIP3    H236237   2.224   1.439  88.648  2.7998 -0.3533  0.4457
 4916TIP3   OH236238   1.862   2.665  74.480 -0.2376  0.2221  0.4994
 4916TIP3    H136239   1.808   2.587  74.493 -2.0202  1.3712  0.4368
 4916TIP3    H236240   1.946   2.631  74.450 -0.5264 -1.7194  1.7090
 4917TIP3   OH236241   2.402   2.150  83.511 -0.3697 -0.4906  0.1178
 4917TIP3    H136242   2.313   2.129  83.483 -0.0499 -0.4476 -0.9624
 4917TIP3    H236243   2.431   2.219  83.452  0.1254  0.0328  0.9377
 4918TIP3   OH236244   1.667   1.295   7.155 -0.3960 -0.3380  0.3908
 4918TIP3    H136245   1.685   1.365   7.218 -1.2202 -0.0944  0.3569
 4918TIP3    H236246   1.609   1.235   7.201 -1.5624  0.1875 -0.3528
 4919TIP3   OH236247   0.935   0.942  90.338 -0.4949  0.0189  0.6745
 4919TIP3    H136248   0.951   0.940  90.432 -2.5016  0.6775  1.0709
 4919TIP3    H236249   0.848   0.980  90.329  0.2296  1.3620 -1.5312
 4920TIP3   OH236250   0.143   1.424  25.973 -0.1400 -0.5697 -0.5499
 4920TIP3    H136251   0.116   1.468  25.893 -0.4117 -0.9594 -0.6732
 4920TIP3    H236252   0.224   1.469  25.999 -0.4506  0.0447 -0.6328
 4921TIP3   OH236253   0.990   2.200   3.557 -0.1021 -0.3448  0.5947
 4921TIP3    H136254   0.915   2.256   3.535  0.2133  1.2964  3.2722
 4921TIP3    H236255   0.966   2.160   3.640  1.5204 -0.6960  0.9263
 4922TIP3   OH236256   0.652   2.042   4.754 -0.3601  0.4081 -0.2775
 4922TIP3    H136257   0.682   1.951   4.751  0.7730  0.7414  0.5198
 4922TIP3    H236258   0.633   2.057   4.847  0.2015  1.2182 -0.2900
 4923TIP3   OH236259   0.738   1.977  17.509 -0.2888  0.4218  0.4794
 4923TIP3    H136260   0.810   1.994  17.569  0.1395 -0.0576  0.1047
 4923TIP3    H236261   0.692   2.061  17.502  0.0833  0.6611  0.9145
 4924TIP3   OH236262   2.644   2.007  85.957  0.6132  0.2211 -0.0084
 4924TIP3    H136263   2.728   2.001  86.002  0.5036 -2.0824 -0.0126
 4924TIP3    H236264   2.647   1.938  85.891 -0.5033  1.4411 -1.3904
 4925TIP3   OH236265   1.043   2.370  26.418 -0.0813 -0.3134 -0.2082
 4925TIP3    H136266   1.072   2.448  26.371  0.8223 -0.0038  0.8191
 4925TIP3    H236267   0.982   2.326  26.358  2.1750 -0.7612 -2.3273
 4926TIP3   OH236268   0.702   0.811  96.743  0.6638  0.2154 -0.6971
 4926TIP3    H136269   0.626   0.870  96.743  1.6854  1.5942 -1.0245
 4926TIP3    H236270   0.777   0.869  96.758  1.5373 -1.3169  1.3895
 4927TIP3   OH236271   1.021   1.309  17.930  0.1252 -0.0775 -0.0234
 4927TIP3    H136272   0.942   1.332  17.979  0.1688 -0.1619  0.0886
 4927TIP3    H236273   1.033   1.380  17.868 -0.2295 -0.2276 -0.2699
 4928TIP3   OH236274   0.788   0.441  19.911  0.2322 -0.3161  0.0530
 4928TIP3    H136275   0.794   0.494  19.832 -0.9519 -1.4247 -0.8143
 4928TIP3    H236276   0.858   0.376  19.902 -0.6857 -1.2200 -0.7096
 4929TIP3   OH236277   2.269   1.201 106.856 -0.2169 -0.3522 -0.3736
 4929TIP3    H136278   2.226   1.115 106.860 -1.3297  0.2408  1.7247
 4929TIP3    H236279   2.267   1.223 106.763 -0.9995 -2.0650 -0.8217
 4930TIP3   OH236280   1.928   1.784 106.192 -0.2598 -0.4192 -0.8004
 4930TIP3    H136281   1.834   1.775 106.202 -0.3164  0.5207 -0.3892
 4930TIP3    H236282   1.965   1.748 106.272 -0.2646 -0.7147 -0.9276
 4931TIP3   OH236283   0.036   1.976  92.431  0.0065 -0.2760  0.4509
 4931TIP3    H136284  -0.049   1.970  92.475 -0.0622  1.2816  0.5886
 4931TIP3    H236285   0.037   2.064  92.393  1.2415 -0.5609 -0.2291
 4932TIP3   OH236286   0.686   1.522   4.079  0.4936 -0.1574  0.2362
 4932TIP3    H136287   0.605   1.522   4.028 -0.9201  0.0537  2.3561
 4932TIP3    H236288   0.723   1.610   4.066  0.8858 -0.5330 -1.4186
 4933TIP3   OH236289   1.819   2.117 101.100 -0.0634 -0.0533 -0.1139
 4933TIP3    H136290   1.852   2.035 101.137  1.4547 -0.3174 -1.8697
 4933TIP3    H236291   1.773   2.089 101.020  0.3636  0.7761 -0.6580
 4934TIP3   OH236292   2.414   1.344  10.436  0.0498 -0.0917 -0.1168
 4934TIP3    H136293   2.487   1.320  10.380 -0.6809 -0.6487 -0.8587
 4934TIP3    H236294   2.351   1.385  10.377 -0.2412  0.3779  0.5102
 4935TIP3   OH236295   2.544   1.550  33.950  0.1284 -0.5752  0.5460
 4935TIP3    H136296   2.618   1.549  33.889 -0.0622 -0.4163  0.3118
 4935TIP3    H236297   2.467   1.562  33.895 -0.0076 -0.0174  0.8437
 4936TIP3   OH236298   1.341   0.694  75.965 -0.0946  0.6697  0.5443
 4936TIP3    H136299   1.363   0.785  75.986 -0.5008  0.4591  2.0201
 4936TIP3    H236300   1.246   0.695  75.951  0.0386  0.6320 -0.4205
 4937TIP3   OH236301   0.823   1.071  21.670 -0.8727 -0.2869 -0.4343
 4937TIP3    H136302   0.862   1.107  21.590 -1.1435  2.1571  0.4439
 4937TIP3    H236303   0.743   1.122  21.683  0.0384  0.6568  2.2743
 4938TIP3   OH236304   1.570   1.894  84.426 -0.0752  0.2404 -0.2994
 4938TIP3    H136305   1.515   1.819  84.451  1.0127 -0.4466  0.1282
 4938TIP3    H236306   1.547   1.911  84.335 -0.0036 -0.9417 -0.5568
 4939TIP3   OH236307   2.480   0.337  27.153 -0.9620 -0.0514  0.0745
 4939TIP3    H136308   2.406   0.396  27.168 -0.0189  1.5161 -1.0880
 4939TIP3    H236309   2.535   0.383  27.089  0.7633 -1.3821  0.5129
 4940TIP3   OH236310   1.017   2.019  31.745 -0.1607  0.2850 -0.3355
 4940TIP3    H136311   0.983   1.966  31.817 -0.2932 -0.1820 -0.7396
 4940TIP3    H236312   1.013   1.962  31.668 -0.5212  0.9408 -0.8260
 4941TIP3   OH236313   1.595   2.625  90.596 -0.3405  0.0123 -0.0880
 4941TIP3    H136314   1.516   2.582  90.628 -0.4351  0.4112  0.2211
 4941TIP3    H236315   1.582   2.717  90.616  0.2438  0.0711  0.0579
 4942TIP3   OH236316   2.280   2.044 107.663  0.3469 -0.3077 -0.4268
 4942TIP3    H136317   2.346   2.005 107.720  1.1559 -0.3590 -1.3795
 4942TIP3    H236318   2.219   1.973 107.644  0.6011 -0.5333 -0.3937
 4943TIP3   OH236319   2.295   1.511  23.570 -0.0437  0.5799  0.0715
 4943TIP3    H136320   2.311   1.509  23.665  0.1164  0.0414  0.0345
 4943TIP3    H236321   2.341   1.435  23.536  1.5969  1.8754 -0.7268
 4944TIP3   OH236322   2.169   1.091 100.092 -0.3052  0.4882  0.1821
 4944TIP3    H136323   2.217   1.146 100.154  0.0702 -0.2448  0.5449
 4944TIP3    H236324   2.177   1.137 100.009 -0.8940  1.5401  0.6714
 4945TIP3   OH236325   0.613   0.034  76.404 -0.4190 -0.0702  0.4394
 4945TIP3    H136326   0.633   0.022  76.497  0.0893  1.4378  0.5503
 4945TIP3    H236327   0.689  -0.001  76.358 -0.2663  0.0175  0.6200
 4946TIP3   OH236328   1.020   1.468  53.034  0.1940  0.6867 -0.9086
 4946TIP3    H136329   0.984   1.443  53.119  1.5181  3.2031  0.5088
 4946TIP3    H236330   1.094   1.408  53.021  0.2529  0.5714 -0.0643
 4947TIP3   OH236331   1.592   2.270  13.808  0.0387 -0.2397  0.5511
 4947TIP3    H136332   1.515   2.232  13.851 -0.1861 -1.3284 -0.7338
 4947TIP3    H236333   1.618   2.343  13.864 -3.5083  1.8881 -0.2589
 4948TIP3   OH236334   2.317   0.765  35.647  0.5098 -0.0892  0.0615
 4948TIP3    H136335   2.307   0.735  35.557 -1.1454  2.4865 -0.6936
 4948TIP3    H236336   2.383   0.833  35.643 -1.9590  2.4747  0.0624
 4949TIP3   OH236337   0.674   1.538  80.946 -0.0157 -0.3832  1.1247
 4949TIP3    H136338   0.725   1.543  80.866 -1.5596 -3.4579 -0.2130
 4949TIP3    H236339   0.724   1.478  81.002 -1.1722 -1.9773  0.5188
 4950TIP3   OH236340   1.699   2.566 103.953 -0.1987  0.4083  0.0592
 4950TIP3    H136341   1.709   2.561 104.048 -1.2241  0.0007  0.1675
 4950TIP3    H236342   1.683   2.659 103.936  0.4337  0.5503  0.2355
 4951TIP3   OH236343   1.469   2.101  79.415 -0.1241 -0.1476 -0.0454
 4951TIP3    H136344   1.543   2.041  79.405 -1.3833 -1.9561  0.9242
 4951TIP3    H236345   1.506   2.179  79.456  1.4139 -0.5671 -0.5597
 4952TIP3   OH236346   0.244   0.433   8.948  0.4741 -0.3857 -0.1454
 4952TIP3    H136347   0.252   0.340   8.970  0.1434  0.1203  2.3756
 4952TIP3    H236348   0.330   0.470   8.966  0.3554 -0.0481 -0.2647
 4953TIP3   OH236349   0.897   1.803  98.578  0.1091  0.5924 -0.2758
 4953TIP3    H136350   0.961   1.772  98.513  0.2946  0.6371 -0.1139
 4953TIP3    H236351   0.878   1.726  98.631 -0.2279  0.4948 -0.5322
 4954TIP3   OH236352   1.504   0.157  23.115  0.4476  1.1496 -0.2010
 4954TIP3    H136353   1.467   0.232  23.161 -0.8435  0.2594  0.2569
 4954TIP3    H236354   1.446   0.084  23.136  1.0099  0.2591 -1.5775
 4955TIP3   OH236355   0.671   1.990   5.415  0.2233  0.1326  0.6970
 4955TIP3    H136356   0.767   1.988   5.413  0.1966 -0.4810 -0.0726
 4955TIP3    H236357   0.645   1.899   5.424 -0.2915  0.3204  1.1588
 4956TIP3   OH236358   1.172   0.170  11.980 -0.0493  0.5692 -0.0351
 4956TIP3    H136359   1.245   0.183  12.041 -0.7758  0.3750  0.8936
 4956TIP3    H236360   1.124   0.252  11.981 -1.3433 -0.1437  1.4175
 4957TIP3   OH236361   1.060   1.930 109.944  0.0465  0.0121 -0.4640
 4957TIP3    H136362   0.975   1.971 109.959 -1.7548 -3.6592  0.4427
 4957TIP3    H236363   1.048   1.877 109.865  1.9988  0.4728 -1.1371
 4958TIP3   OH236364   2.471   1.452  29.134 -0.0599  0.6383 -0.1217
 4958TIP3    H136365   2.461   1.433  29.041 -0.6936  3.0794 -0.6256
 4958TIP3    H236366   2.399   1.512  29.154  0.5850  0.8513  1.7349
 4959TIP3   OH236367   0.316   2.254  37.234  0.1613 -0.1914  0.4608
 4959TIP3    H136368   0.255   2.212  37.294  1.0724 -0.4779  1.2115
 4959TIP3    H236369   0.267   2.264  37.153 -0.9420 -0.2245  1.1092
 4960TIP3   OH236370   2.549   1.868  73.173 -0.3819 -0.1643 -0.0988
 4960TIP3    H136371   2.492   1.925  73.121 -1.5984  0.7062  2.0553
 4960TIP3    H236372   2.491   1.830  73.239  0.8384 -2.2705 -0.1693
 4961TIP3   OH236373   1.492   1.370  30.909  0.2567  0.7000  0.1082
 4961TIP3    H136374   1.507   1.299  30.847  0.0308  0.3611  0.4361
 4961TIP3    H236375   1.410   1.346  30.953  0.9509  0.3974  1.2759
 4962TIP3   OH236376   0.918   2.206  11.979 -0.1501  0.0066 -0.1344
 4962TIP3    H136377   0.920   2.141  12.049 -1.8438  0.4504  0.3886
 4962TIP3    H236378   0.845   2.263  12.003  1.0995  1.9475 -0.7082
 4963TIP3   OH236379   1.776   0.103  78.200 -0.6676 -0.7301  0.8025
 4963TIP3    H136380   1.749   0.061  78.118 -1.5600  0.8190  0.2580
 4963TIP3    H236381   1.694   0.115  78.249 -0.2351 -0.9737  1.6201
 4964TIP3   OH236382   2.275   1.576  93.155  0.3648  0.2374 -0.1819
 4964TIP3    H136383   2.261   1.555  93.247  1.3515 -0.9199 -0.2721
 4964TIP3    H236384   2.193   1.554  93.112  0.3557 -0.5389  0.2188
 4965TIP3   OH236385   2.021   2.257  12.123  0.2070 -0.4136  0.4202
 4965TIP3    H136386   2.111   2.278  12.149  0.6959 -0.2697 -1.2597
 4965TIP3    H236387   1.969   2.330  12.156  0.5645 -0.8862  2.1035
 4966TIP3   OH236388   2.578   0.092   2.242 -0.1203  0.5150  0.2383
 4966TIP3    H136389   2.579   0.086   2.337  0.1127  0.6338  0.2444
 4966TIP3    H236390   2.670   0.103   2.217 -0.0256 -0.8926 -0.0998
 4967TIP3   OH236391   0.996   2.583  36.807 -0.5708  0.3154 -0.1204
 4967TIP3    H136392   0.981   2.500  36.853  1.8536  0.1250  0.4865
 4967TIP3    H236393   1.020   2.557  36.718 -0.4877  0.4175 -0.1265
 4968TIP3   OH236394   0.730   1.545 103.041  0.3843  0.2923 -0.1254
 4968TIP3    H136395   0.642   1.578 103.055 -0.4224 -1.9929  0.7591
 4968TIP3    H236396   0.774   1.554 103.126  0.0198 -1.1126  0.2516
 4969TIP3   OH236397   2.218   0.646  83.965 -0.2970 -0.0666  0.0659
 4969TIP3    H136398   2.172   0.592  84.029  2.3387 -0.3778  1.8205
 4969TIP3    H236399   2.244   0.724  84.013  1.1108  0.0416 -0.8185
 4970TIP3   OH236400   1.703   0.855  98.406 -0.0855  0.0379  0.3770
 4970TIP3    H136401   1.670   0.885  98.491  1.3504  1.2361  0.5414
 4970TIP3    H236402   1.640   0.889  98.342 -1.0028 -0.6048  0.9033
 4971TIP3   OH236403   1.399   2.626  98.746 -0.1056 -0.1096  0.3903
 4971TIP3    H136404   1.456   2.703  98.744  0.9915 -0.8179  2.0921
 4971TIP3    H236405   1.317   2.658  98.785  0.7851 -0.0061  2.2849
 4972TIP3   OH236406   1.990   1.230  30.779  0.1165 -0.1075  0.2980
 4972TIP3    H136407   1.940   1.157  30.815 -0.1460  0.0517  0.2614
 4972TIP3    H236408   2.053   1.252  30.848 -0.2419  0.0567  0.5807
 4973TIP3   OH236409   0.213   0.645  68.086  0.5710  0.9532  0.2691
 4973TIP3    H136410   0.159   0.676  68.159  2.2885  1.7870  1.2715
 4973TIP3    H236411   0.214   0.719  68.025 -1.1938  0.1066 -0.8423
 4974TIP3   OH236412   2.410   1.980   7.407  0.2310 -0.0449  0.2295
 4974TIP3    H136413   2.504   1.996   7.406 -0.2319  3.3392  0.5652
 4974TIP3    H236414   2.392   1.950   7.496  0.6806  2.1272  1.1085
 4975TIP3   OH236415   1.242   1.511  19.966  0.1736 -0.1916 -0.1012
 4975TIP3    H136416   1.330   1.545  19.951  0.2440 -1.1116 -2.1318
 4975TIP3    H236417   1.204   1.571  20.030  1.0938  2.3018 -1.7177
 4976TIP3   OH236418   2.603   1.634  13.861  0.3739  0.1940  0.1141
 4976TIP3    H136419   2.579   1.570  13.928 -0.2856 -0.2835 -0.5600
 4976TIP3    H236420   2.679   1.596  13.818 -0.5132 -0.5595 -0.8330
 4977TIP3   OH236421   1.189   1.719  29.181  0.0442  0.2594 -0.7346
 4977TIP3    H136422   1.237   1.665  29.243 -0.0934  1.1958  0.2330
 4977TIP3    H236423   1.193   1.671  29.099  1.4304 -0.3509 -0.3448
 4978TIP3   OH236424   0.083   1.131  82.626  0.0995  0.1069 -0.3899
 4978TIP3    H136425   0.035   1.052  82.653 -2.2617  1.8862  0.9516
 4978TIP3    H236426   0.026   1.175  82.564  0.4833  1.6987  0.3283
 4979TIP3   OH236427   2.497   1.394  22.116 -0.2466 -0.3788 -0.1715
 4979TIP3    H136428   2.440   1.337  22.167 -0.1459  0.4071  0.8726
 4979TIP3    H236429   2.574   1.406  22.171  0.0363  0.1864 -0.6740
 4980TIP3   OH236430   1.520   0.184  36.911 -0.5972 -0.4078 -0.0410
 4980TIP3    H136431   1.493   0.221  36.827 -2.0716  0.6824  0.8756
 4980TIP3    H236432   1.615   0.173  36.903 -0.5597  0.6861 -1.4518
 4981TIP3   OH236433   2.336   2.397  11.530 -0.2532 -0.1243  0.1160
 4981TIP3    H136434   2.421   2.404  11.486  0.4892 -0.8853  1.3541
 4981TIP3    H236435   2.353   2.340  11.605 -0.8928  2.8898  2.7231
 4982TIP3   OH236436   0.419   0.908  63.341  0.6379  0.1822  0.3008
 4982TIP3    H136437   0.452   0.940  63.257 -1.3647  0.1896 -0.5409
 4982TIP3    H236438   0.478   0.947  63.406  1.9757  0.5195 -1.0431
 4983TIP3   OH236439   2.184   1.548  90.533 -0.1743 -0.3979 -0.3115
 4983TIP3    H136440   2.128   1.539  90.456 -0.3127  1.3778 -0.4666
 4983TIP3    H236441   2.158   1.476  90.590 -2.1380 -0.0526 -0.6842
 4984TIP3   OH236442   0.352   2.363  12.324 -0.0407  0.2892 -0.0221
 4984TIP3    H136443   0.354   2.352  12.229  0.6615 -1.6777  0.1808
 4984TIP3    H236444   0.331   2.456  12.336 -0.4194  0.5308 -2.0779
 4985TIP3   OH236445   1.605   0.734  77.189 -0.0708 -0.2766  0.1804
 4985TIP3    H136446   1.624   0.813  77.239  1.7744 -1.4747  1.5120
 4985TIP3    H236447   1.520   0.751  77.148  0.3404  2.4160  0.2861
 4986TIP3   OH236448   1.710   0.109 111.078  0.7730  0.1701 -0.2671
 4986TIP3    H136449   1.756   0.028 111.055  0.1444 -1.0209  2.3311
 4986TIP3    H236450   1.735   0.125 111.169  0.1173  2.4091 -0.4354
 4987TIP3   OH236451   0.998   1.389   0.139 -0.2356 -0.0352 -0.3297
 4987TIP3    H136452   1.089   1.365   0.124 -0.2637  0.4099 -1.2816
 4987TIP3    H236453   1.002   1.478   0.174 -0.3056 -0.0028 -0.4043
 4988TIP3   OH236454   0.550   1.638   5.163  0.2314  0.9306  0.3464
 4988TIP3    H136455   0.506   1.560   5.198  1.1886  1.0373  1.8963
 4988TIP3    H236456   0.614   1.661   5.230  1.3383  1.8940 -0.9908
 4989TIP3   OH236457   2.125   0.023  14.966  0.2282 -0.5832 -0.1194
 4989TIP3    H136458   2.153  -0.048  15.023 -0.4618 -0.8096 -0.0497
 4989TIP3    H236459   2.108   0.096  15.025 -0.5075 -0.8242 -0.0188
 4990TIP3   OH236460   2.446   1.298  19.360 -0.2373 -0.3327  0.3851
 4990TIP3    H136461   2.496   1.351  19.423  1.1713 -0.8570 -0.2635
 4990TIP3    H236462   2.435   1.214  19.403 -0.2172 -0.3448  0.3672
 4991TIP3   OH236463   0.815   0.573  10.799  0.1503  0.0339 -0.1292
 4991TIP3    H136464   0.840   0.624  10.876  0.5999 -1.0993  0.4877
 4991TIP3    H236465   0.851   0.622  10.725  1.3817  0.1348  0.5246
 4992TIP3   OH236466   1.795   1.052  86.909  0.0372  0.4253 -0.3242
 4992TIP3    H136467   1.787   1.108  86.987 -0.8765  0.1902 -0.2318
 4992TIP3    H236468   1.708   1.013  86.900  0.3451 -0.0988 -1.0573
 4993TIP3   OH236469   2.244   1.671  35.699  0.0551 -0.6067 -0.4385
 4993TIP3    H136470   2.268   1.676  35.606 -1.0071 -0.5477 -0.7236
 4993TIP3    H236471   2.242   1.578  35.719  0.5060 -0.6123 -0.4114
 4994TIP3   OH236472   0.826   1.422   3.433 -0.5426 -0.4272  0.3385
 4994TIP3    H136473   0.849   1.372   3.356  0.1750  0.2637  0.1001
 4994TIP3    H236474   0.783   1.501   3.399  0.7673  0.4180  0.5630
 4995TIP3   OH236475   0.525   1.420  11.352  0.1596  0.1027  0.2010
 4995TIP3    H136476   0.497   1.413  11.444 -0.5021 -0.1930 -0.0227
 4995TIP3    H236477   0.470   1.357  11.305  0.0262  0.7432 -0.5114
 4996TIP3   OH236478   1.245   0.169  77.179 -0.4890 -0.0145  0.2811
 4996TIP3    H136479   1.275   0.100  77.119 -2.1339 -0.5956  0.0695
 4996TIP3    H236480   1.197   0.230  77.123  0.1704  0.8449  0.6262
 4997TIP3   OH236481   1.265   2.410  74.010  0.1033  0.1396  0.2464
 4997TIP3    H136482   1.286   2.317  74.010 -0.9546 -0.1944 -2.6269
 4997TIP3    H236483   1.347   2.453  73.985 -0.3892 -0.4861 -2.8537
 4998TIP3   OH236484   0.726   2.043   2.009 -0.0567 -0.1944  0.2556
 4998TIP3    H136485   0.756   2.131   1.988 -0.9934  0.6665  2.2346
 4998TIP3    H236486   0.635   2.041   1.979  0.1251 -0.6950 -0.2783
 4999TIP3   OH236487   2.682   1.815 103.440  0.0605  0.6665 -0.2976
 4999TIP3    H136488   2.632   1.895 103.453 -0.8094  0.1278 -0.2339
 4999TIP3    H236489   2.752   1.839 103.379  0.5247  1.7459  0.6116
 5000TIP3   OH236490   1.247   1.713  80.553 -0.5939  0.5470 -0.1696
 5000TIP3    H136491   1.308   1.663  80.608  1.2993  0.9278 -1.7726
 5000TIP3    H236492   1.163   1.668  80.562 -0.1703  0.1439  2.3383
 5001TIP3   OH236493   1.517   2.634 107.300  0.0650  0.1816 -0.3095
 5001TIP3    H136494   1.562   2.579 107.365  0.3399 -1.7536 -2.0122
 5001TIP3    H236495   1.587   2.679 107.254  0.3600 -2.0897 -2.3101
 5002TIP3   OH236496   0.218   0.489  52.536 -0.0875  0.8779  0.1014
 5002TIP3    H136497   0.285   0.557  52.528  0.7007  0.3192  1.5290
 5002TIP3    H236498   0.227   0.458  52.626 -0.9722 -0.5630 -0.2862
 5003TIP3   OH236499   1.123   1.241  11.483 -0.5125  0.2900 -0.2236
 5003TIP3    H136500   1.100   1.334  11.488  1.4956  0.7885  0.7389
 5003TIP3    H236501   1.051   1.196  11.526 -0.7066  1.5730  0.8516
 5004TIP3   OH236502   1.745   1.919   8.608  0.2835 -0.0978 -0.0034
 5004TIP3    H136503   1.682   1.951   8.673 -0.2336 -0.4219 -0.3369
 5004TIP3    H236504   1.766   1.830   8.637 -0.0202 -0.2782 -0.3231
 5005TIP3   OH236505   0.995   0.753 109.744 -0.3591 -0.0607 -0.0715
 5005TIP3    H136506   1.076   0.734 109.791  0.3366  0.9011 -0.8307
 5005TIP3    H236507   1.018   0.826 109.685 -1.2226 -1.1363 -1.8223
 5006TIP3   OH236508   2.223   1.765  18.095  0.4867 -0.2092 -0.0190
 5006TIP3    H136509   2.187   1.708  18.164  1.1412  0.9732  1.3493
 5006TIP3    H236510   2.186   1.851  18.114  1.5728  0.3640 -0.4726
 5007TIP3   OH236511   1.719   1.011 107.733 -0.0516  0.4754  0.1916
 5007TIP3    H136512   1.783   0.981 107.798  0.3314  0.2361 -0.2829
 5007TIP3    H236513   1.717   1.106 107.743  0.9205  0.5554 -0.2739
 5008TIP3   OH236514   1.875   2.074  85.531 -0.1364  0.1704  0.0708
 5008TIP3    H136515   1.921   2.082  85.614 -0.8402 -1.1415  0.6124
 5008TIP3    H236516   1.783   2.069  85.554 -0.5254  1.7299 -0.9431
 5009TIP3   OH236517   1.064   0.399  15.521 -0.2561 -0.4684 -0.2173
 5009TIP3    H136518   0.985   0.363  15.560 -0.2678 -2.1172 -1.6471
 5009TIP3    H236519   1.035   0.480  15.478 -1.3381 -1.3676 -1.2451
 5010TIP3   OH236520   0.371   1.875  82.519  0.0491 -0.0763 -0.3336
 5010TIP3    H136521   0.322   1.876  82.437  1.6692 -0.1872 -1.3561
 5010TIP3    H236522   0.438   1.943  82.507  1.0455 -0.9022  0.3988
 5011TIP3   OH236523   2.090   1.688  85.677  0.0448  0.4388 -0.9041
 5011TIP3    H136524   2.098   1.718  85.768 -3.0413 -0.3425 -0.2400
 5011TIP3    H236525   2.160   1.624  85.667 -0.6969 -0.9140  1.6520
 5012TIP3   OH236526   0.229   1.917   9.871 -0.0268  0.3875 -0.3101
 5012TIP3    H136527   0.165   1.881   9.932 -0.6738  0.8139 -0.7206
 5012TIP3    H236528   0.222   2.012   9.882  0.9127  0.4265  0.0125
 5013TIP3   OH236529   1.960   0.417 108.617 -0.0826 -0.0139 -0.2248
 5013TIP3    H136530   2.048   0.451 108.635  0.0490  0.6156 -1.8690
 5013TIP3    H236531   1.961   0.327 108.650  0.7360  0.4215  0.9792
 5014TIP3   OH236532   2.615   1.138  33.169 -0.5039  0.3507  0.3274
 5014TIP3    H136533   2.707   1.143  33.142  0.0046  0.4642  1.9289
 5014TIP3    H236534   2.566   1.134  33.088  0.9767 -0.5933 -0.5647
 5015TIP3   OH236535   1.271   1.097  77.582  0.0648 -0.1103 -0.5227
 5015TIP3    H136536   1.206   1.164  77.559 -0.0154  0.2831  0.8022
 5015TIP3    H236537   1.300   1.121  77.670  1.4180 -0.7468 -0.7747
 5016TIP3   OH236538   2.242   2.424  79.112  0.4087  0.2637 -0.2108
 5016TIP3    H136539   2.292   2.433  79.031  1.6754 -0.6300  0.4329
 5016TIP3    H236540   2.282   2.488  79.171  0.2754  0.0824  0.0773
 5017TIP3   OH236541   1.470   1.198  15.482 -0.1796 -0.1980 -0.0516
 5017TIP3    H136542   1.499   1.164  15.566 -0.5817 -2.2502 -0.6988
 5017TIP3    H236543   1.549   1.199  15.427 -0.0463  0.5526  0.1338
 5018TIP3   OH236544   0.310   1.689  81.682 -0.4043  0.2979 -0.0560
 5018TIP3    H136545   0.257   1.649  81.750  0.4758 -0.8363 -0.0118
 5018TIP3    H236546   0.246   1.718  81.616 -1.2378  1.1169  1.0710
 5019TIP3   OH236547   0.834   2.462   8.121 -0.2884 -0.5553  0.0801
 5019TIP3    H136548   0.861   2.504   8.039  0.7101 -0.2084  0.5772
 5019TIP3    H236549   0.907   2.477   8.181 -0.3561 -2.1005  0.5917
 5020TIP3   OH236550   2.371   2.616  29.322  0.2915  0.3487 -0.6177
 5020TIP3    H136551   2.368   2.667  29.403  0.7171 -0.0981 -0.3119
 5020TIP3    H236552   2.288   2.635  29.278  0.1038  0.6741 -0.1269
 5021TIP3   OH236553   2.251   1.288 104.048  0.2031 -0.2917 -0.2123
 5021TIP3    H136554   2.210   1.314 103.965 -0.0786  0.5749  0.1879
 5021TIP3    H236555   2.302   1.364 104.075  1.1861 -0.9603 -0.1316
 5022TIP3   OH236556   1.255   2.019  98.042 -0.1477 -0.1240  0.0152
 5022TIP3    H136557   1.209   2.097  98.074  0.3545 -0.0227  0.5093
 5022TIP3    H236558   1.237   1.952  98.108  1.0404  0.1362  0.6215
 5023TIP3   OH236559   0.255   1.926  28.431 -0.1514  0.1534  0.1405
 5023TIP3    H136560   0.191   1.986  28.471 -0.7088 -0.6076  0.4195
 5023TIP3    H236561   0.201   1.863  28.383  0.3202 -1.1038  1.2036
 5024TIP3   OH236562   1.445   0.141   9.152  0.1906 -0.1647 -0.0413
 5024TIP3    H136563   1.446   0.048   9.128  1.4591 -0.3787  0.7477
 5024TIP3    H236564   1.514   0.181   9.099 -1.3158  0.6598 -1.4744
 5025TIP3   OH236565   0.482   1.040 104.653  0.3716  0.0241 -0.3887
 5025TIP3    H136566   0.563   1.046 104.704  0.2167 -0.2576 -0.1100
 5025TIP3    H236567   0.433   0.969 104.694  0.7699 -1.0066 -1.6373
 5026TIP3   OH236568   0.375   1.058  93.124  0.4525 -0.5314  0.2567
 5026TIP3    H136569   0.447   1.008  93.086  0.0904 -1.3310  0.6185
 5026TIP3    H236570   0.406   1.149  93.123  0.7305 -0.6231 -1.2805
 5027TIP3   OH236571   0.731   1.698  11.095 -0.0743 -0.1448  0.1067
 5027TIP3    H136572   0.754   1.623  11.150  2.0932 -0.0372 -0.5384
 5027TIP3    H236573   0.648   1.674  11.054 -0.0870 -1.6173  0.9366
 5028TIP3   OH236574   0.959   2.447  15.710  0.0328 -0.0106 -0.7738
 5028TIP3    H136575   0.864   2.435  15.711 -0.1296  1.1677 -0.0149
 5028TIP3    H236576   0.989   2.409  15.793  0.2761 -0.6397 -1.1396
 5029TIP3   OH236577   2.064   2.287  81.872 -0.3214  0.5302 -0.2256
 5029TIP3    H136578   2.060   2.192  81.859  0.4530  0.7177 -2.0898
 5029TIP3    H236579   2.034   2.324  81.789  0.5489  1.9040  0.0434
 5030TIP3   OH236580   2.080   1.685  95.012  0.4989  0.0718 -0.4056
 5030TIP3    H136581   2.041   1.639  94.938  0.8309 -0.2195 -0.4076
 5030TIP3    H236582   2.043   1.642  95.089  1.5940 -0.9090 -0.3964
 5031TIP3   OH236583   1.063   0.316  92.980  0.2833 -0.1620 -0.1065
 5031TIP3    H136584   1.035   0.403  92.953  2.3928  0.5530 -0.1963
 5031TIP3    H236585   1.012   0.297  93.058 -0.8803  0.7395 -0.6225
 5032TIP3   OH236586   2.318   2.058  35.831 -0.3687 -0.3925 -0.5428
 5032TIP3    H136587   2.385   2.034  35.895  0.4539 -0.0525 -1.2576
 5032TIP3    H236588   2.258   1.984  35.831 -1.2418  0.2437  1.7184
 5033TIP3   OH236589   0.862   1.163 109.201  0.1651  0.3173 -0.2872
 5033TIP3    H136590   0.894   1.229 109.139 -0.4506  0.1830 -0.7565
 5033TIP3    H236591   0.769   1.154 109.181 -0.4620  1.5330  1.8164
 5034TIP3   OH236592   0.807   1.361  95.427 -0.7520  0.0748 -0.1314
 5034TIP3    H136593   0.879   1.311  95.465 -1.1031 -1.2476 -1.1631
 5034TIP3    H236594   0.803   1.441  95.481  1.0525 -0.1101  0.3403
 5035TIP3   OH236595   0.784   1.364 109.905 -0.0548  0.1817  0.2230
 5035TIP3    H136596   0.822   1.276 109.909 -0.9821 -0.2855 -0.8464
 5035TIP3    H236597   0.689   1.349 109.905 -0.2318  1.2198  0.6883
 5036TIP3   OH236598   0.745   2.683  33.170 -0.1647 -0.4204 -0.1256
 5036TIP3    H136599   0.833   2.681  33.209  0.3901 -0.3543 -1.3186
 5036TIP3    H236600   0.696   2.745  33.224  0.9952  0.7670 -0.3952
 5037TIP3   OH236601   2.675   1.379  91.170  0.3255 -0.1177 -0.7122
 5037TIP3    H136602   2.757   1.352  91.211  0.5691  0.2873 -0.9202
 5037TIP3    H236603   2.627   1.423  91.239  0.8237  0.7482 -0.8990
 5038TIP3   OH236604   2.213   0.767   4.866  0.3033 -0.8203 -0.5221
 5038TIP3    H136605   2.277   0.828   4.903 -1.7886  0.9237  0.4009
 5038TIP3    H236606   2.214   0.786   4.772  0.5656 -0.2257 -0.4041
 5039TIP3   OH236607   0.080   2.301  69.776 -0.2408  0.1894  0.0993
 5039TIP3    H136608   0.156   2.279  69.723  1.0398  1.0148  1.5316
 5039TIP3    H236609   0.084   2.396  69.787 -1.1147  0.1691  0.7408
 5040TIP3   OH236610   0.550   1.073  28.611 -0.3107 -0.2488 -0.7108
 5040TIP3    H136611   0.596   1.153  28.586 -0.5161 -0.4404 -1.7595
 5040TIP3    H236612   0.620   1.009  28.626 -0.0877  0.4026  1.2517
 5041TIP3   OH236613   0.576   0.456  10.825 -0.0243 -0.0651 -0.0592
 5041TIP3    H136614   0.652   0.512  10.843  0.1011 -0.1915 -0.1956
 5041TIP3    H236615   0.607   0.367  10.838 -0.2782 -0.0945  0.3474
 5042TIP3   OH236616   2.189   1.960  30.560 -0.0244  0.4445 -0.3189
 5042TIP3    H136617   2.230   1.923  30.482  1.6748  0.4456  0.5373
 5042TIP3    H236618   2.249   2.029  30.588 -0.1117 -0.1900  1.5425
 5043TIP3   OH236619   0.927   0.698  59.740 -0.0873  0.6079 -0.7768
 5043TIP3    H136620   0.911   0.662  59.652  0.0745 -1.7470  0.0801
 5043TIP3    H236621   1.020   0.683  59.755 -0.3185 -0.0102  0.1709
 5044TIP3   OH236622   1.368   2.632  25.700 -0.5732 -0.8117 -0.2435
 5044TIP3    H136623   1.355   2.720  25.664  1.4301  0.3344  1.5874
 5044TIP3    H236624   1.399   2.580  25.625  1.1746  0.8628 -0.7687
 5045TIP3   OH236625   2.195   0.799  82.716 -0.0378  0.3114  0.0871
 5045TIP3    H136626   2.275   0.766  82.675 -0.8831 -1.4011 -0.2840
 5045TIP3    H236627   2.206   0.894  82.717  1.3865  0.2044 -1.2366
 5046TIP3   OH236628   1.757   1.454  32.521  0.2963 -0.5176  0.8350
 5046TIP3    H136629   1.826   1.452  32.455  0.4707 -1.4612  1.0231
 5046TIP3    H236630   1.714   1.538  32.508  0.0660 -0.8375 -0.7471
 5047TIP3   OH236631   1.313   1.178   0.531 -0.1589  0.5817  0.5205
 5047TIP3    H136632   1.382   1.113   0.520 -0.1642  0.5378  0.7431
 5047TIP3    H236633   1.330   1.244   0.463  0.3315  0.7743  0.8252
 5048TIP3   OH236634   0.965   2.634  68.762  0.4295  0.0458  0.6244
 5048TIP3    H136635   0.874   2.649  68.735 -0.1608 -2.3720  0.9599
 5048TIP3    H236636   0.964   2.647  68.857  0.0799 -1.1337  0.8112
 5049TIP3   OH236637   2.428   1.347 103.622 -0.4159 -0.2300 -0.0611
 5049TIP3    H136638   2.516   1.316 103.646  0.4481  0.2211 -2.3214
 5049TIP3    H236639   2.419   1.321 103.530 -1.7801  1.6538 -0.5017
 5050TIP3   OH236640   0.344   1.377  94.290  0.2166 -0.2376 -0.4188
 5050TIP3    H136641   0.324   1.465  94.257  1.8120  0.5134  0.4890
 5050TIP3    H236642   0.416   1.391  94.352  1.7542 -2.3903 -1.5866
 5051TIP3   OH236643   2.579   1.145  22.563 -0.0956 -0.8421 -0.1567
 5051TIP3    H136644   2.645   1.124  22.629  0.0350 -0.7513 -0.2575
 5051TIP3    H236645   2.622   1.127  22.479  0.7945  1.8205 -0.3669
 5052TIP3   OH236646   2.485   2.121  99.768  0.2854 -0.0902  0.6114
 5052TIP3    H136647   2.533   2.099  99.848  1.3972 -0.2999 -0.0849
 5052TIP3    H236648   2.534   2.194  99.731  0.6586 -0.9397 -0.6179
 5053TIP3   OH236649   1.245   0.859  97.131  0.4197  0.2514  0.0400
 5053TIP3    H136650   1.267   0.919  97.060 -0.4084  0.7919  0.2292
 5053TIP3    H236651   1.324   0.857  97.186  0.7248  0.5697 -0.3829
 5054TIP3   OH236652   1.571   1.508  24.120  0.2728 -0.2865 -0.0911
 5054TIP3    H136653   1.661   1.533  24.139 -0.0791  0.2216  0.9453
 5054TIP3    H236654   1.566   1.507  24.024  1.0324  0.9572 -0.1572
 5055TIP3   OH236655   1.427   0.339 110.191 -0.4919 -0.0600 -0.3301
 5055TIP3    H136656   1.337   0.367 110.176 -0.1232  0.8886 -0.8250
 5055TIP3    H236657   1.419   0.263 110.250 -1.4769  1.8986  2.2532
 5056TIP3   OH236658   1.924   0.701 107.586  0.2894 -0.5005  0.0572
 5056TIP3    H136659   1.957   0.789 107.565 -0.0868 -0.4687 -0.4098
 5056TIP3    H236660   1.894   0.667 107.502  0.2822 -1.0155  0.2706
 5057TIP3   OH236661   0.241   2.047 102.344  0.3037  0.0869  0.0053
 5057TIP3    H136662   0.274   2.049 102.254 -1.4645  0.9272 -0.6874
 5057TIP3    H236663   0.292   2.114 102.389 -0.1119  1.0780 -0.9268
 5058TIP3   OH236664   0.945   1.304 108.668  0.3122  0.2793 -0.4171
 5058TIP3    H136665   1.020   1.292 108.726  0.4702  0.3217 -0.6120
 5058TIP3    H236666   0.984   1.324 108.583  0.0839  0.2260 -0.5349
 5059TIP3   OH236667   0.155   0.775  23.528  0.3596  0.2466 -0.0885
 5059TIP3    H136668   0.092   0.744  23.463 -0.1239 -1.0768  0.9517
 5059TIP3    H236669   0.137   0.722  23.606  1.4495  1.2239  0.8727
 5060TIP3   OH236670   1.438   1.774 103.293 -0.4933  0.1376 -0.6061
 5060TIP3    H136671   1.388   1.831 103.352 -0.0075 -0.9889  0.9654
 5060TIP3    H236672   1.376   1.706 103.268 -0.6225  0.4678 -1.1868
 5061TIP3   OH236673   1.928   2.493 102.562 -0.2029  0.7296  0.0976
 5061TIP3    H136674   2.006   2.474 102.614  0.9489  1.4320 -1.2744
 5061TIP3    H236675   1.963   2.530 102.480 -1.9641  0.6420 -0.7406
 5062TIP3   OH236676   1.347   0.892  93.302 -0.1236 -0.5325 -0.0204
 5062TIP3    H136677   1.350   0.988  93.293  0.2800 -0.6214 -1.0292
 5062TIP3    H236678   1.436   0.863  93.279 -0.6051 -1.2325 -1.1056
 5063TIP3   OH236679   0.921   1.624 100.656  0.0030 -0.4781 -0.1576
 5063TIP3    H136680   1.012   1.616 100.628  0.0959  0.6661 -0.2217
 5063TIP3    H236681   0.925   1.644 100.749 -0.2172 -1.3157  0.0386
 5064TIP3   OH236682   0.864   0.992  31.036  0.1709 -0.2726 -0.7065
 5064TIP3    H136683   0.850   0.918  31.095  0.4152 -0.0633 -0.3833
 5064TIP3    H236684   0.802   1.059  31.066  1.1002  0.2774  0.0825
 5065TIP3   OH236685   2.212   1.121 111.721 -0.1889  0.0519  0.3820
 5065TIP3    H136686   2.200   1.184 111.649  1.7108 -0.6705 -0.6441
 5065TIP3    H236687   2.175   1.039 111.687 -0.5236  0.0329  0.7838
 5066TIP3   OH236688   1.114   1.254  84.741  0.4374 -0.6879 -0.1695
 5066TIP3    H136689   1.176   1.211  84.800 -0.1847 -0.0855  0.9601
 5066TIP3    H236690   1.033   1.203  84.750  0.0077  0.0827  0.3657
 5067TIP3   OH236691   0.619   0.409 108.262  0.4501  1.0268  0.2156
 5067TIP3    H136692   0.575   0.488 108.231  1.5418  1.7939  0.5521
 5067TIP3    H236693   0.709   0.437 108.280  1.2065 -0.5629 -0.8324
 5068TIP3   OH236694   0.417   0.444  85.532 -0.6106 -0.2353  0.0906
 5068TIP3    H136695   0.325   0.472  85.534 -0.1257  1.4424  0.7107
 5068TIP3    H236696   0.459   0.502  85.469  0.0248 -1.0398 -0.2457
 5069TIP3   OH236697   2.457   2.651 105.444  0.3789  0.4015  0.0160
 5069TIP3    H136698   2.515   2.636 105.369  0.2410  0.4286 -0.0937
 5069TIP3    H236699   2.516   2.653 105.519  0.4857  0.0979 -0.0587
 5070TIP3   OH236700   1.436   1.587  33.325  0.1795 -0.0583 -0.1446
 5070TIP3    H136701   1.403   1.498  33.330 -0.9060  0.3627  0.4573
 5070TIP3    H236702   1.403   1.630  33.404  0.0829  1.0733 -0.7757
 5071TIP3   OH236703   0.158   2.219  99.915  0.2907 -0.3294 -0.3668
 5071TIP3    H136704   0.225   2.152  99.910  0.5574 -0.1709  0.7152
 5071TIP3    H236705   0.188   2.279  99.984 -0.0652  0.7591 -1.1172
 5072TIP3   OH236706   2.511   1.582  32.254  0.1162 -0.3578  0.0260
 5072TIP3    H136707   2.600   1.570  32.219 -0.0586 -1.2419 -0.1375
 5072TIP3    H236708   2.460   1.613  32.179  0.0020 -1.1352 -0.2367
 5073TIP3   OH236709   0.752   0.575 102.368  0.5927  0.4275 -0.0863
 5073TIP3    H136710   0.708   0.659 102.366  0.1082  0.3331  2.6800
 5073TIP3    H236711   0.764   0.551 102.276  0.0982  3.1404 -0.9260
 5074TIP3   OH236712   2.258   1.660  76.745 -0.2489 -0.5006  0.5358
 5074TIP3    H136713   2.273   1.642  76.652  0.0468  2.1935 -0.0115
 5074TIP3    H236714   2.335   1.624  76.789 -0.8634 -2.7112 -0.0876
 5075TIP3   OH236715   2.621   0.800  47.715  0.2514  0.0056 -0.2300
 5075TIP3    H136716   2.701   0.796  47.662  1.5679 -2.8244  1.6647
 5075TIP3    H236717   2.651   0.826  47.802 -1.4016  1.7612 -0.1320
 5076TIP3   OH236718   1.894   0.451   4.259 -0.7839 -0.2454 -0.3990
 5076TIP3    H136719   1.913   0.359   4.274 -0.8391 -0.2601 -0.4185
 5076TIP3    H236720   1.954   0.498   4.316 -0.5403 -0.2867 -0.6222
 5077TIP3   OH236721   1.919   1.396   3.249  0.0379  0.2623 -0.1302
 5077TIP3    H136722   1.953   1.457   3.184 -0.0797  0.9945  0.4807
 5077TIP3    H236723   1.924   1.444   3.331 -0.6464 -0.3322  0.2643
 5078TIP3   OH236724   1.562   0.080  92.091  0.0795  0.1100  0.2496
 5078TIP3    H136725   1.608   0.004  92.124 -0.2379  0.1051  0.6856
 5078TIP3    H236726   1.471   0.068  92.119  0.1966  1.0893  1.1152
 5079TIP3   OH236727   2.269   2.556  34.485 -0.2571 -0.4196  0.4815
 5079TIP3    H136728   2.178   2.573  34.461 -0.5895 -0.6582  1.5349
 5079TIP3    H236729   2.263   2.492  34.556  0.6836  0.4680  1.3773
 5080TIP3   OH236730   1.656   0.407  92.278  0.1081 -0.4490  0.4156
 5080TIP3    H136731   1.718   0.415  92.350  0.7230 -0.3954 -0.1165
 5080TIP3    H236732   1.594   0.340  92.307 -1.0056  1.1630  1.9605
 5081TIP3   OH236733   1.969   2.218  74.423 -0.6327 -0.0099  0.2423
 5081TIP3    H136734   2.055   2.176  74.418 -0.4764  0.3828 -0.4851
 5081TIP3    H236735   1.984   2.296  74.477  0.0859  1.4609 -1.9260
 5082TIP3   OH236736   1.481   0.415 105.444  0.5790 -0.2569 -0.2755
 5082TIP3    H136737   1.421   0.364 105.389 -0.1499  0.0818  0.1884
 5082TIP3    H236738   1.431   0.433 105.524  1.2416  0.1838  0.0529
 5083TIP3   OH236739   1.245   1.104  32.379 -0.3569 -0.4207 -0.2618
 5083TIP3    H136740   1.238   1.108  32.474 -0.1708 -0.5990 -0.2428
 5083TIP3    H236741   1.180   1.039  32.353 -1.2258  0.4469 -0.3544
 5084TIP3   OH236742   0.565   2.544  30.956  0.3965 -0.0839 -0.7087
 5084TIP3    H136743   0.612   2.599  31.018  0.4117 -1.1215  0.2468
 5084TIP3    H236744   0.477   2.581  30.953 -0.5345 -1.7413  2.3314
 5085TIP3   OH236745   1.369   1.462  84.208  0.0561 -0.0422  0.1562
 5085TIP3    H136746   1.427   1.391  84.236 -0.8123 -1.3393 -1.2117
 5085TIP3    H236747   1.429   1.531  84.177  0.8997 -0.6929  0.3020
 5086TIP3   OH236748   1.044   2.656  32.877 -0.1679  0.4586 -0.2282
 5086TIP3    H136749   1.106   2.696  32.816  0.5872  0.5927  0.6185
 5086TIP3    H236750   1.095   2.591  32.925 -0.8364  0.1194  0.0508
 5087TIP3   OH236751   2.569   1.268  89.542 -0.1900 -0.3697 -1.1253
 5087TIP3    H136752   2.605   1.356  89.542 -2.2147  0.5454 -2.1653
 5087TIP3    H236753   2.548   1.250  89.634 -1.4090  1.0258 -1.0872
 5088TIP3   OH236754   0.261   1.320  81.662 -0.7977  0.0329 -0.1720
 5088TIP3    H136755   0.262   1.313  81.566 -0.2672 -0.2554 -0.1493
 5088TIP3    H236756   0.350   1.345  81.685 -0.8182 -0.3034  0.2797
 5089TIP3   OH236757   2.616   0.780  25.974 -0.1816 -0.4204  0.2065
 5089TIP3    H136758   2.553   0.712  25.996 -0.1783 -0.4500  0.1273
 5089TIP3    H236759   2.688   0.767  26.035 -1.3212  1.1747  1.9736
 5090TIP3   OH236760   1.411   0.769   3.533  0.1725  0.2180 -0.0276
 5090TIP3    H136761   1.465   0.703   3.576 -0.7047 -0.0143  0.7353
 5090TIP3    H236762   1.357   0.805   3.602 -0.5531  0.5500 -0.7474
 5091TIP3   OH236763   1.444   0.860  52.684  0.0539 -0.2582  0.4543
 5091TIP3    H136764   1.434   0.955  52.691  1.7010  0.0575 -0.8546
 5091TIP3    H236765   1.516   0.839  52.743  0.2228 -0.5827  0.1338
 5092TIP3   OH236766   1.648   0.579  18.132 -0.1940 -0.1745 -0.2783
 5092TIP3    H136767   1.606   0.664  18.138 -0.2847 -0.2387  0.0020
 5092TIP3    H236768   1.616   0.530  18.207 -0.3527 -0.5527 -0.5864
 5093TIP3   OH236769   1.204   0.855  35.273 -0.4774 -0.1055  0.1168
 5093TIP3    H136770   1.241   0.820  35.354  1.8111 -0.9242 -1.1852
 5093TIP3    H236771   1.250   0.808  35.204 -1.6257  1.3027 -1.6984
 5094TIP3   OH236772   1.797   2.550  75.007 -0.3887  0.3819 -0.2959
 5094TIP3    H136773   1.719   2.523  74.957  0.1284 -0.5409 -0.6181
 5094TIP3    H236774   1.832   2.624  74.958 -1.3813  1.1925  0.1815
 5095TIP3   OH236775   1.442   0.818  28.538  0.0827  0.5275 -0.6653
 5095TIP3    H136776   1.444   0.912  28.552  1.5158  0.5345 -0.7973
 5095TIP3    H236777   1.499   0.782  28.606  0.6116 -0.1113 -1.4253
 5096TIP3   OH236778   1.219   0.090  81.126  0.2274 -0.4259  0.0952
 5096TIP3    H136779   1.269   0.009  81.137  2.0524  0.6233 -0.1687
 5096TIP3    H236780   1.209   0.124  81.215 -0.9609 -1.1394  0.2648
 5097TIP3   OH236781   0.283   0.087  33.743 -0.0820 -0.2881  0.3437
 5097TIP3    H136782   0.354   0.077  33.679  0.8175  0.4675  1.2043
 5097TIP3    H236783   0.250  -0.002  33.756  0.8033 -0.6732  0.0417
 5098TIP3   OH236784   0.881   1.832 106.638 -0.1608  0.0392  0.0311
 5098TIP3    H136785   0.923   1.778 106.571 -0.8913 -1.3140  0.6252
 5098TIP3    H236786   0.788   1.812 106.629 -0.3334  0.3643  1.0252
 5099TIP3   OH236787   1.796   1.179  95.788 -0.3701  0.1225 -0.0776
 5099TIP3    H136788   1.749   1.178  95.871  1.4997  0.7156  1.0318
 5099TIP3    H236789   1.802   1.272  95.766  0.0238  0.0308 -0.3617
 5100TIP3   OH236790   1.662   1.495  98.168  0.4594  0.1775 -0.5728
 5100TIP3    H136791   1.679   1.526  98.257 -0.8347  0.5530 -0.4329
 5100TIP3    H236792   1.646   1.401  98.178  1.0931  0.0686 -0.5283
 5101TIP3   OH236793   1.684   1.963  99.427 -0.1736 -0.0839  0.1521
 5101TIP3    H136794   1.589   1.972  99.433 -0.1203  0.4261  0.2936
 5101TIP3    H236795   1.698   1.873  99.399 -0.7071 -0.0901 -0.0998
 5102TIP3   OH236796   1.801   0.614  63.057 -0.4466 -0.0113  0.2358
 5102TIP3    H136797   1.832   0.627  63.146 -0.5546 -0.1929  0.3002
 5102TIP3    H236798   1.792   0.519  63.048 -0.2821 -0.0051 -0.0196
 5103TIP3   OH236799   0.567   1.626  97.448 -0.6467 -0.4761  0.1523
 5103TIP3    H136800   0.520   1.604  97.368  0.5247  2.7639 -1.6085
 5103TIP3    H236801   0.514   1.694  97.489  0.7141  0.7821 -0.0773
 5104TIP3   OH236802   1.322   2.351  84.663  0.5992 -0.0799 -0.0419
 5104TIP3    H136803   1.305   2.280  84.725 -0.2811  0.3364  0.2113
 5104TIP3    H236804   1.261   2.420  84.688  0.0769  0.0220 -1.5027
 5105TIP3   OH236805   0.309   0.220  22.933  0.0639 -0.5852 -0.0950
 5105TIP3    H136806   0.348   0.301  22.901 -1.6952  0.3762  0.0879
 5105TIP3    H236807   0.374   0.183  22.993  0.6598  0.9832  0.2574
 5106TIP3   OH236808   1.036   1.132  91.110 -0.4723 -0.4746 -0.8661
 5106TIP3    H136809   1.107   1.105  91.168 -0.0872 -0.7911 -1.4779
 5106TIP3    H236810   0.992   1.203  91.157 -1.1196 -1.7360  0.4861
 5107TIP3   OH236811   1.189   0.217  77.753 -0.4739 -0.4258  0.4322
 5107TIP3    H136812   1.132   0.293  77.752  1.7267  1.3353 -0.7741
 5107TIP3    H236813   1.157   0.162  77.681 -1.6054 -0.2948  0.8143
 5108TIP3   OH236814   0.629   1.214  99.196 -0.7194 -0.2149 -0.8226
 5108TIP3    H136815   0.684   1.149  99.154 -0.3446 -0.0056 -0.6593
 5108TIP3    H236816   0.653   1.297  99.154 -1.0788 -0.1567 -0.9174
 5109TIP3   OH236817   2.542   0.355 110.289 -0.3117  0.0278  0.1949
 5109TIP3    H136818   2.489   0.434 110.278  1.8082  1.5343 -0.0313
 5109TIP3    H236819   2.534   0.309 110.205 -1.6540 -0.0782  0.3582
 5110TIP3   OH236820   0.092   0.400  82.970 -0.4056 -0.6036  0.1150
 5110TIP3    H136821   0.007   0.361  82.993 -1.2805  1.6642  0.9979
 5110TIP3    H236822   0.132   0.420  83.055  1.0121 -1.5458 -0.3014
 5111TIP3   OH236823   0.745   0.572  29.933  0.3832  0.1958 -0.1269
 5111TIP3    H136824   0.817   0.526  29.975  0.2659 -0.0786 -0.2237
 5111TIP3    H236825   0.780   0.659  29.913  0.3347  0.4437  0.8366
 5112TIP3   OH236826   1.150   2.335  13.251  0.2321 -0.1347 -0.0687
 5112TIP3    H136827   1.134   2.378  13.335 -2.0575 -3.1317  1.2056
 5112TIP3    H236828   1.070   2.349  13.201  0.0887 -1.5064 -0.2454
 5113TIP3   OH236829   2.029   1.286  22.613  0.1522 -0.0940  0.0710
 5113TIP3    H136830   2.100   1.329  22.661  0.8197 -0.5584 -0.4963
 5113TIP3    H236831   2.053   1.295  22.521  0.4018 -1.8287 -0.0623
 5114TIP3   OH236832   1.816   1.453  17.586  0.1865  0.1209  0.4973
 5114TIP3    H136833   1.760   1.529  17.567 -0.3552 -0.4116 -0.1040
 5114TIP3    H236834   1.861   1.476  17.667 -0.2668  0.9195  0.5370
 5115TIP3   OH236835   0.395   1.434  99.078 -0.3116  0.1600 -0.3156
 5115TIP3    H136836   0.400   1.420  98.983 -1.4600  0.8479 -0.5018
 5115TIP3    H236837   0.486   1.436  99.106  0.0376 -1.0816 -1.2435
 5116TIP3   OH236838   0.701   1.158  94.664 -0.0455 -0.1495  0.0231
 5116TIP3    H136839   0.673   1.247  94.687  0.4286  0.2481 -0.9140
 5116TIP3    H236840   0.676   1.105  94.740 -0.5809  0.7323  0.4785
 5117TIP3   OH236841   0.779   1.669  95.907  0.3363 -0.0840  0.1019
 5117TIP3    H136842   0.845   1.665  95.837  0.6027 -1.5131  0.4009
 5117TIP3    H236843   0.814   1.612  95.976 -0.4066  0.5045  0.9776
 5118TIP3   OH236844   0.599   0.816  33.835 -0.1412 -0.2725 -0.4834
 5118TIP3    H136845   0.567   0.748  33.776  1.1642 -0.2749 -1.2368
 5118TIP3    H236846   0.523   0.840  33.887 -0.6698 -2.2639 -0.2339
 5119TIP3   OH236847   0.951   2.326   9.213  0.5557 -0.0719  0.1526
 5119TIP3    H136848   0.930   2.272   9.137 -0.7700  0.9429 -0.2315
 5119TIP3    H236849   0.896   2.290   9.283  2.4496 -1.6105  0.9525
 5120TIP3   OH236850   2.486   0.991  32.766  0.2987 -0.2285  0.2283
 5120TIP3    H136851   2.578   1.014  32.752  0.6021 -1.6687 -0.3143
 5120TIP3    H236852   2.484   0.895  32.759 -0.9511 -0.3771  1.9217
 5121TIP3   OH236853   0.583   2.358  14.718 -0.1509 -0.1938 -0.1260
 5121TIP3    H136854   0.567   2.377  14.810 -1.3792  2.0351 -0.7227
 5121TIP3    H236855   0.621   2.438  14.683 -0.6371 -0.6417 -1.7721
 5122TIP3   OH236856   2.225   0.589  23.174 -0.1074 -0.3058 -0.4713
 5122TIP3    H136857   2.284   0.562  23.245 -0.1508  0.5295 -0.0966
 5122TIP3    H236858   2.154   0.525  23.176  0.1077 -0.5360 -0.0386
 5123TIP3   OH236859   1.683   1.115  10.940 -0.4027 -0.0558  0.0580
 5123TIP3    H136860   1.747   1.067  10.886  0.1087  0.9508 -0.2752
 5123TIP3    H236861   1.615   1.141  10.878  0.6590  1.9388 -0.3847
 5124TIP3   OH236862   1.762   0.063   7.309 -0.4226 -0.2428  0.1743
 5124TIP3    H136863   1.838   0.013   7.338 -0.3311 -0.7576 -0.8807
 5124TIP3    H236864   1.687   0.007   7.333 -0.3604 -0.5650 -0.3668
 5125TIP3   OH236865   0.516   2.062  78.282  0.0687  0.1293 -0.4527
 5125TIP3    H136866   0.472   2.146  78.276 -1.9315 -0.5846  2.2067
 5125TIP3    H236867   0.536   2.051  78.375  0.2564 -2.3087 -0.6951
 5126TIP3   OH236868   2.335   0.184  77.067  0.3152  0.3013  0.0677
 5126TIP3    H136869   2.252   0.166  77.112 -0.7588 -0.7537 -2.1400
 5126TIP3    H236870   2.378   0.249  77.121 -2.5660  1.9062  0.6719
 5127TIP3   OH236871   0.210   0.439  32.213 -0.0694  0.5634 -0.1525
 5127TIP3    H136872   0.305   0.433  32.229 -0.1222 -0.0836 -0.0526
 5127TIP3    H236873   0.201   0.420  32.119 -0.2551 -1.3007  0.2047
 5128TIP3   OH236874   1.178   1.442  94.988  0.0903 -0.2103  0.2329
 5128TIP3    H136875   1.191   1.520  94.934  2.6180  0.3891  1.5509
 5128TIP3    H236876   1.230   1.374  94.945 -1.0129 -0.8366 -0.1605
 5129TIP3   OH236877   1.794   0.189  36.830  0.0483 -0.6480 -0.1091
 5129TIP3    H136878   1.855   0.175  36.903  1.9260 -2.2711 -1.8716
 5129TIP3    H236879   1.825   0.270  36.789  0.5254 -1.0324 -0.5164
 5130TIP3   OH236880   2.667   1.569  78.660 -0.0024  0.3763  0.0134
 5130TIP3    H136881   2.731   1.597  78.726 -0.4342  1.0175  0.1637
 5130TIP3    H236882   2.593   1.537  78.710 -0.2737  0.7314 -0.1609
 5131TIP3   OH236883   0.370   0.985  26.575  0.2101  0.7215 -0.3511
 5131TIP3    H136884   0.401   1.059  26.523  0.9178 -0.3568 -1.5192
 5131TIP3    H236885   0.410   0.908  26.534  0.4257 -0.2241  1.5185
 5132TIP3   OH236886   1.744   0.672  85.915 -0.0475 -0.0071  0.5426
 5132TIP3    H136887   1.758   0.650  85.823 -1.0276 -0.7196  0.5590
 5132TIP3    H236888   1.786   0.601  85.963  0.4157  0.3364  0.6538
 5133TIP3   OH236889   0.964   0.741  89.239  0.8830 -0.3618  1.0329
 5133TIP3    H136890   0.871   0.717  89.241  0.5948  0.3225 -1.2067
 5133TIP3    H236891   0.967   0.820  89.185  2.6266  0.4807  2.2768
 5134TIP3   OH236892   0.818   1.332   8.187 -0.2525 -0.5401  0.0788
 5134TIP3    H136893   0.890   1.365   8.241  1.2468 -1.4317 -1.2623
 5134TIP3    H236894   0.830   1.237   8.189 -0.2059 -0.5950 -1.7220
 5135TIP3   OH236895   1.509   2.020  18.121  0.0098  0.0929 -0.2290
 5135TIP3    H136896   1.603   2.020  18.107 -0.0127  0.9737 -0.4416
 5135TIP3    H236897   1.484   1.928  18.116  1.0260 -0.2911  1.0439
 5136TIP3   OH236898   1.227   1.217  76.905  1.0579  1.1353  0.8855
 5136TIP3    H136899   1.134   1.217  76.883  1.4691  0.6955 -1.0302
 5136TIP3    H236900   1.259   1.133  76.872  1.9520  0.7925  2.4911
 5137TIP3   OH236901   2.588   0.243   5.376  0.4766 -0.1941 -0.3144
 5137TIP3    H136902   2.604   0.148   5.382  0.9103 -0.1825 -1.0974
 5137TIP3    H236903   2.540   0.264   5.455  1.1540 -0.9190  0.3097
 5138TIP3   OH236904   1.902   2.340   6.238  0.3316  0.0442  0.3835
 5138TIP3    H136905   1.958   2.415   6.259  0.0563 -0.1976  2.1759
 5138TIP3    H236906   1.894   2.342   6.143  1.1008  1.7304  0.3101
 5139TIP3   OH236907   0.469   2.282  99.268  0.0511 -0.3247  0.5178
 5139TIP3    H136908   0.376   2.264  99.280 -0.2132  1.0620  0.7325
 5139TIP3    H236909   0.475   2.377  99.270  1.4044 -0.3788 -0.0880
 5140TIP3   OH236910   2.091   0.939  26.039 -0.1058  0.2462 -0.9569
 5140TIP3    H136911   2.098   0.844  26.024  0.4763  0.2432 -0.6525
 5140TIP3    H236912   2.155   0.958  26.107  0.7131  1.0740 -1.9166
 5141TIP3   OH236913   0.903   1.562  33.055  0.7759 -0.7625 -0.0995
 5141TIP3    H136914   0.871   1.649  33.031 -2.5164 -2.2105 -1.6505
 5141TIP3    H236915   0.959   1.536  32.982 -0.2649 -0.8573 -0.8843
 5142TIP3   OH236916   0.924   2.320  84.941  0.0287  0.2677  0.2886
 5142TIP3    H136917   0.912   2.371  84.860  0.4254  1.2864  0.8566
 5142TIP3    H236918   0.844   2.335  84.991  0.5031  1.0582  0.8332
 5143TIP3   OH236919   2.492   1.790  28.949  0.2157 -0.1571  0.1241
 5143TIP3    H136920   2.576   1.747  28.967  0.7219  0.7673  0.0014
 5143TIP3    H236921   2.510   1.848  28.875 -0.4599  0.2652  0.2856
 5144TIP3   OH236922   0.474   1.636 103.075  0.3643 -0.8118  0.6483
 5144TIP3    H136923   0.407   1.621 103.141  0.0553 -0.1303  0.4876
 5144TIP3    H236924   0.432   1.613 102.992 -0.0559  0.7070  0.4198
 5145TIP3   OH236925   0.484   1.911  73.774  0.4415  0.0055 -0.9023
 5145TIP3    H136926   0.404   1.937  73.821  1.4853 -0.4776  1.2938
 5145TIP3    H236927   0.486   1.816  73.780  1.7488  0.0707  0.1413
 5146TIP3   OH236928   2.210   1.067  13.745 -0.5173 -0.3430  0.1796
 5146TIP3    H136929   2.252   1.095  13.664 -0.3111 -1.2407 -0.0431
 5146TIP3    H236930   2.117   1.087  13.733 -0.4545 -0.2736 -0.1952
 5147TIP3   OH236931   2.312   1.116 110.205  0.0335  0.5070  0.2793
 5147TIP3    H136932   2.330   1.172 110.129  2.4918  0.0996  0.4818
 5147TIP3    H236933   2.265   1.041 110.169 -0.6697  1.2828 -0.4741
 5148TIP3   OH236934   2.053   1.482 101.519  0.1873  0.3790 -0.4912
 5148TIP3    H136935   2.066   1.511 101.609  0.2881 -0.6563 -0.1642
 5148TIP3    H236936   1.982   1.418 101.524 -1.4512  2.0301 -1.5032
 5149TIP3   OH236937   1.170   2.639   2.509  0.0578  0.1908 -0.1192
 5149TIP3    H136938   1.174   2.589   2.591  0.2966  0.4334  0.0226
 5149TIP3    H236939   1.129   2.580   2.446  0.3139 -0.1758  0.0501
 5150TIP3   OH236940   1.921   1.045  98.119 -0.0925  0.5921  0.2267
 5150TIP3    H136941   1.960   1.120  98.164  1.1128 -0.6878  1.4135
 5150TIP3    H236942   1.938   0.970  98.177 -2.1254 -0.4662 -0.4317
 5151TIP3   OH236943   0.592   1.285  27.732  0.0860 -0.2435 -0.1582
 5151TIP3    H136944   0.620   1.328  27.650 -0.4164 -0.9829 -0.7322
 5151TIP3    H236945   0.673   1.274  27.782  0.0661  2.7088  0.6966
 5152TIP3   OH236946   0.738   0.890   4.723 -0.0496 -0.2606  0.0422
 5152TIP3    H136947   0.768   0.848   4.804 -0.0625  1.4674  0.9727
 5152TIP3    H236948   0.814   0.938   4.691 -0.8055  1.3639  0.5796
 5153TIP3   OH236949   1.143   2.191  98.635 -0.4632 -0.4137  0.2526
 5153TIP3    H136950   1.144   2.191  98.539 -0.0200  2.4580  0.1597
 5153TIP3    H236951   1.089   2.116  98.659  0.3192 -1.8624 -2.2031
 5154TIP3   OH236952   1.045   1.449  13.091  0.0937  0.2477 -0.1154
 5154TIP3    H136953   0.996   1.521  13.131 -2.5109 -1.0534 -0.7440
 5154TIP3    H236954   1.047   1.382  13.160 -2.3777 -1.1111 -1.2493
 5155TIP3   OH236955   2.472   2.226   5.092 -0.0239  0.4357  0.1084
 5155TIP3    H136956   2.403   2.170   5.058 -0.2259  1.9888 -2.2902
 5155TIP3    H236957   2.447   2.314   5.066  2.8319  1.0654 -0.9819
 5156TIP3   OH236958   0.738   1.060   6.908 -0.0174  0.0023  0.2215
 5156TIP3    H136959   0.658   1.098   6.946  0.6600  0.5775  1.1234
 5156TIP3    H236960   0.741   0.971   6.943 -1.1877 -0.6553 -1.2541
 5157TIP3   OH236961   0.021   0.394  30.204  0.0482 -0.3815  0.4444
 5157TIP3    H136962  -0.012   0.428  30.288 -1.1288 -0.6808  0.1235
 5157TIP3    H236963  -0.024   0.447  30.138  0.3378 -0.7032 -0.0080
 5158TIP3   OH236964   1.173   1.860  92.776 -0.2136 -0.3890  0.2209
 5158TIP3    H136965   1.141   1.947  92.751 -1.4264  0.2912  3.6244
 5158TIP3    H236966   1.242   1.877  92.840  0.6081 -1.9539 -0.1967
 5159TIP3   OH236967   0.478   1.189  10.640 -0.2332 -0.4156 -0.0438
 5159TIP3    H136968   0.384   1.203  10.656 -0.4292 -0.5844 -1.0264
 5159TIP3    H236969   0.489   1.204  10.546  0.9380  0.7916  0.2519
 5160TIP3   OH236970   0.645   1.789  96.821  0.1261  0.2478 -0.1796
 5160TIP3    H136971   0.729   1.833  96.805  0.4582 -0.5582 -0.7539
 5160TIP3    H236972   0.598   1.847  96.880  1.2331  0.5609  0.4239
 5161TIP3   OH236973   0.685   1.091  23.485  0.1249  0.0363  0.4889
 5161TIP3    H136974   0.612   1.069  23.427  0.8301 -1.2287  0.0425
 5161TIP3    H236975   0.654   1.068  23.573 -0.6859  1.2900  0.5532
 5162TIP3   OH236976   0.531   0.500  68.981 -0.2241 -0.3944 -0.4827
 5162TIP3    H136977   0.568   0.577  68.937  0.6834 -0.9559 -0.7282
 5162TIP3    H236978   0.467   0.466  68.918 -2.7877  1.7382  0.7571
 5163TIP3   OH236979   0.933   2.111  20.532 -0.7093  0.4233  0.6174
 5163TIP3    H136980   0.919   2.120  20.438 -0.9649  1.1934  0.7238
 5163TIP3    H236981   0.945   2.017  20.545  1.3180  0.4561 -0.4506
 5164TIP3   OH236982   0.072   2.240  69.462  0.1050  0.6920 -0.5797
 5164TIP3    H136983  -0.003   2.200  69.417  0.1406 -1.0878  0.7955
 5164TIP3    H236984   0.041   2.326  69.489 -0.6437  0.9094 -2.0261
 5165TIP3   OH236985   2.335   1.467  10.924 -0.3659 -0.3999 -0.1787
 5165TIP3    H136986   2.309   1.512  10.843 -0.6747 -1.0064 -0.4182
 5165TIP3    H236987   2.413   1.417  10.900  0.0206  0.0435  0.1084
 5166TIP3   OH236988   2.511   1.675 108.421  0.2456  0.0482  0.2120
 5166TIP3    H136989   2.594   1.670 108.469  0.9237 -0.4329 -0.9779
 5166TIP3    H236990   2.535   1.714 108.337 -1.0170  1.4226  0.4466
 5167TIP3   OH236991   0.777   0.720  32.043  0.1135  0.3023 -0.2105
 5167TIP3    H136992   0.838   0.736  31.971 -0.6513 -0.6519 -1.0976
 5167TIP3    H236993   0.758   0.626  32.039  0.8888 -0.0057  1.9412
 5168TIP3   OH236994   0.395   0.145  29.261 -0.1233  0.4652 -0.0382
 5168TIP3    H136995   0.371   0.086  29.333  2.1654  0.3444  0.6926
 5168TIP3    H236996   0.425   0.225  29.305  2.5534 -0.0747 -0.7319
 5169TIP3   OH236997   2.372   1.569  33.736  0.0332  0.6955  0.2509
 5169TIP3    H136998   2.326   1.500  33.783  1.1832  1.0232  1.9608
 5169TIP3    H236999   2.389   1.532  33.650 -1.0948 -0.3934  0.4625
 5170TIP3   OH237000   2.077   1.022  41.559  0.0023  0.0246  0.0884
 5170TIP3    H137001   1.996   1.035  41.607  0.8870  0.9359  1.3948
 5170TIP3    H237002   2.126   0.957  41.610  0.0763 -0.5714 -0.7216
 5171TIP3   OH237003   1.859   1.734   6.184  0.2474 -0.5531 -0.1899
 5171TIP3    H137004   1.862   1.762   6.093  0.8948  0.1333  0.0304
 5171TIP3    H237005   1.790   1.787   6.224  1.2710  0.5786  0.1567
 5172TIP3   OH237006   2.227   0.034 101.613 -0.0762  0.0977 -0.2698
 5172TIP3    H137007   2.174   0.001 101.541 -1.6703  0.8873  0.4946
 5172TIP3    H237008   2.215   0.129 101.611  1.2975  0.2892 -0.0575
 5173TIP3   OH237009   0.482   0.220  75.062 -0.2115 -0.5329  0.4968
 5173TIP3    H137010   0.497   0.133  75.098 -0.9381 -0.4552  0.9964
 5173TIP3    H237011   0.498   0.280  75.135  0.1766 -0.2472  0.1813
 5174TIP3   OH237012   0.698   0.500  26.321 -0.3872  0.1530  0.2046
 5174TIP3    H137013   0.765   0.434  26.306  0.5766  0.3052  3.2316
 5174TIP3    H237014   0.637   0.459  26.382 -2.3255  0.5604 -1.3372
 5175TIP3   OH237015   0.411   1.253   5.739 -0.3608  0.2376  0.3953
 5175TIP3    H137016   0.477   1.321   5.723  0.0823 -0.1090  0.7201
 5175TIP3    H237017   0.452   1.195   5.802  0.8681 -2.5206 -2.6617
 5176TIP3   OH237018   1.426   1.281   5.158  0.3411  0.4337 -0.2341
 5176TIP3    H137019   1.378   1.306   5.079  0.2176 -1.2238 -0.7220
 5176TIP3    H237020   1.426   1.185   5.157  0.3198  0.3625  1.7880
 5177TIP3   OH237021   1.182   0.376  37.228 -0.2645  0.4081  0.3725
 5177TIP3    H137022   1.254   0.346  37.172 -0.4039 -0.7298  0.7697
 5177TIP3    H237023   1.211   0.354  37.316 -0.6897  0.8256  0.6142
 5178TIP3   OH237024   0.972   1.605  27.355 -1.2295 -0.0876  0.3329
 5178TIP3    H137025   1.014   1.538  27.408 -0.5695  1.5862  2.0417
 5178TIP3    H237026   1.036   1.676  27.350 -2.4793  1.0517 -0.0965
 5179TIP3   OH237027   0.745   2.359   5.501 -0.3419 -0.3244  0.4233
 5179TIP3    H137028   0.660   2.318   5.521 -0.6700 -0.2143 -0.6957
 5179TIP3    H237029   0.773   2.316   5.420 -0.1672  0.8834 -0.1697
 5180TIP3   OH237030   1.927   0.715 110.964 -0.1194  0.0730 -0.6260
 5180TIP3    H137031   1.892   0.667 111.039 -0.8499 -0.2727 -1.1732
 5180TIP3    H237032   2.013   0.746 110.993  0.0513 -0.9314 -0.0056
 5181TIP3   OH237033   2.445   2.503   4.909  0.8334  0.2353 -0.4862
 5181TIP3    H137034   2.527   2.540   4.942 -0.0459  1.7244  0.1245
 5181TIP3    H237035   2.379   2.529   4.974 -0.0030 -1.6334 -0.5262
 5182TIP3   OH237036   2.351   1.784  99.815 -0.6342  0.4748  0.1199
 5182TIP3    H137037   2.418   1.751  99.755 -1.5277 -0.1467 -0.5600
 5182TIP3    H237038   2.396   1.790  99.899  0.3781  0.4426 -0.3968
 5183TIP3   OH237039   2.391   0.720 100.799 -0.1640  0.3184 -0.3334
 5183TIP3    H137040   2.388   0.631 100.834  0.1386  0.2161 -0.5685
 5183TIP3    H237041   2.424   0.773 100.872 -0.2993  0.2345 -0.2127
 5184TIP3   OH237042   1.627   0.585  14.575 -0.2821 -0.4115 -0.0316
 5184TIP3    H137043   1.631   0.492  14.597  0.4117  0.0013  1.8246
 5184TIP3    H237044   1.701   0.599  14.515  0.7934 -0.7454  1.1583
 5185TIP3   OH237045   1.353   1.657  63.797  0.2515 -0.5080 -0.6792
 5185TIP3    H137046   1.353   1.579  63.741 -0.7657 -1.8813  1.1217
 5185TIP3    H237047   1.442   1.661  63.832  0.8476  0.2726 -2.2309
 5186TIP3   OH237048   2.578   0.806  97.096 -0.2323  0.4223 -0.2285
 5186TIP3    H137049   2.548   0.763  97.176 -0.5028  1.9582  0.5468
 5186TIP3    H237050   2.629   0.740  97.050 -1.4346 -1.0077  0.4172
 5187TIP3   OH237051   1.565   0.235  91.850  0.1964  0.0428 -0.3688
 5187TIP3    H137052   1.556   0.200  91.938 -0.5123  1.8644  0.3312
 5187TIP3    H237053   1.505   0.183  91.797 -0.6336  0.0163  0.5791
 5188TIP3   OH237054   1.190   1.849   1.471  0.2044  0.5047 -0.1773
 5188TIP3    H137055   1.176   1.851   1.566  0.1562 -0.5650 -0.1507
 5188TIP3    H237056   1.127   1.913   1.437  0.5349  1.2258  0.5407
 5189TIP3   OH237057   1.884   1.702  75.451  0.3199 -0.1966  0.1172
 5189TIP3    H137058   1.804   1.734  75.410  1.5724  1.3964 -1.2685
 5189TIP3    H237059   1.943   1.684  75.378  1.3064 -1.1365  1.0992
 5190TIP3   OH237060   2.370   0.356  30.441 -0.2723  0.1937  0.4403
 5190TIP3    H137061   2.355   0.265  30.464  0.5621  0.0919  0.6100
 5190TIP3    H237062   2.316   0.406  30.503 -2.7312 -0.2027 -1.2386
 5191TIP3   OH237063   1.102   1.656  25.494  0.0845  0.5733  0.6591
 5191TIP3    H137064   1.040   1.724  25.520 -1.0461 -0.0013 -0.3933
 5191TIP3    H237065   1.075   1.632  25.405  0.7113 -0.9587  0.8470
 5192TIP3   OH237066   0.223   1.633  85.450 -0.1040 -0.1213  0.0588
 5192TIP3    H137067   0.169   1.575  85.502  0.4732 -0.5163  0.2276
 5192TIP3    H237068   0.181   1.637  85.365 -0.1629 -0.7682  0.0541
 5193TIP3   OH237069   0.743   1.977  15.171  0.1906  0.0854 -0.1344
 5193TIP3    H137070   0.741   1.929  15.088 -0.5107  0.8737 -0.5953
 5193TIP3    H237071   0.807   1.931  15.225  1.2238  0.0092 -1.3898
 5194TIP3   OH237072   0.233   0.164 107.313 -0.3617 -0.6421  0.2857
 5194TIP3    H137073   0.171   0.097 107.284  0.8369 -1.9161  0.5577
 5194TIP3    H237074   0.244   0.146 107.407 -0.1847  0.0874  0.4091
 5195TIP3   OH237075   0.856   1.661   6.107  0.0638  0.1863  0.8112
 5195TIP3    H137076   0.864   1.729   6.040  1.5829 -2.2705 -1.7462
 5195TIP3    H237077   0.913   1.690   6.178  0.6591  1.5669 -0.1858
 5196TIP3   OH237078   2.629   1.116  77.733  0.0434 -0.6149  0.0366
 5196TIP3    H137079   2.713   1.134  77.691 -0.9140  0.7864 -1.3966
 5196TIP3    H237080   2.576   1.076  77.665 -0.7732 -0.6062  0.6435
 5197TIP3   OH237081   0.371   0.847  13.414  0.1127 -0.0562  0.6199
 5197TIP3    H137082   0.292   0.875  13.368 -0.1300 -1.0437  0.4070
 5197TIP3    H237083   0.443   0.879  13.360 -0.1640 -0.3574  0.0602
 5198TIP3   OH237084   0.034   2.072  29.535  0.8039  0.6438  0.0881
 5198TIP3    H137085  -0.018   2.128  29.593  1.7088  0.0334  1.5273
 5198TIP3    H237086   0.061   1.999  29.590 -0.5785 -1.4216 -1.8168
 5199TIP3   OH237087   0.018   2.331  90.528  0.3299  1.1566 -0.1075
 5199TIP3    H137088   0.045   2.241  90.512  0.8973  1.4942 -1.1472
 5199TIP3    H237089  -0.068   2.323  90.569 -0.2125  0.1587 -1.3691
 5200TIP3   OH237090   2.640   1.091  88.014 -0.1045  0.1353  0.5101
 5200TIP3    H137091   2.734   1.079  88.003 -0.3235  0.2195 -2.1258
 5200TIP3    H237092   2.632   1.168  88.071  1.4764  1.5517 -1.0643
 5201TIP3   OH237093   1.448   1.873   2.710  0.2955 -0.1852 -0.1485
 5201TIP3    H137094   1.468   1.820   2.787  1.6042  0.1539 -0.2320
 5201TIP3    H237095   1.437   1.962   2.743 -1.5421 -0.3889 -0.0599
 5202TIP3   OH237096   2.431   2.463 102.264  0.3204  0.1415  0.0935
 5202TIP3    H137097   2.503   2.452 102.326  0.1113  2.4906  0.8431
 5202TIP3    H237098   2.387   2.378 102.264  1.6915 -0.6273  1.4021
 5203TIP3   OH237099   2.564   0.033  13.953  0.1685  0.0053  0.4456
 5203TIP3    H137100   2.619   0.075  14.020 -0.8887  0.1660  1.2326
 5203TIP3    H237101   2.489  -0.001  14.002 -0.2895 -0.4688 -0.5753
 5204TIP3   OH237102   0.506   2.214  73.919 -0.2016 -0.4435 -0.2932
 5204TIP3    H137103   0.500   2.119  73.906 -1.3723 -1.0380  3.5226
 5204TIP3    H237104   0.529   2.225  74.011 -1.3644  3.0104 -0.2542
 5205TIP3   OH237105   2.158   0.809  26.327 -0.4732 -0.0797  0.0222
 5205TIP3    H137106   2.238   0.758  26.313 -0.3951  0.1442 -0.3664
 5205TIP3    H237107   2.188   0.888  26.370 -0.4043  0.2503 -0.6140
 5206TIP3   OH237108   2.101   1.256  35.085 -0.0559  0.0146 -0.0097
 5206TIP3    H137109   2.110   1.223  35.175  0.3485  2.7455  1.0599
 5206TIP3    H237110   2.170   1.211  35.036  0.5214 -0.6262  1.3465
 5207TIP3   OH237111   0.906   0.027  64.180 -0.4463 -0.0987 -0.6065
 5207TIP3    H137112   0.851  -0.051  64.171  0.5669 -0.7325 -1.4729
 5207TIP3    H237113   0.938   0.045  64.092  1.4265 -0.2689 -0.0081
 5208TIP3   OH237114   2.380   1.664  98.331  0.3582  0.5233 -0.2250
 5208TIP3    H137115   2.327   1.742  98.315 -0.9590 -0.1940  0.4477
 5208TIP3    H237116   2.367   1.644  98.424  0.3070 -0.7301 -0.4780
 5209TIP3   OH237117   0.967   2.439  74.909 -0.2583 -0.3241 -0.0930
 5209TIP3    H137118   1.002   2.488  74.983 -1.3281  1.2167 -0.5672
 5209TIP3    H237119   1.019   2.359  74.907  1.6517  0.8330  0.6293
 5210TIP3   OH237120   0.782   1.447  73.997  0.0218 -0.0158 -0.1742
 5210TIP3    H137121   0.865   1.423  74.037  0.5675  2.4487  0.3294
 5210TIP3    H237122   0.792   1.539  73.973 -2.4573  0.2746 -0.4025
 5211TIP3   OH237123   1.365   1.560   1.748  0.1999  0.0546  0.2177
 5211TIP3    H137124   1.341   1.502   1.820  2.3591 -2.0682 -0.6478
 5211TIP3    H237125   1.453   1.533   1.723  0.3207  2.0766 -1.9053
 5212TIP3   OH237126   1.077   1.627  92.288 -0.2579  0.1527  0.0198
 5212TIP3    H137127   1.020   1.633  92.211 -2.0279 -0.3901  1.2323
 5212TIP3    H237128   1.165   1.643  92.253 -0.9314 -0.4780 -2.1869
 5213TIP3   OH237129   0.027   2.658   3.433  0.0181  0.2755 -0.3105
 5213TIP3    H137130   0.097   2.596   3.453  0.1126  0.3111 -0.5271
 5213TIP3    H237131  -0.052   2.604   3.425  0.0521  0.2145 -0.2389
 5214TIP3   OH237132   2.603   1.879  31.335 -0.3430 -0.0336  0.6107
 5214TIP3    H137133   2.518   1.921  31.321 -1.1524 -1.9869 -0.8656
 5214TIP3    H237134   2.629   1.905  31.423 -2.6238  0.3674  1.2221
 5215TIP3   OH237135   1.783   2.675  24.803 -0.3073  0.5372 -0.0952
 5215TIP3    H137136   1.758   2.672  24.711 -0.0134 -0.3246 -0.1490
 5215TIP3    H237137   1.742   2.755  24.836 -1.1118  0.4109 -0.7668
 5216TIP3   OH237138   1.738   1.531  82.141 -0.4832  0.4650  0.0437
 5216TIP3    H137139   1.692   1.469  82.084  0.8958  0.4869 -1.1724
 5216TIP3    H237140   1.685   1.610  82.137 -0.2487  0.5757 -1.5282
 5217TIP3   OH237141   1.255   0.207  15.556 -0.0449  0.5459 -0.6592
 5217TIP3    H137142   1.192   0.138  15.573  0.6875  0.1047  0.3722
 5217TIP3    H237143   1.202   0.286  15.544 -0.7832  0.4951  1.7009
 5218TIP3   OH237144   2.451   0.024  41.898  0.0617  0.1165  0.3222
 5218TIP3    H137145   2.465   0.072  41.816  0.3390 -0.4598  0.0238
 5218TIP3    H237146   2.364  -0.014  41.888 -0.2509  0.7314  0.6536
 5219TIP3   OH237147   1.727   2.104  46.834  1.2890 -0.8850  0.0326
 5219TIP3    H137148   1.654   2.167  46.828 -0.8050 -3.0937  0.5502
 5219TIP3    H237149   1.801   2.156  46.866 -0.2774  1.3216  0.3373
 5220TIP3   OH237150   0.840   0.202 104.663  0.2293  0.3881  0.1900
 5220TIP3    H137151   0.772   0.205 104.595  0.4588  0.3797 -0.0419
 5220TIP3    H237152   0.914   0.250 104.625  0.3720  0.3527  0.4201
 5221TIP3   OH237153   1.133   2.632 107.002  0.0075 -0.8737 -0.1360
 5221TIP3    H137154   1.096   2.704 107.053  0.0970 -1.4015  0.6927
 5221TIP3    H237155   1.186   2.583 107.065  0.0208 -1.6070 -0.7055
 5222TIP3   OH237156   2.653   1.773  74.661 -0.1973  0.1678  0.5392
 5222TIP3    H137157   2.684   1.836  74.727  1.5744  0.3893 -0.4191
 5222TIP3    H237158   2.600   1.825  74.601 -2.1307 -0.1093  1.9468
 5223TIP3   OH237159   1.602   0.522   0.235 -0.0346 -0.0466 -0.0068
 5223TIP3    H137160   1.672   0.494   0.293  0.2294  1.0162  0.2106
 5223TIP3    H237161   1.548   0.580   0.289  0.9615  2.0595 -1.1261
 5224TIP3   OH237162   1.831   1.726  85.931 -0.2146 -0.4516  0.1272
 5224TIP3    H137163   1.847   1.649  85.876 -2.1342 -1.6390  1.1003
 5224TIP3    H237164   1.772   1.781  85.879  2.9056  1.6254 -1.5263
 5225TIP3   OH237165   0.975   0.778 110.747  0.1378  0.2795 -0.5540
 5225TIP3    H137166   0.961   0.834 110.823  2.5684  1.3151 -0.7793
 5225TIP3    H237167   1.067   0.791 110.725 -0.2034 -0.9320 -2.9483
 5226TIP3   OH237168   1.112   0.954 106.956  0.1638 -0.3246  0.2665
 5226TIP3    H137169   1.140   0.884 107.015  0.5079 -0.2559  0.1844
 5226TIP3    H237170   1.118   0.916 106.868  1.3982  0.1407  0.1324
 5227TIP3   OH237171   1.206   2.064  35.994 -0.0475  0.1857 -0.5011
 5227TIP3    H137172   1.166   2.017  36.067  0.7362 -0.9531 -0.7769
 5227TIP3    H237173   1.172   2.020  35.915  0.2482  0.4559 -0.7811
 5228TIP3   OH237174   2.445   2.193   6.459 -0.0100 -0.2522  0.7982
 5228TIP3    H137175   2.539   2.202   6.471 -0.0778  0.2629  0.9902
 5228TIP3    H237176   2.407   2.213   6.544 -0.3552  0.8807  0.4016
 5229TIP3   OH237177   2.353   2.372  13.973  0.5659  0.3053 -0.0404
 5229TIP3    H137178   2.440   2.336  13.953  0.7324 -0.1957  1.4114
 5229TIP3    H237179   2.306   2.370  13.890  2.5492  2.4146 -1.3385
 5230TIP3   OH237180   0.228   1.129  91.173 -0.1432  0.4476 -0.0203
 5230TIP3    H137181   0.273   1.050  91.143 -0.7297  0.3494 -0.6745
 5230TIP3    H237182   0.172   1.153  91.099  1.4362  2.5946 -0.5879
 5231TIP3   OH237183   0.135   0.900  87.893 -0.5921 -0.1404  0.1522
 5231TIP3    H137184   0.157   0.807  87.890 -1.3417 -0.3212 -0.0493
 5231TIP3    H237185   0.155   0.932  87.806 -0.7059 -0.2060  0.1006
 5232TIP3   OH237186   2.602   2.124 111.299  0.1044  0.0891  0.1401
 5232TIP3    H137187   2.517   2.148 111.338  0.4787 -1.5448  2.1549
 5232TIP3    H237188   2.619   2.036 111.331  2.2996  0.1317 -0.7297
 5233TIP3   OH237189   0.803   0.885 101.168 -0.3300  0.4001  0.4744
 5233TIP3    H137190   0.880   0.842 101.133 -0.0870  0.3671  1.0411
 5233TIP3    H237191   0.801   0.970 101.124  0.0587  0.4245  0.5045
 5234TIP3   OH237192   2.016   2.350  16.637  0.4264 -0.2262 -0.0706
 5234TIP3    H137193   1.966   2.432  16.630  3.0558  1.6324  1.0925
 5234TIP3    H237194   1.952   2.281  16.622 -2.2230  1.9883  0.2949
 5235TIP3   OH237195   1.202   0.379  93.311 -0.0566 -0.2224 -0.0034
 5235TIP3    H137196   1.178   0.470  93.296  1.3632  0.2144  0.2742
 5235TIP3    H237197   1.134   0.345  93.369 -1.0083  0.4304 -0.7112
 5236TIP3   OH237198   1.469   2.009  74.351 -0.1556 -0.7873 -0.3375
 5236TIP3    H137199   1.529   1.944  74.387  1.0861  0.8415  0.6558
 5236TIP3    H237200   1.507   2.031  74.265  1.3957  1.0369  0.7390
 5237TIP3   OH237201   2.115   1.031  31.388 -0.1262 -0.2688 -0.0693
 5237TIP3    H137202   2.206   1.007  31.373  0.1245  1.4477 -1.6142
 5237TIP3    H237203   2.067   0.948  31.380  1.3472 -1.3952  1.8405
 5238TIP3   OH237204   1.677   1.261  97.845 -0.1814 -0.0870 -0.6500
 5238TIP3    H137205   1.624   1.283  97.768 -0.2423 -0.1093 -0.6154
 5238TIP3    H237206   1.612   1.236  97.912 -0.1867  0.8515 -0.2919
 5239TIP3   OH237207   0.268   1.744   7.652  0.2594 -0.3621  0.6765
 5239TIP3    H137208   0.233   1.761   7.564  0.9274 -3.6948 -0.4005
 5239TIP3    H237209   0.191   1.715   7.702  0.2976 -1.0493  0.3544
 5240TIP3   OH237210   0.321   1.121  32.753  0.2004 -0.4012  0.2660
 5240TIP3    H137211   0.275   1.204  32.741 -1.8022 -1.4019  0.6296
 5240TIP3    H237212   0.340   1.091  32.664  0.4749  0.1699  0.1237
 5241TIP3   OH237213   0.841   0.893  94.473 -0.3705  0.0829 -0.0998
 5241TIP3    H137214   0.773   0.937  94.422  0.1593  0.4762 -0.4768
 5241TIP3    H237215   0.834   0.801  94.447 -0.5617  0.1694 -0.3624
 5242TIP3   OH237216   2.178   0.694 111.465  0.3951 -0.0690 -0.0849
 5242TIP3    H137217   2.251   0.713 111.407  1.3771 -2.5728  0.2103
 5242TIP3    H237218   2.208   0.621 111.519 -1.8944 -0.4004  0.8872
 5243TIP3   OH237219   0.064   1.647  79.229 -0.7490 -0.3254 -0.1699
 5243TIP3    H137220  -0.009   1.602  79.271 -0.5921  0.4441  0.9701
 5243TIP3    H237221   0.028   1.732  79.202  0.1019  0.8519  2.0698
 5244TIP3   OH237222   1.685   2.640  28.453 -0.4316 -0.0100  0.1267
 5244TIP3    H137223   1.769   2.602  28.479 -1.5709 -1.6622  1.6592
 5244TIP3    H237224   1.669   2.709  28.518 -0.1606  0.5086 -0.3428
 5245TIP3   OH237225   1.321   2.529  94.973  0.1543 -0.0716 -0.6545
 5245TIP3    H137226   1.413   2.548  94.992  0.2381 -0.7763 -0.3326
 5245TIP3    H237227   1.276   2.544  95.057  0.0241 -0.0685 -0.7246
 5246TIP3   OH237228   0.409   1.405  22.816  0.4586 -0.1742  0.4812
 5246TIP3    H137229   0.475   1.375  22.753  0.9288  0.1069  0.8339
 5246TIP3    H237230   0.453   1.400  22.901 -0.1556 -0.5035  0.7885
 5247TIP3   OH237231   2.089   1.868  76.860  0.0966  0.3704 -0.1607
 5247TIP3    H137232   2.131   1.786  76.835 -1.0740  0.2803 -2.0213
 5247TIP3    H237233   2.054   1.852  76.948  2.1364 -0.2014  0.5824
 5248TIP3   OH237234   1.599   0.795  12.660  0.0469  0.0391 -0.1455
 5248TIP3    H137235   1.517   0.837  12.632 -1.0690 -1.8124  0.2034
 5248TIP3    H237236   1.585   0.776  12.753  1.7818  1.6769  0.5135
 5249TIP3   OH237237   0.710   2.184  32.813 -0.4678 -0.2876 -0.1186
 5249TIP3    H137238   0.722   2.163  32.721 -1.2372  1.6448 -0.7194
 5249TIP3    H237239   0.768   2.259  32.829  0.0401 -0.9197  1.1060
 5250TIP3   OH237240   0.141   1.107  86.166  0.3087  0.5097  0.2577
 5250TIP3    H137241   0.047   1.088  86.163  0.2844 -0.5772  3.5272
 5250TIP3    H237242   0.179   1.032  86.211  3.0332  0.3089 -2.0698
 5251TIP3   OH237243   0.212   1.054   4.259 -0.1301  0.1911  0.5252
 5251TIP3    H137244   0.298   1.042   4.219 -0.1113 -2.3038  1.1702
 5251TIP3    H237245   0.229   1.052   4.353 -0.9489 -1.3456  0.6729
 5252TIP3   OH237246   1.290   0.123  26.204  0.0960 -0.1529  0.5112
 5252TIP3    H137247   1.332   0.209  26.202  0.6273 -0.4132  0.2115
 5252TIP3    H237248   1.352   0.067  26.250  0.4695 -0.7386 -0.6593
 5253TIP3   OH237249   1.624   1.792 106.187 -1.4320  0.3240  0.1146
 5253TIP3    H137250   1.581   1.817 106.268  0.0457 -0.2354  1.1197
 5253TIP3    H237251   1.646   1.874 106.144 -1.5176  0.6439  0.6775
 5254TIP3   OH237252   2.086   2.641   5.632 -0.2534 -0.3903 -0.0534
 5254TIP3    H137253   2.104   2.651   5.538  0.2293 -0.6696  0.0089
 5254TIP3    H237254   2.110   2.550   5.651 -0.9220 -0.5172  0.2151
 5255TIP3   OH237255   2.396   0.769  87.419 -0.1936  0.7331 -0.0749
 5255TIP3    H137256   2.406   0.707  87.346  0.3884 -0.7611  1.2021
 5255TIP3    H237257   2.313   0.745  87.460 -0.5513  1.6075 -0.2649
 5256TIP3   OH237258   0.869   1.868  94.888 -0.0406 -0.4572 -0.7979
 5256TIP3    H137259   0.889   1.812  94.813 -0.0270 -0.5628 -0.7116
 5256TIP3    H237260   0.775   1.854  94.904 -0.0059 -0.5624 -0.6862
 5257TIP3   OH237261   0.765   0.154  11.944  0.1297  0.1390 -0.0156
 5257TIP3    H137262   0.850   0.137  11.903  0.7858  1.2818  0.8024
 5257TIP3    H237263   0.772   0.113  12.031 -0.1131  0.3228  0.0918
 5258TIP3   OH237264   0.116   0.674 100.926 -0.7508  0.2549 -0.2132
 5258TIP3    H137265   0.023   0.666 100.902 -0.7262  1.3391 -0.6947
 5258TIP3    H237266   0.115   0.686 101.021 -0.9509 -2.0270  0.1453
 5259TIP3   OH237267   0.906   1.041  82.458 -0.0847 -0.0176  0.0383
 5259TIP3    H137268   0.990   1.057  82.415  0.9244 -0.4957  1.7341
 5259TIP3    H237269   0.883   1.125  82.497 -0.1507 -0.0146 -0.0058
 5260TIP3   OH237270   1.109   1.467  78.395 -0.4103 -0.0518  0.1112
 5260TIP3    H137271   1.067   1.420  78.323  0.8058  0.3029 -0.8650
 5260TIP3    H237272   1.095   1.559  78.376  3.5582  0.3258 -2.1802
 5261TIP3   OH237273   0.642   0.502 110.936  0.2797  0.2381 -0.4255
 5261TIP3    H137274   0.654   0.408 110.946  1.6458  0.5334  1.1938
 5261TIP3    H237275   0.723   0.532 110.893  1.0889  0.9644  1.4752
 5262TIP3   OH237276   0.716   2.556 100.986 -0.1732  0.1774  0.4214
 5262TIP3    H137277   0.688   2.464 100.989  1.2506 -0.2945  0.1151
 5262TIP3    H237278   0.810   2.552 100.968  0.0150  1.6959  0.9117
 5263TIP3   OH237279   1.989   0.850  27.398 -0.3516 -0.6738  0.2939
 5263TIP3    H137280   1.948   0.763  27.401  0.4248 -1.0562 -0.0529
 5263TIP3    H237281   2.082   0.832  27.387  0.0810  0.1561  2.1445
 5264TIP3   OH237282   0.068   1.300   2.863  0.2562 -0.2968 -0.4323
 5264TIP3    H137283   0.134   1.232   2.850 -0.8662 -1.5653  0.2088
 5264TIP3    H237284   0.066   1.313   2.958  0.2387  0.4173 -0.5276
 5265TIP3   OH237285   0.072   0.901 104.468 -0.2119  0.2196 -0.2205
 5265TIP3    H137286   0.110   0.928 104.384 -0.0293 -1.2449 -0.6412
 5265TIP3    H237287   0.122   0.949 104.534 -0.9090  2.0397 -0.9500
 5266TIP3   OH237288   1.941   2.017  90.803 -0.8227  0.1485 -0.4417
 5266TIP3    H137289   1.987   1.947  90.849  0.2274  0.8713 -0.3660
 5266TIP3    H237290   1.929   2.086  90.868  0.8251  1.2466 -1.2277
 5267TIP3   OH237291   1.058   2.405  28.910  0.6530  0.0776 -0.0293
 5267TIP3    H137292   1.150   2.389  28.892  1.0635  0.2997  1.6398
 5267TIP3    H237293   1.032   2.335  28.970  0.1595  0.8062  0.6435
 5268TIP3   OH237294   1.712   1.737  32.667  0.0654 -0.1182  0.1273
 5268TIP3    H137295   1.688   1.830  32.663  0.7957  0.0525 -0.4869
 5268TIP3    H237296   1.668   1.697  32.593  0.4164 -0.0973 -0.0952
 5269TIP3   OH237297   1.557   0.051 104.182  0.0840  0.4880 -0.0133
 5269TIP3    H137298   1.572   0.137 104.143 -1.6417 -0.1656 -2.2999
 5269TIP3    H237299   1.481   0.016 104.136 -1.0161 -1.1548  2.7834
 5270TIP3   OH237300   2.104   2.419  23.741 -0.3339 -0.7608 -0.0839
 5270TIP3    H137301   2.068   2.492  23.791 -0.3606 -1.3898  0.8385
 5270TIP3    H237302   2.033   2.357  23.734  0.1571 -1.4111  0.5661
 5271TIP3   OH237303   1.374   0.436  73.561 -0.3409 -0.7002 -0.2486
 5271TIP3    H137304   1.414   0.522  73.573 -0.0925 -0.9756  0.9812
 5271TIP3    H237305   1.298   0.453  73.505 -1.0457  0.5475  1.0287
 5272TIP3   OH237306   0.222   0.852  74.642  0.0390 -0.0545  0.1847
 5272TIP3    H137307   0.194   0.930  74.593 -0.3399 -0.3216 -0.0304
 5272TIP3    H237308   0.314   0.868  74.661 -0.0465  0.4680  0.1821
 5273TIP3   OH237309   1.910   1.858   1.215 -0.3648 -0.0352 -0.6051
 5273TIP3    H137310   1.854   1.904   1.152 -2.4795  1.5387  2.1733
 5273TIP3    H237311   1.877   1.768   1.216 -1.6221  0.4025 -0.4037
 5274TIP3   OH237312   1.405   1.766  45.874  0.6369 -0.6312  0.1500
 5274TIP3    H137313   1.430   1.684  45.832  2.6835 -0.7042  1.3965
 5274TIP3    H237314   1.409   1.831  45.803  0.2173 -1.3590 -0.5677
 5275TIP3   OH237315   0.480   1.095  83.139 -0.1221 -0.0301 -0.1172
 5275TIP3    H137316   0.407   1.085  83.200  0.3550  0.7726  0.6057
 5275TIP3    H237317   0.467   1.182  83.100 -1.2123 -1.0897 -2.2531
 5276TIP3   OH237318   0.849   2.680 102.516 -0.9087  0.2015  0.1336
 5276TIP3    H137319   0.886   2.678 102.604  0.3338 -0.3963 -0.3806
 5276TIP3    H237320   0.882   2.762 102.479 -1.2426  0.3414  0.1462
 5277TIP3   OH237321   1.292   1.437  30.208 -0.3859 -0.3781  0.4494
 5277TIP3    H137322   1.359   1.505  30.218  0.8800 -1.8503  3.0430
 5277TIP3    H237323   1.307   1.402  30.121  1.0087  0.5707  0.2647
 5278TIP3   OH237324   2.379   1.305  38.052 -0.2774 -0.0798  0.4850
 5278TIP3    H137325   2.411   1.387  38.088  0.9885  0.0553 -0.8569
 5278TIP3    H237326   2.301   1.329  38.002 -0.2508  0.2182  0.5897
 5279TIP3   OH237327   0.748   0.680  18.360  0.0591  0.1141  0.6427
 5279TIP3    H137328   0.821   0.676  18.422  1.2092 -0.0448 -0.6463
 5279TIP3    H237329   0.791   0.688  18.274 -1.4692  2.8711  0.0168
 5280TIP3   OH237330   1.073   0.711 101.282 -0.1844 -0.0100  0.3908
 5280TIP3    H137331   1.085   0.733 101.190  2.6730 -1.4343  0.3143
 5280TIP3    H237332   1.065   0.796 101.326 -0.7253  0.7177 -1.0401
 5281TIP3   OH237333   0.860   1.906  96.419 -0.3086  0.4414  0.3455
 5281TIP3    H137334   0.849   1.885  96.512 -1.6126  0.2457  0.1636
 5281TIP3    H237335   0.918   1.838  96.386 -0.5211  0.0068  0.8419
 5282TIP3   OH237336   1.811   1.208  79.505 -0.3322 -0.0631 -0.3817
 5282TIP3    H137337   1.719   1.226  79.521 -0.5762 -0.4777 -1.2255
 5282TIP3    H237338   1.815   1.188  79.411  0.1909 -2.5555  0.0983
 5283TIP3   OH237339   0.939   0.193  88.657  0.1286  0.3754  0.2100
 5283TIP3    H137340   0.988   0.111  88.666 -0.2166  0.3312  1.9403
 5283TIP3    H237341   0.857   0.178  88.704 -0.3045  1.4301 -0.1751
 5284TIP3   OH237342   2.179   0.509  78.713  0.1199 -0.0743  0.5975
 5284TIP3    H137343   2.173   0.457  78.792 -0.7965  1.3362  1.5104
 5284TIP3    H237344   2.250   0.470  78.663  0.2907 -1.3858  1.8125
 5285TIP3   OH237345   1.976   0.671  36.490 -0.2781 -0.5486  0.6751
 5285TIP3    H137346   1.902   0.626  36.530 -1.3236  1.0113  0.5880
 5285TIP3    H237347   1.951   0.682  36.398  0.1845 -0.2650  0.5793
 5286TIP3   OH237348   2.634   0.108  77.255  0.0488  0.4337 -0.0953
 5286TIP3    H137349   2.719   0.118  77.212 -0.7236  0.4328 -1.6841
 5286TIP3    H237350   2.621   0.013  77.261 -0.3539  0.4332 -0.9225
 5287TIP3   OH237351   0.406   1.531  16.502 -0.3293 -0.4152 -0.2718
 5287TIP3    H137352   0.480   1.563  16.553  0.4757 -2.0986 -0.3341
 5287TIP3    H237353   0.364   1.466  16.558 -1.4679  0.1422 -0.4504
 5288TIP3   OH237354   2.339   1.493 103.825  0.0683  0.1071 -0.0561
 5288TIP3    H137355   2.372   1.421 103.771  1.1033 -2.0318  3.1712
 5288TIP3    H237356   2.400   1.565 103.809  1.9023 -1.3353  0.2081
 5289TIP3   OH237357   0.719   2.349  19.817 -1.0103  0.0278 -0.6952
 5289TIP3    H137358   0.718   2.334  19.723 -0.7719 -0.4444 -0.6305
 5289TIP3    H237359   0.808   2.380  19.835 -0.9206 -0.2920 -0.5725
 5290TIP3   OH237360   2.462   1.116   2.715 -0.2810 -0.4147  0.2084
 5290TIP3    H137361   2.456   1.126   2.620 -0.5542 -0.1324  0.2541
 5290TIP3    H237362   2.548   1.076   2.730 -0.5916 -1.2676 -0.2190
 5291TIP3   OH237363   2.264   1.472  48.424  0.0878  0.2628  0.2293
 5291TIP3    H137364   2.225   1.526  48.494  2.6063  1.6419  0.6924
 5291TIP3    H237365   2.210   1.491  48.347  0.4984  3.1015  0.5208
 5292TIP3   OH237366   1.763   2.361  26.644 -0.1676  0.1205  0.6455
 5292TIP3    H137367   1.818   2.297  26.689 -0.8797 -0.5118  0.6269
 5292TIP3    H237368   1.810   2.377  26.562  1.7007  2.0984  1.9905
 5293TIP3   OH237369   2.586   0.026 101.209  0.4713  0.4945 -0.0971
 5293TIP3    H137370   2.516   0.086 101.235  0.5971  0.4012  0.4782
 5293TIP3    H237371   2.547  -0.062 101.218  0.0608  0.4878 -1.6169
 5294TIP3   OH237372   0.586   2.638  97.079  0.2240 -0.0087 -0.0434
 5294TIP3    H137373   0.500   2.607  97.111 -0.3019  0.4542 -0.9846
 5294TIP3    H237374   0.610   2.575  97.011  0.6992 -0.2094  0.3069
 5295TIP3   OH237375   1.873   1.869  88.914  0.0121 -0.1430 -0.3936
 5295TIP3    H137376   1.916   1.784  88.903 -0.9041 -0.7941  0.7703
 5295TIP3    H237377   1.787   1.847  88.951  0.1842  1.3563  0.9959
 5296TIP3   OH237378   0.201   0.198  88.923 -0.2349  0.0364 -0.0281
 5296TIP3    H137379   0.156   0.272  88.962  1.6849  1.3005 -0.0936
 5296TIP3    H237380   0.215   0.137  88.995 -2.5061 -0.6876 -0.1195
 5297TIP3   OH237381   0.161   0.441  29.849  0.3186  0.0207  0.4472
 5297TIP3    H137382   0.193   0.375  29.910  2.1232 -0.9233 -1.3927
 5297TIP3    H237383   0.234   0.455  29.788 -1.7437 -0.0170 -2.2064
 5298TIP3   OH237384   0.533   2.611  15.910  0.2732  0.2355  0.4270
 5298TIP3    H137385   0.455   2.622  15.856  0.7642 -1.4686 -0.7243
 5298TIP3    H237386   0.531   2.519  15.936  1.4789  0.3661  1.0613
 5299TIP3   OH237387   0.220   1.580   8.753  0.1238  0.3896 -0.3678
 5299TIP3    H137388   0.288   1.552   8.814 -0.0294  1.0668  0.1229
 5299TIP3    H237389   0.144   1.599   8.808 -0.7695 -1.1619 -0.9739
 5300TIP3   OH237390   1.334   0.135 110.353  0.3713  0.1871  0.3914
 5300TIP3    H137391   1.403   0.076 110.383  1.8723  0.1112 -2.7180
 5300TIP3    H237392   1.263   0.078 110.325  0.8232 -0.0454 -0.3194
 5301TIP3   OH237393   2.306   0.231 106.567  0.0359  0.1620  0.7681
 5301TIP3    H137394   2.324   0.225 106.473  1.0419 -1.7487  1.0198
 5301TIP3    H237395   2.345   0.151 106.603 -2.0132 -0.1042  2.5614
 5302TIP3   OH237396   0.454   1.147  14.737  0.2608  0.4978  0.9040
 5302TIP3    H137397   0.406   1.064  14.733 -1.3711  1.4059  0.5172
 5302TIP3    H237398   0.532   1.128  14.790 -0.8076 -0.9276  2.0431
 5303TIP3   OH237399   1.351   1.655  91.763 -0.1298  0.3636  0.1770
 5303TIP3    H137400   1.331   1.564  91.744 -1.1291  0.6409 -0.1932
 5303TIP3    H237401   1.441   1.667  91.735 -0.5146 -0.0866 -1.3424
 5304TIP3   OH237402   0.042   2.486  34.117 -0.3605 -0.3225 -0.1212
 5304TIP3    H137403   0.091   2.511  34.195 -0.3939  0.1561 -0.2506
 5304TIP3    H237404   0.040   2.390  34.119  0.9661 -0.3785 -0.3447
 5305TIP3   OH237405   0.134   1.538  14.320  0.5449 -0.3474  0.4421
 5305TIP3    H137406   0.075   1.609  14.346  0.9379 -0.3323  1.3508
 5305TIP3    H237407   0.076   1.471  14.283 -0.2416 -0.8659  2.4537
 5306TIP3   OH237408   0.574   0.105  53.102  0.0459 -0.1250 -0.3787
 5306TIP3    H137409   0.507   0.055  53.055  0.0153  2.2001 -3.1320
 5306TIP3    H237410   0.525   0.177  53.143  0.7280  1.8524 -2.7876
 5307TIP3   OH237411   1.820   1.178  81.229 -0.1384  0.3335  0.5934
 5307TIP3    H137412   1.787   1.092  81.201  0.1958 -0.2861  2.0295
 5307TIP3    H237413   1.907   1.184  81.189  0.7399 -0.9645  2.1866
 5308TIP3   OH237414   1.846   0.067 104.290  0.0890  0.3796  0.2995
 5308TIP3    H137415   1.762   0.064 104.245  0.3713  0.9260 -0.2862
 5308TIP3    H237416   1.861  -0.022 104.321 -1.2672  0.5208  1.4826
 5309TIP3   OH237417   2.215   2.225 100.017 -0.7421 -0.2209 -0.3758
 5309TIP3    H137418   2.304   2.261 100.026 -0.9512  0.6034 -1.3310
 5309TIP3    H237419   2.181   2.268  99.939 -1.9543 -0.6099 -0.0728
 5310TIP3   OH237420   2.560   0.806  95.276 -0.0344  0.6437 -0.0911
 5310TIP3    H137421   2.624   0.746  95.314  0.4113  1.1707  0.0076
 5310TIP3    H237422   2.610   0.856  95.212 -0.2842  1.2622  0.1889
 5311TIP3   OH237423   1.585   1.467  16.876 -0.5174 -0.4357  0.4482
 5311TIP3    H137424   1.545   1.540  16.829 -0.6750  1.1503  2.8384
 5311TIP3    H237425   1.678   1.490  16.880 -0.2527 -1.3092 -0.3146
 5312TIP3   OH237426   0.138   1.314  99.073  0.3422  0.3858  0.0564
 5312TIP3    H137427   0.114   1.339  98.984  1.6403  1.3732 -0.0446
 5312TIP3    H237428   0.225   1.352  99.087  0.2380  0.1214  1.6863
 5313TIP3   OH237429   2.409   2.136  18.402  0.1535  0.0612  0.1481
 5313TIP3    H137430   2.396   2.165  18.492 -0.1469  0.6988 -0.0993
 5313TIP3    H237431   2.500   2.158  18.381  0.2598 -0.1970  0.3294
 5314TIP3   OH237432   1.720   1.466 108.294 -0.2248  0.1336  0.2421
 5314TIP3    H137433   1.641   1.496 108.339 -0.2472 -1.1486  1.1088
 5314TIP3    H237434   1.766   1.413 108.359 -0.2785 -1.8130 -1.2120
 5315TIP3   OH237435   1.419   1.162  92.446  0.7936 -0.1967 -0.2394
 5315TIP3    H137436   1.378   1.135  92.365  0.5538  1.6172 -0.7747
 5315TIP3    H237437   1.411   1.257  92.447  1.1156 -0.1351  1.7371
 5316TIP3   OH237438   1.416   0.351  85.044  0.0929  0.1103  0.2168
 5316TIP3    H137439   1.362   0.376  85.119  0.1329  1.1704 -0.0794
 5316TIP3    H237440   1.498   0.399  85.056  0.7000 -0.9294  0.2952
 5317TIP3   OH237441   2.632   1.372  23.116  0.2490  0.3581 -0.3896
 5317TIP3    H137442   2.571   1.309  23.077 -1.9000  1.1243  1.4909
 5317TIP3    H237443   2.609   1.455  23.075 -0.9320  0.8782  1.2197
 5318TIP3   OH237444   1.020   0.475  21.465  0.0611  0.0128 -0.5013
 5318TIP3    H137445   1.077   0.467  21.388  1.0929  0.9688  0.1195
 5318TIP3    H237446   1.027   0.568  21.489  0.8595 -0.5166  1.5275
 5319TIP3   OH237447   2.177   1.082 101.328 -0.1952  0.1963 -0.2441
 5319TIP3    H137448   2.207   1.023 101.397  0.1350 -0.8061 -1.2187
 5319TIP3    H237449   2.253   1.136 101.308 -0.0364 -0.0857 -0.4086
 5320TIP3   OH237450   0.507   0.547  93.316 -0.2989  0.6353 -0.0880
 5320TIP3    H137451   0.425   0.580  93.352  0.1270  0.8461  0.7145
 5320TIP3    H237452   0.507   0.454  93.339 -1.1440  0.2017 -1.6869
 5321TIP3   OH237453   1.542   0.805  82.509  0.0523  0.0304 -0.0087
 5321TIP3    H137454   1.622   0.762  82.478  1.3263  1.7913  0.6552
 5321TIP3    H237455   1.489   0.735  82.546  1.7125 -1.0702  0.3862
 5322TIP3   OH237456   1.362   0.685  95.300 -0.3722  0.0272  0.4700
 5322TIP3    H137457   1.426   0.710  95.234 -1.0137  0.6144  0.0506
 5322TIP3    H237458   1.291   0.643  95.250 -0.6433  0.0367  0.8375
 5323TIP3   OH237459   1.021   1.902  99.470  0.5111 -0.1667 -0.2417
 5323TIP3    H137460   0.939   1.915  99.519 -0.7268 -0.6061 -2.1018
 5323TIP3    H237461   1.004   1.941  99.385  1.2274 -2.6962 -1.6388
 5324TIP3   OH237462   0.373   0.938  36.250 -0.0050 -0.0361  0.8222
 5324TIP3    H137463   0.387   0.940  36.344  0.1645  0.1488  0.7969
 5324TIP3    H237464   0.365   1.030  36.225 -3.3958 -0.1434  1.1227
 5325TIP3   OH237465   2.177   2.167 111.560 -0.0452  0.3376 -0.5872
 5325TIP3    H137466   2.107   2.211 111.607 -0.9295 -0.6510 -0.9464
 5325TIP3    H237467   2.236   2.136 111.629 -0.4164  0.3946 -0.2370
 5326TIP3   OH237468   1.523   0.551 100.483 -0.4907 -0.4153 -0.1217
 5326TIP3    H137469   1.474   0.576 100.404  0.2964 -0.5743 -0.6696
 5326TIP3    H237470   1.499   0.460 100.498  0.8258 -1.0054 -1.3357
 5327TIP3   OH237471   2.081   1.132  26.297  0.0508 -0.2485  0.3544
 5327TIP3    H137472   2.057   1.198  26.232 -0.2871 -1.1150 -0.4246
 5327TIP3    H237473   2.172   1.109  26.276  0.0754 -0.2345  0.4451
 5328TIP3   OH237474   2.296   0.411  22.485 -0.7088  0.2159 -0.6255
 5328TIP3    H137475   2.325   0.499  22.461  0.2543 -0.5837 -2.6832
 5328TIP3    H237476   2.370   0.355  22.460 -1.6221 -1.2550 -0.1358
 5329TIP3   OH237477   0.505   0.941  92.904  0.0541 -0.5383  0.7547
 5329TIP3    H137478   0.539   1.023  92.868  0.5601 -0.7393  0.7731
 5329TIP3    H237479   0.470   0.894  92.829  1.8015 -1.2992  0.3731
 5330TIP3   OH237480   1.254   2.402  37.052  0.5380 -0.3795  0.1493
 5330TIP3    H137481   1.168   2.378  37.015  0.9362 -1.8819  0.1408
 5330TIP3    H237482   1.309   2.416  36.975  0.8951 -1.7632  0.1125
 5331TIP3   OH237483   2.303   0.665  99.674 -0.6240 -0.3265  0.0684
 5331TIP3    H137484   2.296   0.697  99.584  1.5930 -0.0946 -0.0879
 5331TIP3    H237485   2.332   0.742  99.724 -1.4921 -0.5397  0.9153
 5332TIP3   OH237486   1.726   1.989  86.312  0.0268 -0.3812 -0.5808
 5332TIP3    H137487   1.646   1.959  86.356 -0.9193 -0.3670 -2.2105
 5332TIP3    H237488   1.695   2.050  86.245  1.2863 -1.4022 -2.1444
 5333TIP3   OH237489   2.594   1.567  94.890  0.2060 -0.4844 -0.8330
 5333TIP3    H137490   2.663   1.566  94.957 -0.5897 -1.2891  0.0032
 5333TIP3    H237491   2.639   1.541  94.810  0.7022 -1.9932 -0.1023
 5334TIP3   OH237492   0.727   0.975  95.659  0.0253 -0.4594 -0.0905
 5334TIP3    H137493   0.710   0.921  95.581 -1.0282 -0.3439  0.0460
 5334TIP3    H237494   0.769   0.914  95.721 -0.7134 -1.0112 -0.1175
 5335TIP3   OH237495   2.584   2.294  92.780  0.0444 -0.3787 -0.2154
 5335TIP3    H137496   2.489   2.286  92.777  0.0002 -0.0909  0.3514
 5335TIP3    H237497   2.614   2.260  92.695 -0.4879 -1.3859 -0.0068
 5336TIP3   OH237498   0.631   0.842  81.018  0.2407 -0.4369  0.3596
 5336TIP3    H137499   0.631   0.748  81.001  0.7769 -0.3794  0.0293
 5336TIP3    H237500   0.598   0.851  81.107  0.4747 -0.9611  0.5004
 5337TIP3   OH237501   0.186   0.948  85.030  0.3290 -0.7722  0.1806
 5337TIP3    H137502   0.227   0.996  84.958  1.0125 -0.1929  0.9360
 5337TIP3    H237503   0.092   0.948  85.008  0.4183  0.1669 -0.2722
 5338TIP3   OH237504   2.445   2.365 104.801 -0.4558  0.1612 -0.3466
 5338TIP3    H137505   2.385   2.426 104.844 -0.0613  0.4854 -0.2482
 5338TIP3    H237506   2.395   2.330 104.726 -0.6676  0.6354 -0.4274
 5339TIP3   OH237507   0.373   0.537  35.922  0.3687  0.2301 -0.5514
 5339TIP3    H137508   0.467   0.524  35.933  0.0611 -1.1685  0.7852
 5339TIP3    H237509   0.348   0.594  35.995 -0.1427 -1.1833  0.4114
 5340TIP3   OH237510   0.837   2.078  33.965  0.5454  0.0151  0.5253
 5340TIP3    H137511   0.784   2.156  33.982 -0.6371 -0.9062  1.2515
 5340TIP3    H237512   0.805   2.045  33.881 -2.1235 -2.0915  2.2141
 5341TIP3   OH237513   2.676   2.244   5.900 -0.3250 -0.2390  0.3798
 5341TIP3    H137514   2.718   2.176   5.954  0.3913 -0.2032 -0.1312
 5341TIP3    H237515   2.584   2.242   5.928  0.0218 -0.2413  1.5861
 5342TIP3   OH237516   1.663   1.949  47.087  0.3035  0.5219  0.9289
 5342TIP3    H137517   1.575   1.910  47.092 -0.0671  1.4186  1.7052
 5342TIP3    H237518   1.673   1.973  46.995  0.2241 -0.6549  0.5957
 5343TIP3   OH237519   0.629   0.666  52.963  0.1846  0.2418 -0.7013
 5343TIP3    H137520   0.566   0.597  52.942  0.0831  0.1152  0.0159
 5343TIP3    H237521   0.603   0.739  52.907 -0.8295  0.3219 -0.1517
 5344TIP3   OH237522   2.285   0.707  24.856 -0.1529  1.0292 -0.0938
 5344TIP3    H137523   2.257   0.633  24.802 -0.8700  1.2379 -0.0174
 5344TIP3    H237524   2.358   0.673  24.907 -1.2570 -0.0142  0.8562
 5345TIP3   OH237525   1.617   0.007  97.211 -0.3918  0.6302  0.2217
 5345TIP3    H137526   1.583  -0.046  97.282  1.1588 -0.6226  0.0954
 5345TIP3    H237527   1.671   0.073  97.254  3.4103 -2.1761  0.3043
 5346TIP3   OH237528   1.539   0.875  24.767  0.2168  0.0120 -0.2263
 5346TIP3    H137529   1.473   0.842  24.829  0.4049  0.4431  0.2115
 5346TIP3    H237530   1.614   0.895  24.822  0.4212  0.3100 -0.6161
 5347TIP3   OH237531   0.964   0.261 100.521 -0.6510  0.1250 -0.0475
 5347TIP3    H137532   0.891   0.279 100.462 -0.3218  0.0158 -0.4979
 5347TIP3    H237533   0.954   0.169 100.544 -0.2279 -0.1023 -0.7282
 5348TIP3   OH237534   2.047   0.408  17.243  0.2063  0.0234  0.0635
 5348TIP3    H137535   2.061   0.485  17.188 -0.6569  1.8984  2.3071
 5348TIP3    H237536   1.952   0.400  17.249  0.2853 -0.9681  0.2480
 5349TIP3   OH237537   0.666   2.091  10.449 -0.5433  0.5195 -0.0145
 5349TIP3    H137538   0.612   2.047  10.514 -0.0800  0.2806  0.2116
 5349TIP3    H237539   0.756   2.079  10.480 -0.3953  1.4698 -0.0319
 5350TIP3   OH237540   2.488   1.948  17.538  0.0918 -0.0698  0.5014
 5350TIP3    H137541   2.555   1.971  17.603  0.1557  0.2505  0.3199
 5350TIP3    H237542   2.407   1.941  17.589  0.3483 -0.9935  0.8206
 5351TIP3   OH237543   1.518   0.200   4.669  0.0698  0.1626 -0.2612
 5351TIP3    H137544   1.521   0.274   4.729  0.7987 -0.8725  1.0111
 5351TIP3    H237545   1.540   0.238   4.583  0.3173  1.4256  0.3412
 5352TIP3   OH237546   0.975   0.763  73.994  0.5879 -0.4149 -0.2092
 5352TIP3    H137547   0.998   0.748  74.086  0.1003  0.5881  0.0825
 5352TIP3    H237548   1.002   0.682  73.950 -0.0785 -1.3197  0.9732
 5353TIP3   OH237549   1.186   1.836  99.891  0.4294  0.2358 -0.2072
 5353TIP3    H137550   1.262   1.816  99.947 -0.7238  0.6016  1.5718
 5353TIP3    H237551   1.110   1.820  99.947 -0.8169  0.2403 -1.8223
 5354TIP3   OH237552   0.127   2.561  27.715  0.3416  0.3702  0.0343
 5354TIP3    H137553   0.083   2.597  27.638 -0.4744  0.9666  0.7697
 5354TIP3    H237554   0.169   2.636  27.757 -2.0672  0.7305  2.0391
 5355TIP3   OH237555   1.222   0.308 111.861  0.2445  0.2179  0.1257
 5355TIP3    H137556   1.181   0.262 111.934  0.1845  0.2572  0.1186
 5355TIP3    H237557   1.150   0.329 111.802  0.0417  1.6950  0.8570
 5356TIP3   OH237558   0.612   1.802   8.251 -0.0929 -0.0150  0.2024
 5356TIP3    H137559   0.591   1.881   8.300 -0.7706 -0.7961  1.2207
 5356TIP3    H237560   0.674   1.755   8.307 -0.4979 -0.6893  0.0966
 5357TIP3   OH237561   1.663   0.304  27.907 -0.2934  0.3774 -0.4835
 5357TIP3    H137562   1.683   0.312  28.000 -0.7312  0.1897 -0.3744
 5357TIP3    H237563   1.701   0.383  27.867 -0.7358  0.8197 -0.0414
 5358TIP3   OH237564   0.879   2.356  13.157 -0.0809  0.5337 -0.3339
 5358TIP3    H137565   0.869   2.444  13.193 -0.2034  0.1063  0.7129
 5358TIP3    H237566   0.818   2.353  13.083 -0.6190  1.0930  0.0769
 5359TIP3   OH237567   2.610   0.490  81.998  0.2490  0.3765 -0.1061
 5359TIP3    H137568   2.670   0.416  82.000  0.7063  0.7575  1.4591
 5359TIP3    H237569   2.637   0.541  81.922 -0.7949 -1.6016 -1.9161
 5360TIP3   OH237570   1.902   2.091   2.096 -0.1865 -0.1764 -0.3945
 5360TIP3    H137571   1.918   2.130   2.181 -0.1479 -1.6138  0.2951
 5360TIP3    H237572   1.807   2.094   2.085 -0.0498  2.6459 -1.6624
 5361TIP3   OH237573   0.780   2.674  80.923  0.1982  0.4649  0.1227
 5361TIP3    H137574   0.711   2.608  80.926  0.4023  0.2504  0.1259
 5361TIP3    H237575   0.790   2.693  80.830  1.6741 -1.1492 -0.1108
 5362TIP3   OH237576   1.900   0.574  32.813 -0.3555 -1.1429 -0.1502
 5362TIP3    H137577   1.965   0.606  32.751  0.1265  1.1778  1.4366
 5362TIP3    H237578   1.824   0.631  32.800 -0.2275 -0.5666  1.3468
 5363TIP3   OH237579   0.535   0.315 110.139  0.0632 -0.1512  0.3642
 5363TIP3    H137580   0.616   0.352 110.175 -0.7703  1.6726  0.4551
 5363TIP3    H237581   0.505   0.381 110.076 -1.2176 -0.9378  0.1224
 5364TIP3   OH237582   1.129   2.375   8.030  0.3283  0.4054  0.4145
 5364TIP3    H137583   1.162   2.464   8.045  0.3837  0.2081  1.5357
 5364TIP3    H237584   1.208   2.323   8.016  0.4992  0.1053  2.1871
 5365TIP3   OH237585   1.286   1.287   0.044  0.1521 -0.2202  0.8476
 5365TIP3    H137586   1.247   1.315  -0.039 -0.1604 -1.2583  0.6373
 5365TIP3    H237587   1.249   1.201   0.060  1.1785 -0.5637  1.4314
 5366TIP3   OH237588   2.032   0.170  20.136 -0.0887 -0.0889  0.2977
 5366TIP3    H137589   2.048   0.262  20.158  1.4441  0.2653 -1.9517
 5366TIP3    H237590   2.118   0.136  20.110 -0.8728 -1.7695 -0.2640
 5367TIP3   OH237591   1.600   1.736   3.309  0.0288  0.2854  0.2714
 5367TIP3    H137592   1.611   1.668   3.376  0.9786 -0.3784 -0.5338
 5367TIP3    H237593   1.531   1.793   3.344  1.1103  0.4706  2.2125
 5368TIP3   OH237594   1.845   0.374  36.175 -0.6707  0.1335  0.2525
 5368TIP3    H137595   1.930   0.367  36.132 -0.1700  0.9982  1.0687
 5368TIP3    H237596   1.801   0.444  36.128 -0.0337  1.2374  1.2511
 5369TIP3   OH237597   1.001   0.456  57.260 -0.1738  0.0101 -0.1003
 5369TIP3    H137598   1.022   0.520  57.327 -0.5444 -0.1295  0.1533
 5369TIP3    H237599   1.033   0.494  57.179  1.2759 -0.3075  0.2998
 5370TIP3   OH237600   0.161   2.171 104.594  0.0989  0.1125  0.0445
 5370TIP3    H137601   0.196   2.248 104.549 -1.2865  1.4328  1.1072
 5370TIP3    H237602   0.093   2.138 104.535  1.8893 -1.4657 -1.2523
 5371TIP3   OH237603   1.476   0.063  26.443 -0.5281  0.3990 -0.2904
 5371TIP3    H137604   1.516   0.003  26.506 -1.1099  0.0726 -0.2276
 5371TIP3    H237605   1.545   0.126  26.423 -0.4280  0.7145  0.9309
 5372TIP3   OH237606   2.235   2.525  13.403 -0.5996 -0.4900  0.2705
 5372TIP3    H137607   2.143   2.500  13.411 -1.3421  1.2724 -1.6093
 5372TIP3    H237608   2.276   2.450  13.360 -1.4276 -0.8440  0.0699
 5373TIP3   OH237609   1.070   2.128  92.750 -0.1484  0.5857 -0.4637
 5373TIP3    H137610   1.114   2.204  92.789 -2.2629  0.8675  1.5747
 5373TIP3    H237611   0.980   2.135  92.780 -0.2704 -3.1377  0.4400
 5374TIP3   OH237612   0.854   0.165  92.093  0.1020 -0.2658 -0.4966
 5374TIP3    H137613   0.869   0.146  92.185 -0.1776  0.5542 -0.2784
 5374TIP3    H237614   0.830   0.080  92.055  0.0604 -0.5784  0.2079
 5375TIP3   OH237615   1.124   0.633   4.717  0.3601  0.2438 -0.1261
 5375TIP3    H137616   1.082   0.570   4.660  0.3959  1.3709 -1.4424
 5375TIP3    H237617   1.216   0.634   4.690  0.6640 -0.1467  0.8328
 5376TIP3   OH237618   0.328   0.394 108.248  0.4474  0.6670 -0.4916
 5376TIP3    H137619   0.273   0.459 108.204 -0.0588 -0.3259 -1.4018
 5376TIP3    H237620   0.374   0.443 108.316  0.1936  1.9891 -1.2293
 5377TIP3   OH237621   2.658   2.342  73.423  0.0492  0.4293 -0.2359
 5377TIP3    H137622   2.611   2.426  73.424  0.1115  0.4823  1.5810
 5377TIP3    H237623   2.676   2.326  73.330  0.3853  2.6164 -0.6095
 5378TIP3   OH237624   2.283   0.258  56.500 -0.5194  0.3453  0.6543
 5378TIP3    H137625   2.311   0.180  56.453  0.8545  0.5901  1.0385
 5378TIP3    H237626   2.187   0.252  56.502 -0.7747  0.7593 -2.9669
 5379TIP3   OH237627   0.608   1.683  29.353  0.0144  0.1842 -0.3050
 5379TIP3    H137628   0.641   1.772  29.360  0.4796  0.1020 -1.2649
 5379TIP3    H237629   0.630   1.656  29.264  0.6788 -1.1963  0.2338
 5380TIP3   OH237630   1.275   0.430  28.486  1.0044  0.5843  0.1419
 5380TIP3    H137631   1.341   0.415  28.554  0.6586  1.1788  0.6212
 5380TIP3    H237632   1.325   0.441  28.405  1.4923  0.9871  0.4974
 5381TIP3   OH237633   2.654   0.373  27.993  0.1576  0.0961  0.3397
 5381TIP3    H137634   2.724   0.409  27.939  0.0148  0.2770  0.2761
 5381TIP3    H237635   2.700   0.326  28.063  0.3746  1.8541  1.4322
 5382TIP3   OH237636   1.542   1.512 106.170  0.3465  0.3463 -0.1221
 5382TIP3    H137637   1.534   1.502 106.075 -0.2962  1.3119 -0.1956
 5382TIP3    H237638   1.547   1.607 106.183 -0.0491  0.2463  0.8373
 5383TIP3   OH237639   0.209   2.339 106.237  0.3999  0.6796 -0.3045
 5383TIP3    H137640   0.273   2.276 106.271 -0.4390  0.7686  1.5648
 5383TIP3    H237641   0.259   2.419 106.223  1.2930 -0.1044 -1.8389
 5384TIP3   OH237642   2.666   2.524  43.246 -0.6199 -0.7660  0.0814
 5384TIP3    H137643   2.632   2.480  43.323  1.8801  0.0571  1.7738
 5384TIP3    H237644   2.650   2.617  43.261  0.6194 -0.5238  0.0510
 5385TIP3   OH237645   1.916   0.409  10.628 -0.7831  0.3025 -0.0418
 5385TIP3    H137646   1.890   0.472  10.696  0.9599  0.2395  0.7466
 5385TIP3    H237647   1.989   0.452  10.583  0.5632 -1.1857  0.6300
 5386TIP3   OH237648   1.202   1.149  83.699  0.4114 -0.1715 -0.2939
 5386TIP3    H137649   1.268   1.083  83.718  0.4674  0.3583  1.4638
 5386TIP3    H237650   1.119   1.101  83.699  0.7742 -1.0887 -3.7573
 5387TIP3   OH237651   0.470   0.755  75.366  0.0140  0.5335  0.1973
 5387TIP3    H137652   0.414   0.683  75.337  1.0900 -0.2073 -0.1144
 5387TIP3    H237653   0.497   0.799  75.285 -0.3407  1.0640  0.3653
 5388TIP3   OH237654   1.737   2.075  28.404  0.2017  0.3422  0.2875
 5388TIP3    H137655   1.645   2.047  28.401  0.5828 -0.8910 -2.1984
 5388TIP3    H237656   1.786   1.995  28.420  0.9236  0.7461  0.1595
 5389TIP3   OH237657   0.563   2.645  43.097  0.1945  0.5370 -0.4438
 5389TIP3    H137658   0.515   2.683  43.024  1.6986 -0.2455 -1.9314
 5389TIP3    H237659   0.611   2.718  43.136  0.6103  0.7151 -1.2724
 5390TIP3   OH237660   0.028   0.213   8.537  0.2152  0.2537  0.4056
 5390TIP3    H137661  -0.032   0.276   8.577  1.0863  0.8335  0.8235
 5390TIP3    H237662   0.014   0.225   8.443 -0.0700  0.6430  0.4921
 5391TIP3   OH237663   1.298   0.877  92.274 -0.1586  0.0291  0.2710
 5391TIP3    H137664   1.338   0.811  92.330  3.9017  1.6676 -0.3342
 5391TIP3    H237665   1.336   0.862  92.188 -0.4698  2.0349 -0.2849
 5392TIP3   OH237666   2.553   0.702  17.558  0.0315 -0.2034 -0.3118
 5392TIP3    H137667   2.612   0.656  17.618 -0.9815 -0.0846  0.8388
 5392TIP3    H237668   2.550   0.792  17.592 -2.3843 -0.6760  1.0034
 5393TIP3   OH237669   0.792   1.693  83.115 -0.1185  0.1177 -0.0753
 5393TIP3    H137670   0.744   1.616  83.085  2.5181 -1.5679 -0.3585
 5393TIP3    H237671   0.725   1.751  83.152 -2.3116 -1.9618 -0.5367
 5394TIP3   OH237672   1.620   0.361  47.383  0.9101  0.5061 -0.4520
 5394TIP3    H137673   1.535   0.345  47.341 -0.7495 -0.8067  3.0077
 5394TIP3    H237674   1.671   0.282  47.367  1.7573  1.4229 -2.8165
 5395TIP3   OH237675   2.487   1.622   6.808  0.4646 -0.5816 -0.4188
 5395TIP3    H137676   2.400   1.652   6.835  0.2007 -0.0028 -1.8232
 5395TIP3    H237677   2.547   1.665   6.868 -0.2084 -1.0847  0.6491
 5396TIP3   OH237678   1.020   1.295  83.448 -0.0149  0.6058  0.0437
 5396TIP3    H137679   1.045   1.350  83.522  0.4341  0.5265 -0.0474
 5396TIP3    H237680   0.933   1.326  83.424 -0.5617  0.0036  1.1984
 5397TIP3   OH237681   1.999   1.258   8.773  0.2290 -0.0919 -0.6150
 5397TIP3    H137682   1.957   1.327   8.721 -1.1791 -0.8695 -0.5720
 5397TIP3    H237683   1.933   1.235   8.839  0.5798 -1.5970 -0.7525
 5398TIP3   OH237684   0.528   1.510  23.426  0.2412  0.1033  0.3062
 5398TIP3    H137685   0.482   1.589  23.398 -3.1084 -1.6931  0.1374
 5398TIP3    H237686   0.516   1.448  23.353  2.6475 -0.6484  0.4778
 5399TIP3   OH237687   2.461   1.735  96.688  0.6407  0.0786 -0.4197
 5399TIP3    H137688   2.380   1.755  96.642  0.3795  1.1317  0.4783
 5399TIP3    H237689   2.448   1.646  96.722 -0.4512  0.5384  0.3949
 5400TIP3   OH237690   1.926   1.745  91.306 -0.6569 -0.4007 -0.5823
 5400TIP3    H137691   1.971   1.829  91.311 -0.6579 -0.4438  0.4396
 5400TIP3    H237692   1.987   1.687  91.261  0.1843 -0.3687  0.4868
 5401TIP3   OH237693   0.923   0.249  90.491  0.3510  0.0623 -0.2034
 5401TIP3    H137694   0.948   0.259  90.583 -0.1546 -0.4418 -0.0058
 5401TIP3    H237695   0.989   0.299  90.443  0.9882 -0.1890  0.3923
 5402TIP3   OH237696   1.677   1.372  30.177  0.0228  0.2446  0.3502
 5402TIP3    H137697   1.712   1.401  30.262 -0.7036 -0.1366  0.7910
 5402TIP3    H237698   1.648   1.452  30.135  0.7793  0.4882  0.2728
 5403TIP3   OH237699   2.224   2.244   9.574  0.0770  0.1323 -0.0840
 5403TIP3    H137700   2.129   2.247   9.565  0.1980 -0.0159 -1.7426
 5403TIP3    H237701   2.255   2.319   9.523  0.8400  0.2977  0.6141
 5404TIP3   OH237702   2.611   1.312  31.169  0.0263  0.0117  0.0303
 5404TIP3    H137703   2.591   1.224  31.199 -0.1182  0.3586  0.9822
 5404TIP3    H237704   2.529   1.344  31.131 -0.5169  0.4438  1.4848
 5405TIP3   OH237705   2.152   2.274  98.997  0.3986 -0.2217 -0.5036
 5405TIP3    H137706   2.189   2.311  99.077 -1.1026  0.2508  0.0014
 5405TIP3    H237707   2.123   2.349  98.946 -0.1485 -0.5940 -0.7469
 5406TIP3   OH237708   0.867   0.330   3.811 -0.4338 -0.1868  0.3508
 5406TIP3    H137709   0.861   0.426   3.811 -0.7569 -0.2068  0.4052
 5406TIP3    H237710   0.818   0.303   3.889 -1.3699 -0.4609 -0.3097
 5407TIP3   OH237711   0.798   2.427   0.785 -0.2705 -0.3205 -0.1859
 5407TIP3    H137712   0.831   2.508   0.748  0.5896  0.1777  1.5740
 5407TIP3    H237713   0.706   2.423   0.757 -0.4914  1.5521  0.1910
 5408TIP3   OH237714   2.355   1.206  91.090  0.5201 -0.1403 -0.1980
 5408TIP3    H137715   2.450   1.200  91.083  0.4484 -0.9253 -0.5592
 5408TIP3    H237716   2.336   1.300  91.085  1.1665 -0.0629 -1.5055
 5409TIP3   OH237717   1.875   1.949  33.234 -0.1285  0.2840 -0.0289
 5409TIP3    H137718   1.881   2.017  33.300  0.2011  0.1057  0.1274
 5409TIP3    H237719   1.814   1.885  33.271  1.4731 -0.7459  0.9566
 5410TIP3   OH237720   1.336   2.564  97.136  0.5076  0.2259  0.0841
 5410TIP3    H137721   1.409   2.548  97.196 -0.8057 -2.0418  1.2270
 5410TIP3    H237722   1.261   2.582  97.194 -0.0620  1.6491 -1.0356
 5411TIP3   OH237723   0.766   0.384 102.585  0.0418 -0.6743 -0.4731
 5411TIP3    H137724   0.764   0.455 102.521 -0.0158 -1.2949 -1.1767
 5411TIP3    H237725   0.811   0.313 102.540 -0.9065 -1.4720 -0.1876
 5412TIP3   OH237726   2.432   0.846 101.808  0.2291 -0.4867 -0.1471
 5412TIP3    H137727   2.398   0.931 101.835 -0.3785 -0.7169 -0.1658
 5412TIP3    H237728   2.480   0.864 101.727  0.2900 -0.1310 -0.0357
 5413TIP3   OH237729   1.508   2.096   7.534  0.2726  0.3746 -0.7761
 5413TIP3    H137730   1.470   2.154   7.468 -0.8468 -0.5235 -0.9648
 5413TIP3    H237731   1.590   2.066   7.494  0.4482  1.1798 -1.0239
 5414TIP3   OH237732   2.508   0.776  85.682  0.5541  0.8888 -0.3810
 5414TIP3    H137733   2.592   0.755  85.723  0.2372 -0.2589 -0.2953
 5414TIP3    H237734   2.512   0.734  85.596  0.2341  1.2105 -0.5538
 5415TIP3   OH237735   0.345   0.564  99.162  0.7361 -0.6635  0.2139
 5415TIP3    H137736   0.367   0.622  99.235 -0.6239  0.0267  0.0918
 5415TIP3    H237737   0.261   0.525  99.186 -0.4863  0.6963 -1.6012
 5416TIP3   OH237738   2.594   1.118  13.676 -0.0107 -0.1149  0.3787
 5416TIP3    H137739   2.581   1.045  13.736  0.0822 -0.3033  0.1703
 5416TIP3    H237740   2.602   1.077  13.590 -0.5780  0.1843  0.1827
 5417TIP3   OH237741   0.117   2.435  35.174  0.0088 -0.4027  0.0795
 5417TIP3    H137742   0.074   2.520  35.169  1.3989  0.2847 -0.7664
 5417TIP3    H237743   0.168   2.439  35.255 -0.5507 -0.7364  0.4448
 5418TIP3   OH237744   2.286   1.412  76.162 -0.1327  0.5530 -0.2423
 5418TIP3    H137745   2.378   1.439  76.172 -0.3592  1.5923 -0.8344
 5418TIP3    H237746   2.289   1.343  76.096  0.6666 -2.2889  2.4872
 5419TIP3   OH237747   2.672   1.210  33.936  0.8101  0.2270 -0.4378
 5419TIP3    H137748   2.716   1.263  33.869  2.2458 -0.6966 -0.2626
 5419TIP3    H237749   2.716   1.233  34.017  0.3370 -0.0378 -0.1041
 5420TIP3   OH237750   2.380   1.038  34.660  0.0567  0.4899  0.0350
 5420TIP3    H137751   2.455   1.013  34.606  1.0700  1.2561  1.0369
 5420TIP3    H237752   2.308   1.046  34.598  0.1420 -2.7101 -0.6416
 5421TIP3   OH237753   2.429   1.287  85.425 -0.7685  0.4554 -0.5164
 5421TIP3    H137754   2.442   1.196  85.397 -0.9451  0.7864 -1.7485
 5421TIP3    H237755   2.354   1.283  85.484 -0.9034 -0.1686 -0.7135
 5422TIP3   OH237756   2.588   0.238   0.471  0.4079 -0.5843  0.2402
 5422TIP3    H137757   2.670   0.241   0.422  0.6648 -1.7953  0.5647
 5422TIP3    H237758   2.612   0.265   0.560 -0.1901  2.3184 -0.4005
 5423TIP3   OH237759   1.375   0.398 110.503 -0.5912 -0.0523  0.5371
 5423TIP3    H137760   1.403   0.315 110.541  0.2155 -0.4454 -0.8355
 5423TIP3    H237761   1.338   0.374 110.418 -0.2460  0.9945  0.0602
 5424TIP3   OH237762   1.012   2.681  98.992 -0.0102  0.3701  0.0998
 5424TIP3    H137763   0.954   2.756  98.980 -0.3178 -0.0510 -1.2037
 5424TIP3    H237764   0.959   2.618  99.041 -0.0214  0.7032  0.5152
 5425TIP3   OH237765   0.810   0.857  10.210  0.3741 -0.1591  0.1717
 5425TIP3    H137766   0.752   0.793  10.252 -0.1568  0.2494  0.0713
 5425TIP3    H237767   0.896   0.837  10.245  0.1393 -0.6440  0.4880
 5426TIP3   OH237768   1.010   2.072 107.624  0.3016 -0.6783  0.2039
 5426TIP3    H137769   1.050   2.037 107.544 -0.0775  1.0164 -0.7733
 5426TIP3    H237770   1.060   2.152 107.642 -0.2844 -0.5011  1.0789
 5427TIP3   OH237771   1.300   2.331  28.789  0.1044 -0.0851 -0.1351
 5427TIP3    H137772   1.362   2.400  28.765 -0.4448 -0.0166 -1.4966
 5427TIP3    H237773   1.252   2.314  28.708 -0.2197 -1.6174  0.3589
 5428TIP3   OH237774   1.940   2.227  47.533 -0.0128 -0.1423  0.7708
 5428TIP3    H137775   2.030   2.239  47.563  0.7620 -2.9155 -0.1688
 5428TIP3    H237776   1.891   2.298  47.574  2.7616  2.0930  0.4721
 5429TIP3   OH237777   2.125   0.901   7.142 -0.7338  0.0504  0.0245
 5429TIP3    H137778   2.088   0.904   7.053 -0.1068  0.8218 -0.2283
 5429TIP3    H237779   2.070   0.961   7.192  0.3174  1.4711 -0.4351
 5430TIP3   OH237780   1.578   1.580  63.426  0.2126  0.1335  0.0361
 5430TIP3    H137781   1.567   1.507  63.487 -0.1130 -0.0250 -0.2123
 5430TIP3    H237782   1.650   1.554  63.368 -1.2113 -0.8823 -1.3455
 5431TIP3   OH237783   2.458   1.412  89.990 -0.2259 -0.5623  0.0741
 5431TIP3    H137784   2.406   1.488  89.963 -0.7931 -1.2210 -0.7100
 5431TIP3    H237785   2.433   1.397  90.081 -0.9947 -0.5353 -0.1299
 5432TIP3   OH237786   1.714   2.118  30.463 -0.2970 -0.1700 -0.0438
 5432TIP3    H137787   1.756   2.033  30.474 -0.5833 -0.1260  1.6916
 5432TIP3    H237788   1.640   2.102  30.404 -0.5613 -1.2108  0.5480
 5433TIP3   OH237789   2.620   0.205 107.027  0.1227 -0.0823 -0.2208
 5433TIP3    H137790   2.584   0.236 106.943  0.2724 -0.6105 -0.4865
 5433TIP3    H237791   2.569   0.127 107.047 -2.3188  1.8958  1.9653
 5434TIP3   OH237792   0.048   2.259  99.034 -0.0809  0.0836  0.0766
 5434TIP3    H137793   0.060   2.166  99.012 -2.1039 -0.0483 -0.6998
 5434TIP3    H237794   0.074   2.306  98.955  1.8611  0.3038  0.7870
 5435TIP3   OH237795   2.168   1.113  88.272 -0.3835  0.2944 -0.1140
 5435TIP3    H137796   2.092   1.060  88.247  0.4825 -1.6909  1.1708
 5435TIP3    H237797   2.226   1.051  88.317  1.2650  2.1140  0.3873
 5436TIP3   OH237798   0.078   1.077  85.616 -0.4365  0.4033 -0.2320
 5436TIP3    H137799   0.013   1.072  85.545 -0.8131  2.2498 -0.0656
 5436TIP3    H237800   0.026   1.094  85.694  0.2563  3.8782 -0.3754
 5437TIP3   OH237801   1.523   0.862  86.960 -0.0454 -0.4613  0.2304
 5437TIP3    H137802   1.500   0.774  86.931  0.2865 -0.4693 -0.0088
 5437TIP3    H237803   1.490   0.867  87.050  1.1049 -1.2837  0.7228
 5438TIP3   OH237804   2.254   1.399  90.803 -0.6979 -0.2452 -0.1277
 5438TIP3    H137805   2.310   1.396  90.880 -1.4655 -0.4529  0.4293
 5438TIP3    H237806   2.193   1.471  90.819 -1.1837 -0.6092 -0.3098
 5439TIP3   OH237807   2.651   2.599  74.124 -0.3560  0.2044 -0.2833
 5439TIP3    H137808   2.702   2.665  74.171 -0.2818 -0.4168  0.5445
 5439TIP3    H237809   2.639   2.529  74.189 -0.3550 -0.6247 -1.1659
 5440TIP3   OH237810   1.231   2.388 107.437  0.5006 -0.1687  0.8499
 5440TIP3    H137811   1.247   2.442 107.514  0.8376 -0.3415  0.9012
 5440TIP3    H237812   1.230   2.450 107.364 -0.9790  0.1499  1.1112
 5441TIP3   OH237813   1.487   1.432   4.436  0.0266  0.1151 -0.5795
 5441TIP3    H137814   1.454   1.521   4.429 -2.3486 -0.7341 -1.5476
 5441TIP3    H237815   1.424   1.388   4.493  0.9704 -1.0010 -0.3756
 5442TIP3   OH237816   1.559   2.126  96.954 -0.4041 -0.0538  0.3776
 5442TIP3    H137817   1.535   2.208  96.910  0.4868 -0.5942 -1.2134
 5442TIP3    H237818   1.502   2.061  96.915  0.3224 -0.5287  0.0751
 5443TIP3   OH237819   0.322   2.646  12.707  0.4960  0.0226 -0.3659
 5443TIP3    H137820   0.317   2.739  12.685 -0.0461 -0.1707 -1.0643
 5443TIP3    H237821   0.385   2.610  12.644  1.4228  0.0807  0.4960
 5444TIP3   OH237822   0.618   2.169  80.093  0.5142  0.2653  0.0369
 5444TIP3    H137823   0.586   2.256  80.066  1.4194  0.4096 -0.5902
 5444TIP3    H237824   0.642   2.181  80.185  0.1126  0.5319  0.1108
 5445TIP3   OH237825   1.985   0.611  14.717 -0.6955  0.2874  0.0896
 5445TIP3    H137826   2.040   0.547  14.671 -0.9886  0.7978 -1.0084
 5445TIP3    H237827   1.920   0.559  14.763  0.3576 -0.2984  0.9552
 5446TIP3   OH237828   0.235   1.602  82.317  0.0051 -0.5080  0.3816
 5446TIP3    H137829   0.190   1.655  82.251 -0.4105 -0.0983  0.9897
 5446TIP3    H237830   0.317   1.577  82.276 -1.0878 -1.9401 -1.0541
 5447TIP3   OH237831   1.024   0.552 111.473 -0.3212 -0.1044  0.9120
 5447TIP3    H137832   0.993   0.505 111.395  1.6933 -0.1786  0.1031
 5447TIP3    H237833   0.959   0.621 111.486 -1.1444 -0.5949 -0.3347
 5448TIP3   OH237834   0.460   1.464  97.777  0.1669 -0.5684  0.0154
 5448TIP3    H137835   0.543   1.450  97.823  0.2421 -1.6598 -0.4247
 5448TIP3    H237836   0.393   1.453  97.844  0.3978  2.3626  0.8571
 5449TIP3   OH237837   2.465   1.828  29.751 -0.1416 -1.0687 -0.6566
 5449TIP3    H137838   2.456   1.733  29.747  1.3244 -1.2544  0.1159
 5449TIP3    H237839   2.378   1.861  29.727 -0.7671 -2.5976 -0.5770
 5450TIP3   OH237840   2.478   2.012  21.519 -0.2872 -0.0600 -0.4404
 5450TIP3    H137841   2.532   2.089  21.539 -0.2739 -0.1618 -0.0747
 5450TIP3    H237842   2.499   1.991  21.428 -0.4687  0.5107 -0.6209
 5451TIP3   OH237843   1.743   0.307  86.150  0.0703 -0.0396  0.2891
 5451TIP3    H137844   1.789   0.230  86.183  0.9852 -0.1402 -1.1446
 5451TIP3    H237845   1.692   0.338  86.224  1.8060 -0.4187  1.6919
 5452TIP3   OH237846   0.973   0.463  88.571  0.0231  0.5920  0.1953
 5452TIP3    H137847   0.979   0.469  88.666  2.4104 -1.8409  0.3255
 5452TIP3    H237848   0.942   0.374  88.555  1.3080  0.3636 -1.2626
 5453TIP3   OH237849   0.209   2.531  90.491 -0.6240  0.0863  0.2709
 5453TIP3    H137850   0.289   2.483  90.469 -1.8659 -1.2230 -1.7166
 5453TIP3    H237851   0.145   2.463  90.511 -1.5380  1.0710  0.7763
 5454TIP3   OH237852   1.006   0.884   3.826  0.2954  0.2546  0.6272
 5454TIP3    H137853   0.974   0.924   3.744  0.8836  0.4567  0.4903
 5454TIP3    H237854   0.930   0.884   3.884  0.1959  1.2995  0.5190
 5455TIP3   OH237855   0.980   2.057  90.536 -0.0074 -0.2325 -0.4449
 5455TIP3    H137856   0.896   2.025  90.505  0.0657 -0.5885 -0.2672
 5455TIP3    H237857   1.003   2.126  90.473 -0.4915 -0.0364 -0.4127
 5456TIP3   OH237858   1.438   1.540 108.657  0.0809 -0.3132 -0.3620
 5456TIP3    H137859   1.485   1.566 108.737  1.3068  0.3212 -1.2458
 5456TIP3    H237860   1.352   1.579 108.666  0.1644 -0.3388  0.7017
 5457TIP3   OH237861   2.048   2.087  15.190 -0.1684  0.2240  0.0003
 5457TIP3    H137862   1.966   2.100  15.236 -0.2736 -1.3023  0.2697
 5457TIP3    H237863   2.077   1.999  15.214  1.2273  0.4889 -0.5825
 5458TIP3   OH237864   0.042   2.012  12.866 -0.4373 -0.1677  0.2150
 5458TIP3    H137865   0.067   1.936  12.919 -1.6607 -0.8997 -0.2116
 5458TIP3    H237866  -0.053   2.007  12.860 -0.4005  0.3926 -1.3080
 5459TIP3   OH237867   0.235   0.836  22.361 -0.6049  0.1562  0.4340
 5459TIP3    H137868   0.330   0.835  22.373 -0.5732  1.5745  0.5429
 5459TIP3    H237869   0.200   0.800  22.443 -0.1655  0.7786  0.9109
 5460TIP3   OH237870   1.033   1.731   5.355  0.4800 -0.1933  0.0020
 5460TIP3    H137871   1.070   1.758   5.271  0.8243  0.7044  0.4280
 5460TIP3    H237872   0.948   1.692   5.333  0.7474 -0.3318 -0.7939
 5461TIP3   OH237873   0.441   0.978  31.761  0.4635  0.0289  0.0647
 5461TIP3    H137874   0.468   1.024  31.682  1.6969 -0.4021  0.2198
 5461TIP3    H237875   0.520   0.974  31.815  0.1722 -1.5590  0.4078
 5462TIP3   OH237876   2.651   1.444  93.030  0.4867  0.3826 -0.1504
 5462TIP3    H137877   2.647   1.351  93.050  0.1880  0.6950  1.3576
 5462TIP3    H237878   2.681   1.448  92.939 -1.1374 -1.2154 -0.8058
 5463TIP3   OH237879   1.494   0.119 105.554  0.2015 -0.2746  0.1662
 5463TIP3    H137880   1.547   0.196 105.534  0.1484  0.5874  2.9136
 5463TIP3    H237881   1.415   0.130 105.503  0.2367  1.4915  0.4350
 5464TIP3   OH237882   2.165   0.008   0.973 -0.5895 -0.3441  0.2285
 5464TIP3    H137883   2.075   0.037   0.961 -0.5935 -1.1464 -2.2787
 5464TIP3    H237884   2.160  -0.087   0.982 -0.0324 -0.3579  0.4748
 5465TIP3   OH237885   1.366   1.364  37.592 -0.5695 -0.3093  0.3847
 5465TIP3    H137886   1.275   1.333  37.582 -1.3222  1.7335  0.4998
 5465TIP3    H237887   1.398   1.318  37.670 -1.2181 -1.6391 -0.0982
 5466TIP3   OH237888   1.811   0.612  26.103 -0.5845  0.2863 -0.3635
 5466TIP3    H137889   1.896   0.651  26.087 -1.4667  1.6303 -2.2323
 5466TIP3    H237890   1.824   0.518  26.089  0.5875  0.4749 -0.6194
 5467TIP3   OH237891   0.938   0.724   6.601 -0.1672  0.2974  0.2236
 5467TIP3    H137892   0.862   0.782   6.592 -1.1259 -0.8805  0.5078
 5467TIP3    H237893   0.908   0.640   6.565  0.4889 -0.6119  1.7269
 5468TIP3   OH237894   0.173   0.890  78.882  0.3808  0.4433 -0.4448
 5468TIP3    H137895   0.093   0.837  78.885  0.2728  0.6423  0.4734
 5468TIP3    H237896   0.242   0.831  78.914  0.4144  0.5924 -0.2402
 5469TIP3   OH237897   1.678   1.537  34.594 -0.6166  0.1066  0.2278
 5469TIP3    H137898   1.675   1.613  34.652 -1.9069 -0.1772  0.5698
 5469TIP3    H237899   1.661   1.462  34.653  0.8271 -0.4760 -0.0619
 5470TIP3   OH237900   2.195   0.805  22.074 -0.0137  0.2173  0.0975
 5470TIP3    H137901   2.140   0.818  21.997 -0.3315  1.5273  0.5121
 5470TIP3    H237902   2.284   0.798  22.040 -0.4782 -3.5501 -0.7404
 5471TIP3   OH237903   0.555   1.870  92.262 -0.3674 -0.1111 -0.5384
 5471TIP3    H137904   0.463   1.895  92.271  0.1212  1.2174  1.7560
 5471TIP3    H237905   0.598   1.948  92.226  0.1959  0.2023  0.7323
 5472TIP3   OH237906   0.556   0.601  79.357  0.1721  0.2775 -0.3265
 5472TIP3    H137907   0.538   0.572  79.268 -0.6971  1.1711 -0.4557
 5472TIP3    H237908   0.471   0.630  79.391  0.4074 -0.4547  0.9495
 5473TIP3   OH237909   0.188   1.234   0.120 -0.1847 -0.2090 -0.6741
 5473TIP3    H137910   0.260   1.281   0.077 -0.4617  0.5026 -0.3748
 5473TIP3    H237911   0.231   1.177   0.184  0.0707  1.5318  0.7943
 5474TIP3   OH237912   0.714   1.740 100.278 -0.4240 -0.8148 -0.3154
 5474TIP3    H137913   0.687   1.680 100.209  2.0921 -0.7094 -1.5248
 5474TIP3    H237914   0.677   1.825 100.252 -0.6152 -1.0487 -0.8068
 5475TIP3   OH237915   2.246   0.347   8.846  0.2545 -0.4509  0.0051
 5475TIP3    H137916   2.313   0.390   8.899 -0.4874 -0.1147  0.6903
 5475TIP3    H237917   2.276   0.360   8.756  0.8315  0.1668  0.2734
 5476TIP3   OH237918   0.216   0.613 106.977  0.0469  0.0695  0.0725
 5476TIP3    H137919   0.278   0.660 107.033  0.3257  0.7112 -0.7521
 5476TIP3    H237920   0.197   0.532 107.025  0.1606  0.6618  1.1463
 5477TIP3   OH237921   1.408   0.978  18.982 -0.0505 -0.2913  0.0166
 5477TIP3    H137922   1.398   0.895  19.028  1.5691 -0.8910 -0.6019
 5477TIP3    H237923   1.462   0.956  18.906 -0.1597  1.2134 -0.5310
 5478TIP3   OH237924   1.774   2.447  85.276 -0.2259 -0.0897 -0.4095
 5478TIP3    H137925   1.695   2.404  85.310 -0.1459  0.0749 -0.0166
 5478TIP3    H237926   1.847   2.395  85.310 -0.1367  0.2253 -0.1067
 5479TIP3   OH237927   1.862   0.390  95.026  0.8542  0.4769  0.1713
 5479TIP3    H137928   1.916   0.363  95.101  0.3494 -3.5336 -0.7027
 5479TIP3    H237929   1.772   0.380  95.057  0.6366  0.3698 -0.4871
 5480TIP3   OH237930   0.948   1.238 106.610 -0.2491 -0.9862 -0.2986
 5480TIP3    H137931   0.947   1.280 106.524  1.5551 -2.4246 -1.0933
 5480TIP3    H237932   0.981   1.306 106.669 -1.5565  0.0323 -0.6804
 5481TIP3   OH237933   2.539   1.574  92.546 -0.5426 -0.5723 -0.0421
 5481TIP3    H137934   2.459   1.572  92.597 -0.4403  1.5313  0.3092
 5481TIP3    H237935   2.529   1.505  92.481 -3.1839  0.3747 -0.7680
 5482TIP3   OH237936   2.075   0.638 104.911  0.3259 -0.1148  0.6084
 5482TIP3    H137937   1.983   0.666 104.909  0.3288 -0.1095 -0.7090
 5482TIP3    H237938   2.070   0.542 104.904  0.4080 -0.1449  0.9715
 5483TIP3   OH237939   2.629   1.024   7.350  0.4688 -0.1199  0.5217
 5483TIP3    H137940   2.577   0.949   7.323  0.5988 -0.1094  0.2426
 5483TIP3    H237941   2.564   1.087   7.384  0.3423 -0.2704  0.5586
 5484TIP3   OH237942   1.920   1.983   7.276  0.3821 -0.1253  0.0916
 5484TIP3    H137943   1.859   1.983   7.350  0.2966  1.3673  0.0521
 5484TIP3    H237944   1.997   1.937   7.309  0.3138  0.4531  1.1072
 5485TIP3   OH237945   1.117   0.322   6.588 -0.0710 -0.0497 -0.1456
 5485TIP3    H137946   1.185   0.378   6.626 -0.7652  0.2409  0.6815
 5485TIP3    H237947   1.156   0.290   6.507  0.5071  1.2927 -0.4269
 5486TIP3   OH237948   0.558   2.149  37.132  0.6317 -0.3547  0.6047
 5486TIP3    H137949   0.477   2.192  37.159 -0.5915 -2.1890  0.0906
 5486TIP3    H237950   0.609   2.217  37.088 -1.2540  0.5275 -0.2890
 5487TIP3   OH237951   2.227   2.564  81.192 -0.0980 -0.3365 -0.5663
 5487TIP3    H137952   2.224   2.468  81.198  3.0174 -0.4226  1.9424
 5487TIP3    H237953   2.141   2.592  81.222 -0.5712 -2.3168  0.0998
 5488TIP3   OH237954   2.238   2.138   6.090 -0.0975 -0.1401 -0.4358
 5488TIP3    H137955   2.299   2.089   6.036  0.1066 -0.2207 -0.1312
 5488TIP3    H237956   2.264   2.230   6.079  0.6612 -0.2420  0.4098
 5489TIP3   OH237957   2.000   2.396  14.889  0.3652 -0.2584  0.6278
 5489TIP3    H137958   2.002   2.454  14.813  0.6484  0.7263  1.3693
 5489TIP3    H237959   2.087   2.357  14.892  0.3316 -0.3504  0.4096
 5490TIP3   OH237960   0.290   2.186   6.393 -0.0885  0.1211 -0.0836
 5490TIP3    H137961   0.304   2.096   6.364  1.2624 -0.5515  2.3780
 5490TIP3    H237962   0.224   2.179   6.462 -1.5689  1.3490 -1.3106
 5491TIP3   OH237963   0.935   0.008  36.001  0.2196  0.0911 -0.2314
 5491TIP3    H137964   0.925   0.052  36.085 -2.6595  1.7148 -1.2812
 5491TIP3    H237965   0.897  -0.079  36.016 -3.4592  1.4844 -0.5364
 5492TIP3   OH237966   0.875   0.108 105.683 -0.0530 -0.1376 -0.0618
 5492TIP3    H137967   0.817   0.160 105.627  0.3279  0.0479 -0.2844
 5492TIP3    H237968   0.890   0.028 105.632  0.3223  0.0464 -0.2453
 5493TIP3   OH237969   1.410   1.534  77.562  0.5511  0.6492  0.5165
 5493TIP3    H137970   1.457   1.583  77.629  0.9143  1.3591 -0.2407
 5493TIP3    H237971   1.348   1.480  77.611 -0.7150  2.7287  1.3503
 5494TIP3   OH237972   2.532   0.991  33.422  0.2268 -0.2390 -0.1292
 5494TIP3    H137973   2.448   1.038  33.427  0.3851  0.0389 -0.0641
 5494TIP3    H237974   2.593   1.056  33.387 -0.0611 -1.0700 -2.2983
 5495TIP3   OH237975   2.092   1.157  80.122 -0.2652 -0.6350  0.0949
 5495TIP3    H137976   2.084   1.101  80.198 -1.6378 -2.6104 -1.4057
 5495TIP3    H237977   2.012   1.141  80.071  0.5809  0.6095 -1.7619
 5496TIP3   OH237978   0.760   1.982  34.340 -0.4142 -0.0566  0.1929
 5496TIP3    H137979   0.745   1.924  34.414 -0.7309 -1.6030 -1.0457
 5496TIP3    H237980   0.791   1.925  34.270 -0.3474  1.3274 -0.9532
 5497TIP3   OH237981   0.620   2.520  80.157  0.0581 -0.3619 -0.3387
 5497TIP3    H137982   0.600   2.614  80.150  2.1833  0.0158 -2.8315
 5497TIP3    H237983   0.582   2.494  80.241  0.0623  2.9048  0.8398
 5498TIP3   OH237984   0.583   1.299  18.253  0.0317  0.1427  0.0341
 5498TIP3    H137985   0.569   1.360  18.325  0.9264 -0.9712  1.1975
 5498TIP3    H237986   0.623   1.223  18.294 -0.9671 -1.1985 -1.3954
 5499TIP3   OH237987   0.268   1.649  94.215  0.3550  0.0631 -0.2157
 5499TIP3    H137988   0.201   1.622  94.153  1.2496  1.1324 -1.7319
 5499TIP3    H237989   0.299   1.733  94.181 -0.7107  1.9143  2.9708
 5500TIP3   OH237990   0.729   1.992  30.871  0.3698 -0.4631  0.0707
 5500TIP3    H137991   0.743   1.903  30.840 -1.9970 -0.4331 -1.3441
 5500TIP3    H237992   0.813   2.036  30.856  0.3447 -1.3195 -3.4776
 5501TIP3   OH237993   1.828   1.873  24.705  0.0649 -0.0082  0.1628
 5501TIP3    H137994   1.900   1.836  24.654 -0.3886  0.5876 -0.9504
 5501TIP3    H237995   1.758   1.808  24.698  0.0576 -0.0005  0.1639
 5502TIP3   OH237996   0.148   0.108  35.365 -0.1592 -0.3189 -0.4863
 5502TIP3    H137997   0.170   0.163  35.290 -0.2413  0.1768 -0.1503
 5502TIP3    H237998   0.061   0.074  35.345 -0.6570  0.6940 -0.1286
 5503TIP3   OH237999   2.345   0.780  84.207 -0.2063  0.1179  0.4783
 5503TIP3    H138000   2.265   0.738  84.241 -0.7930  0.2040 -0.7405
 5503TIP3    H238001   2.355   0.859  84.260  0.0861 -0.7907  1.8249
 5504TIP3   OH238002   1.497   2.424  31.666 -0.6185 -0.0974 -0.0786
 5504TIP3    H138003   1.431   2.493  31.675 -1.0489 -0.4903 -0.1546
 5504TIP3    H238004   1.462   2.367  31.597 -0.2059 -0.3168 -0.1042
 5505TIP3   OH238005   0.284   2.200  91.653  0.3923  0.5001 -0.6803
 5505TIP3    H138006   0.339   2.230  91.581  0.2135  2.1988 -0.1427
 5505TIP3    H238007   0.199   2.181  91.612 -0.3198  3.3286 -0.6997
 5506TIP3   OH238008   0.783   2.573   7.132  0.1080 -0.3393  0.1925
 5506TIP3    H138009   0.721   2.588   7.061  0.9805 -1.4689 -0.8326
 5506TIP3    H238010   0.803   2.661   7.164 -1.3508  0.1024 -0.0005
 5507TIP3   OH238011   1.462   2.580   2.286  0.4225 -0.4730  0.1541
 5507TIP3    H138012   1.418   2.553   2.367 -1.3201  1.4442 -0.0562
 5507TIP3    H238013   1.550   2.544   2.293  0.1668 -0.7909  2.6722
 5508TIP3   OH238014   1.713   0.844  29.836 -0.1200  0.0568 -0.0951
 5508TIP3    H138015   1.672   0.878  29.916  2.4600 -0.9926  1.8357
 5508TIP3    H238016   1.662   0.766  29.814 -0.6918  0.1850  0.7484
 5509TIP3   OH238017   1.274   2.512   9.098 -0.2491  0.5931 -0.5138
 5509TIP3    H138018   1.238   2.568   9.028 -1.6667  0.6381  0.2309
 5509TIP3    H238019   1.251   2.423   9.071 -1.3837  0.6546  0.2003
 5510TIP3   OH238020   1.326   2.213  21.147 -0.1088  0.0848 -0.6721
 5510TIP3    H138021   1.396   2.254  21.199  0.0749  1.0656 -1.6518
 5510TIP3    H238022   1.329   2.259  21.063 -0.8266 -1.0222 -1.3242
 5511TIP3   OH238023   0.707   0.469  87.618  0.3545  0.1889  0.1399
 5511TIP3    H138024   0.647   0.526  87.666  0.4155 -0.1675  0.6438
 5511TIP3    H238025   0.673   0.381  87.631 -0.0159  0.1406 -1.0436
 5512TIP3   OH238026   1.919   2.556  35.650  0.1220  0.2869  0.0642
 5512TIP3    H138027   1.909   2.469  35.689 -2.1811  0.0969 -0.8077
 5512TIP3    H238028   1.871   2.614  35.709 -1.6512  0.3097 -1.3122
 5513TIP3   OH238029   1.449   1.751  27.030 -0.0769 -0.1814 -0.6705
 5513TIP3    H138030   1.397   1.727  27.107  1.0668 -0.9987 -0.1278
 5513TIP3    H238031   1.451   1.847  27.032 -0.8422 -0.1687 -0.2150
 5514TIP3   OH238032   1.554   0.654 104.730  0.3203 -0.3935  0.1077
 5514TIP3    H138033   1.482   0.688 104.782 -1.6052  0.6132 -2.9113
 5514TIP3    H238034   1.542   0.559 104.730 -1.5670 -0.2131 -0.9234
 5515TIP3   OH238035   0.585   0.100  36.190  0.0471 -0.6237  0.1847
 5515TIP3    H138036   0.558   0.008  36.187  0.9969 -0.8927 -0.7664
 5515TIP3    H238037   0.557   0.135  36.106  0.5424 -0.2987  0.1527
 5516TIP3   OH238038   2.525   1.037   9.107  0.0124 -0.6381  0.0062
 5516TIP3    H138039   2.609   1.006   9.072  0.0559 -2.0986  1.2962
 5516TIP3    H238040   2.459   0.994   9.052  0.0998 -1.2122  0.3433
 5517TIP3   OH238041   1.276   1.544  12.965  0.0306 -0.2994 -0.1591
 5517TIP3    H138042   1.196   1.504  13.000  1.7081 -2.3788  1.5106
 5517TIP3    H238043   1.285   1.625  13.015 -0.2785 -0.7580  0.6643
 5518TIP3   OH238044   2.225   2.238 107.303 -0.3004  0.1052  0.0847
 5518TIP3    H138045   2.213   2.244 107.398 -3.3831  0.5009 -0.2048
 5518TIP3    H238046   2.292   2.172 107.291 -0.1793 -0.3106  2.5423
 5519TIP3   OH238047   1.965   0.294  13.956 -0.4630  0.2627 -0.2868
 5519TIP3    H138048   1.995   0.238  13.885 -1.0718 -0.1701 -0.2074
 5519TIP3    H238049   2.042   0.305  14.013 -0.1614  0.0666 -0.6581
 5520TIP3   OH238050   1.817   1.436  73.724 -0.3869  0.5913 -0.3459
 5520TIP3    H138051   1.812   1.505  73.658 -0.3950  1.6675  0.7424
 5520TIP3    H238052   1.807   1.481  73.807 -1.2287 -0.8430  0.3657
 5521TIP3   OH238053   1.465   1.008  36.753 -0.1617 -0.7255  0.0963
 5521TIP3    H138054   1.382   1.033  36.794  0.0795 -0.9371  0.7326
 5521TIP3    H238055   1.485   0.922  36.792 -0.7068 -1.6788 -1.6165
 5522TIP3   OH238056   0.169   1.340  52.087 -0.2224  0.1721  0.9140
 5522TIP3    H138057   0.077   1.317  52.099 -0.6379  0.7704 -0.8239
 5522TIP3    H238058   0.182   1.419  52.139 -0.4888 -0.3272  1.7482
 5523TIP3   OH238059   1.825   1.004   3.762 -0.4333  0.2258  0.1615
 5523TIP3    H138060   1.855   1.003   3.853  0.8450 -0.9988 -0.2502
 5523TIP3    H238061   1.880   1.070   3.720 -0.2644  0.0008  0.0302
 5524TIP3   OH238062   0.769   0.231  34.184 -0.4048 -0.0432  0.3973
 5524TIP3    H138063   0.811   0.199  34.104  0.2285  2.3230 -0.3072
 5524TIP3    H238064   0.702   0.166  34.204  1.8052 -2.6349  0.0703
 5525TIP3   OH238065   2.660   1.873 111.964 -0.4056 -0.1667  0.1793
 5525TIP3    H138066   2.608   1.852 111.886 -0.9998 -0.5016  0.6648
 5525TIP3    H238067   2.740   1.913 111.929 -0.7689 -0.0994 -0.5890
 5526TIP3   OH238068   1.017   2.199  22.585 -0.2543 -0.3543  0.9266
 5526TIP3    H138069   0.991   2.109  22.603  1.3627 -1.0966 -0.2161
 5526TIP3    H238070   0.942   2.237  22.538  0.1800 -2.0738 -1.2995
 5527TIP3   OH238071   1.556   0.041  25.427  0.0803 -0.3082  0.2821
 5527TIP3    H138072   1.469   0.069  25.456 -1.0966 -1.9497 -1.3727
 5527TIP3    H238073   1.566  -0.047  25.463  1.7859  0.4431  1.7647
 5528TIP3   OH238074   1.213   0.350   0.035 -0.1305  0.6079  0.4856
 5528TIP3    H138075   1.223   0.282  -0.031 -0.0646  0.0506  1.0531
 5528TIP3    H238076   1.120   0.373   0.032 -0.2295  0.2142  0.5581
 5529TIP3   OH238077   0.350   0.487 103.307  0.0283 -0.4018  0.0352
 5529TIP3    H138078   0.356   0.430 103.230  0.0695 -2.0198  1.1836
 5529TIP3    H238079   0.260   0.479 103.337  0.1258 -0.1223  0.4124
 5530TIP3   OH238080   1.271   2.557  33.548 -0.0512 -0.0637 -0.0379
 5530TIP3    H138081   1.253   2.573  33.456 -0.2267 -0.4292 -0.0697
 5530TIP3    H238082   1.259   2.462  33.559 -0.3209  0.0170  0.4163
 5531TIP3   OH238083   1.948   2.295  17.406  0.5689 -0.5174 -0.2649
 5531TIP3    H138084   1.890   2.288  17.482 -1.1323 -0.1707 -1.4761
 5531TIP3    H238085   2.028   2.250  17.433 -0.4865 -1.5768  1.2525
 5532TIP3   OH238086   0.762   1.702  23.478 -0.5478 -0.0911 -0.0034
 5532TIP3    H138087   0.712   1.622  23.496  1.1294 -1.2718 -0.3576
 5532TIP3    H238088   0.720   1.740  23.401 -1.1828 -0.8001 -0.0209
 5533TIP3   OH238089   1.793   1.402 110.923 -0.4962  0.4543  0.3034
 5533TIP3    H138090   1.763   1.312 110.935  0.2267  0.2483  0.6095
 5533TIP3    H238091   1.746   1.432 110.845 -0.9129 -0.1123  0.3252
 5534TIP3   OH238092   1.574   1.775  95.364  0.1465 -0.0023  0.7860
 5534TIP3    H138093   1.544   1.778  95.273  0.4917 -2.8627  0.4860
 5534TIP3    H238094   1.497   1.799  95.416 -0.2314  1.0208 -0.1968
 5535TIP3   OH238095   2.463   2.157   5.454 -0.1037 -0.2558  0.5546
 5535TIP3    H138096   2.507   2.156   5.369 -1.3938  0.9536 -0.1745
 5535TIP3    H238097   2.529   2.190   5.515  1.1700 -2.1308  0.2661
 5536TIP3   OH238098   0.738   0.534  79.751  0.3997 -0.2846  0.0940
 5536TIP3    H138099   0.660   0.572  79.791  0.1961 -2.2688  1.7810
 5536TIP3    H238100   0.707   0.501  79.666 -0.3450 -0.0871  0.2789
 5537TIP3   OH238101   1.741   2.073 105.079 -0.1742  0.7309 -0.0808
 5537TIP3    H138102   1.736   2.076 105.175 -1.1425 -2.4337  0.0904
 5537TIP3    H238103   1.787   1.992 105.061 -0.1219  1.2156 -2.3268
 5538TIP3   OH238104   2.194   1.708  94.202  0.1386 -0.5030  0.6641
 5538TIP3    H138105   2.130   1.645  94.168  0.0488 -0.2904  0.4418
 5538TIP3    H238106   2.172   1.790  94.160  0.8106 -0.5184  0.2626
 5539TIP3   OH238107   1.527   1.282  85.007 -0.2353 -1.1939  0.2957
 5539TIP3    H138108   1.500   1.193  84.983 -0.2889 -0.5295 -2.4857
 5539TIP3    H238109   1.445   1.327  85.028 -0.1508 -1.9096  2.3356
 5540TIP3   OH238110   1.914   2.559  63.224 -0.1063 -0.6155  0.7231
 5540TIP3    H138111   1.899   2.494  63.293 -3.1413 -1.3620 -0.4806
 5540TIP3    H238112   1.941   2.638  63.271  0.8595 -1.9132  2.4751
 5541TIP3   OH238113   0.750   0.563   9.753 -0.1007 -0.4068  0.0195
 5541TIP3    H138114   0.723   0.608   9.673  1.8793 -0.2356 -0.6051
 5541TIP3    H238115   0.782   0.478   9.723  1.3797 -0.0517  0.5056
 5542TIP3   OH238116   0.595   2.204   1.639 -0.0753  0.0464 -0.8041
 5542TIP3    H138117   0.606   2.127   1.583  1.8277  0.7352 -1.4608
 5542TIP3    H238118   0.595   2.278   1.578 -0.3734  0.6624 -0.0718
 5543TIP3   OH238119   2.288   1.140  81.201  0.0414  0.1703 -0.4905
 5543TIP3    H138120   2.364   1.090  81.230  0.2243  0.5342 -0.3305
 5543TIP3    H238121   2.325   1.219  81.160 -0.2061 -0.4755 -2.0142
 5544TIP3   OH238122   2.354   1.243  90.576  0.3343  0.0386 -0.0440
 5544TIP3    H138123   2.323   1.290  90.654  0.4186  1.5016 -0.8525
 5544TIP3    H238124   2.442   1.278  90.561  0.7070 -0.9587 -0.2458
 5545TIP3   OH238125   1.012   2.053  82.401 -0.0244 -0.6749 -0.5175
 5545TIP3    H138126   0.991   1.971  82.355  1.9237 -1.8378  0.5280
 5545TIP3    H238127   1.107   2.051  82.412 -0.3389 -0.6746  3.7672
 5546TIP3   OH238128   2.633   2.107  89.378  0.3876  0.2100  0.4617
 5546TIP3    H138129   2.671   2.086  89.463 -1.1334  1.1204  1.4104
 5546TIP3    H238130   2.576   2.032  89.359  0.6417  0.0582  0.2947
 5547TIP3   OH238131   2.087   0.076  95.371  0.2657  0.2913 -0.0173
 5547TIP3    H138132   2.133   0.008  95.322 -0.0040  1.0860 -1.4033
 5547TIP3    H238133   2.156   0.134  95.403  0.4937 -0.5690  1.1397
 5548TIP3   OH238134   0.691   2.585 101.554  0.6847  0.2107 -0.0161
 5548TIP3    H138135   0.737   2.601 101.472  0.6259 -0.3208 -0.1520
 5548TIP3    H238136   0.729   2.504 101.588  0.8992  0.5661  0.6208
 5549TIP3   OH238137   1.852   1.539  35.901  0.5353  0.2998 -0.2337
 5549TIP3    H138138   1.763   1.511  35.882  0.4186  0.7704 -0.4036
 5549TIP3    H238139   1.843   1.609  35.965  0.6534  1.4800 -1.4568
 5550TIP3   OH238140   2.457   1.586  82.874  0.6539 -0.2895 -0.4703
 5550TIP3    H138141   2.410   1.669  82.870 -2.3364 -1.9033 -2.3343
 5550TIP3    H238142   2.513   1.594  82.952 -0.7759  2.7708  0.4133
 5551TIP3   OH238143   1.985   0.318   8.806  0.3323 -0.2803 -0.0876
 5551TIP3    H138144   2.075   0.301   8.833  0.7124  1.9754  0.2995
 5551TIP3    H238145   1.990   0.401   8.757 -1.5661  0.0938  0.2794
 5552TIP3   OH238146   1.653   1.822  12.797  0.2418  0.0777 -0.1808
 5552TIP3    H138147   1.667   1.908  12.836 -0.9880 -0.1233  0.7456
 5552TIP3    H238148   1.738   1.778  12.803  0.2676  0.3278  1.6196
 5553TIP3   OH238149   1.792   2.619  22.939 -0.5040  0.2401 -0.4898
 5553TIP3    H138150   1.728   2.571  22.992 -1.4609  0.5661 -1.3098
 5553TIP3    H238151   1.824   2.556  22.876  0.0619  0.0526 -0.0208
 5554TIP3   OH238152   0.434   0.259   1.895  0.3638 -0.2600 -0.1403
 5554TIP3    H138153   0.518   0.281   1.854  0.0596  0.2005 -0.5335
 5554TIP3    H238154   0.393   0.198   1.833  0.8067 -1.2390  0.5045
 5555TIP3   OH238155   2.149   1.617  22.185 -0.6530 -0.2979 -0.3491
 5555TIP3    H138156   2.234   1.627  22.228 -1.1754  1.5787  0.3420
 5555TIP3    H238157   2.143   1.692  22.126 -1.9565 -0.1929 -0.1245
 5556TIP3   OH238158   1.641   0.281  73.656  0.0462 -0.0182 -0.5511
 5556TIP3    H138159   1.572   0.318  73.601  0.5136 -1.2991 -2.0821
 5556TIP3    H238160   1.691   0.356  73.686 -0.6189  0.7654 -1.3425
 5557TIP3   OH238161   0.413   2.011  21.706  0.1309 -0.2334 -0.6662
 5557TIP3    H138162   0.445   2.093  21.743 -0.1113 -0.2291 -0.4652
 5557TIP3    H238163   0.360   2.037  21.631  0.5603 -0.2380 -0.9710
 5558TIP3   OH238164   0.137   0.822  27.493  0.0596  0.0234  0.6803
 5558TIP3    H138165   0.107   0.907  27.460  2.6709  1.3934  1.5755
 5558TIP3    H238166   0.063   0.788  27.542 -1.3487  1.3661 -0.4051
 5559TIP3   OH238167   1.733   0.055  63.056  0.2874 -0.4202 -0.0223
 5559TIP3    H138168   1.651   0.005  63.062 -0.7833  1.3629  3.2931
 5559TIP3    H238169   1.800  -0.005  63.088 -0.2161 -1.0362 -0.1023
 5560TIP3   OH238170   1.028   0.115  78.505 -0.3176 -0.6728 -0.0315
 5560TIP3    H138171   1.094   0.046  78.503  1.9000  1.3023 -2.7164
 5560TIP3    H238172   0.957   0.083  78.450  0.5655 -0.9647 -1.0165
 5561TIP3   OH238173   0.086   2.026  35.441 -0.9433 -0.5529 -0.5364
 5561TIP3    H138174   0.128   1.999  35.359  0.8245  0.0132  0.1227
 5561TIP3    H238175   0.140   2.098  35.472 -2.2275 -0.0327  0.5956
 5562TIP3   OH238176   0.129   2.322   4.727  0.1990  0.0102 -0.5299
 5562TIP3    H138177   0.140   2.260   4.655  0.7012  0.4172 -0.8049
 5562TIP3    H238178   0.094   2.269   4.799  1.1574 -0.7131 -0.5821
 5563TIP3   OH238179   2.446   1.629   2.833 -0.4418 -0.0336  0.5925
 5563TIP3    H138180   2.540   1.633   2.816 -0.7337 -0.0497 -1.3060
 5563TIP3    H238181   2.429   1.536   2.849  0.1845  0.2661  3.4075
 5564TIP3   OH238182   2.040   2.441   3.142 -0.1785 -0.3519  0.4460
 5564TIP3    H138183   2.087   2.376   3.089 -0.2800  0.0945 -0.2014
 5564TIP3    H238184   1.998   2.498   3.078 -0.0463  0.3920  1.0069
 5565TIP3   OH238185   2.258   0.755  17.600  0.1349  0.3712 -0.3601
 5565TIP3    H138186   2.348   0.723  17.610  0.5215  1.9484  2.1674
 5565TIP3    H238187   2.264   0.848  17.622 -2.1091  0.5215 -0.2037
 5566TIP3   OH238188   1.253   1.732  87.663 -0.0111 -0.1940 -0.1724
 5566TIP3    H138189   1.335   1.754  87.707  0.3686 -0.1820 -0.8749
 5566TIP3    H238190   1.280   1.687  87.583 -0.6885 -0.1446 -0.4363
 5567TIP3   OH238191   2.652   2.456  31.780  0.7245  0.2646 -0.1423
 5567TIP3    H138192   2.663   2.370  31.739 -2.0827 -0.3535  0.2234
 5567TIP3    H238193   2.671   2.442  31.873 -0.4571 -0.1644  0.0452
 5568TIP3   OH238194   1.759   0.005  94.855 -0.3508  0.0507  0.3850
 5568TIP3    H138195   1.803   0.056  94.787  0.5984 -1.5727 -0.2779
 5568TIP3    H238196   1.829  -0.048  94.894 -1.5266 -1.8397  0.0117
 5569TIP3   OH238197   1.618   1.174  74.669  0.1196  0.4711 -0.3204
 5569TIP3    H138198   1.665   1.142  74.592  2.3869  0.7432  0.8745
 5569TIP3    H238199   1.618   1.100  74.730  0.4695  0.9907  0.3211
 5570TIP3   OH238200   1.203   1.922  84.711  0.0587 -0.0921  0.3283
 5570TIP3    H138201   1.175   2.010  84.737 -0.3393  0.1076 -0.7377
 5570TIP3    H238202   1.173   1.865  84.782 -2.5159  0.2010 -0.4321
 5571TIP3   OH238203   0.158   0.581  76.103  0.2042 -0.0541  0.3484
 5571TIP3    H138204   0.089   0.584  76.036  0.9312  1.5484 -0.3735
 5571TIP3    H238205   0.113   0.603  76.184 -0.4431 -0.7048  0.1789
 5572TIP3   OH238206   0.463   2.111  32.891 -0.5256  0.7451  0.3017
 5572TIP3    H138207   0.408   2.097  32.814 -1.5042  0.2393  1.0699
 5572TIP3    H238208   0.549   2.134  32.855 -0.2168 -2.0541 -0.9813
 5573TIP3   OH238209   1.450   0.862 111.194 -0.2027  0.1777 -0.2790
 5573TIP3    H138210   1.398   0.906 111.127 -0.3816  0.5591  0.1080
 5573TIP3    H238211   1.386   0.835 111.260 -0.0117 -0.0888 -0.1956
 5574TIP3   OH238212   1.004   0.605  83.991  0.0818  0.1641 -0.6801
 5574TIP3    H138213   1.019   0.549  84.067  0.0391 -0.3098 -1.0212
 5574TIP3    H238214   0.993   0.693  84.028  0.8526  0.0635 -0.2033
 5575TIP3   OH238215   2.656   0.485  17.191 -0.4010 -0.2480 -0.0588
 5575TIP3    H138216   2.687   0.517  17.106 -0.7337 -0.7353 -0.3695
 5575TIP3    H238217   2.564   0.464  17.177  0.1029 -2.5659 -0.2323
 5576TIP3   OH238218   0.949   0.339  83.063  0.5342  0.3832 -0.3788
 5576TIP3    H138219   0.892   0.409  83.094  0.9107  1.0440 -1.1364
 5576TIP3    H238220   1.037   0.370  83.083  0.7207  0.2960 -1.0471
 5577TIP3   OH238221   2.610   1.974  82.324  0.5436  0.1783  0.3967
 5577TIP3    H138222   2.700   1.944  82.327 -0.5724 -3.8900 -1.1717
 5577TIP3    H238223   2.605   2.028  82.245  1.6488  1.0321  0.8727
 5578TIP3   OH238224   0.383   2.437 111.361 -0.0995 -0.1290 -0.6406
 5578TIP3    H138225   0.369   2.344 111.378  0.9740 -0.0657  0.7914
 5578TIP3    H238226   0.296   2.470 111.337 -0.4807 -1.4962 -1.2324
 5579TIP3   OH238227   1.823   1.633   3.845  0.0712  0.6636  0.1677
 5579TIP3    H138228   1.783   1.654   3.930 -0.4990  0.5279 -0.0654
 5579TIP3    H238229   1.885   1.705   3.830  0.3071  0.5923  0.7840
 5580TIP3   OH238230   0.247   2.169  90.776 -0.1787 -0.2231  0.3806
 5580TIP3    H138231   0.289   2.109  90.713 -2.7419 -3.2034  1.2506
 5580TIP3    H238232   0.155   2.170  90.749 -1.1743 -0.8391  3.4265
 5581TIP3   OH238233   0.211   0.210  27.329 -0.5431 -0.3665 -0.7101
 5581TIP3    H138234   0.222   0.219  27.423  0.2626 -1.3192 -0.6950
 5581TIP3    H238235   0.121   0.239  27.312 -1.2619 -1.6966  0.5854
 5582TIP3   OH238236   1.803   1.781  92.214  0.7371 -0.1256 -0.6473
 5582TIP3    H138237   1.879   1.755  92.163  1.0208 -0.5515 -0.0206
 5582TIP3    H238238   1.801   1.720  92.288  0.7253  0.8772  0.2132
 5583TIP3   OH238239   2.472   2.157  74.371 -0.2687  0.6916 -0.3068
 5583TIP3    H138240   2.485   2.252  74.368 -1.2532  0.8012 -1.5376
 5583TIP3    H238241   2.561   2.121  74.372  0.1233  1.5937 -1.2283
 5584TIP3   OH238242   2.479   0.721 105.840 -0.0533  0.1469 -0.1223
 5584TIP3    H138243   2.550   0.774 105.875 -1.2788  0.7192  1.6684
 5584TIP3    H238244   2.470   0.648 105.901 -1.8539  0.8392  0.5344
 5585TIP3   OH238245   2.386   1.753  62.774  0.0270 -0.1241 -0.1947
 5585TIP3    H138246   2.413   1.844  62.762  1.4905 -0.2501  1.5388
 5585TIP3    H238247   2.318   1.757  62.841  2.4127 -0.4369  2.4538
 5586TIP3   OH238248   2.416   2.507 100.667 -0.6045  0.4387 -0.8005
 5586TIP3    H138249   2.481   2.438 100.667 -1.5633 -0.5152  0.3824
 5586TIP3    H238250   2.332   2.462 100.660 -1.2618  1.4450  0.1503
 5587TIP3   OH238251   0.940   2.671 107.756 -0.1837  0.4855  0.0665
 5587TIP3    H138252   0.904   2.621 107.682 -1.5853 -0.1040  1.1103
 5587TIP3    H238253   0.865   2.720 107.791  0.6380  1.3932  0.6135
 5588TIP3   OH238254   0.521   2.034  34.712 -0.4160 -0.3003  0.8317
 5588TIP3    H138255   0.587   2.082  34.662 -1.5014  0.2416 -0.1438
 5588TIP3    H238256   0.569   1.965  34.757  0.7876  0.0288  0.0807
 5589TIP3   OH238257   2.374   0.991 110.443 -0.4114  0.4618 -0.0579
 5589TIP3    H138258   2.350   1.009 110.352  0.3065 -0.0675 -0.3621
 5589TIP3    H238259   2.300   1.025 110.494 -0.5857  1.2287 -0.8010
 5590TIP3   OH238260   1.446   0.131  22.008  0.4642 -0.5652 -0.2046
 5590TIP3    H138261   1.527   0.154  21.963  1.2119 -1.5731  0.5955
 5590TIP3    H238262   1.406   0.063  21.954 -0.7484  1.0834 -1.5073
 5591TIP3   OH238263   0.668   0.205   3.084 -0.2245 -0.5915  0.2011
 5591TIP3    H138264   0.740   0.262   3.056 -0.3908 -0.8782 -0.8463
 5591TIP3    H238265   0.638   0.163   3.004 -1.9780 -0.0071  0.5026
 5592TIP3   OH238266   0.506   1.573  18.934 -0.4915  0.4474  0.2411
 5592TIP3    H138267   0.422   1.541  18.902 -0.3133 -0.2742  0.4811
 5592TIP3    H238268   0.518   1.658  18.890 -0.3462 -0.4050 -1.4352
 5593TIP3   OH238269   1.772   1.604  13.224  0.3774 -0.1978  0.0932
 5593TIP3    H138270   1.702   1.637  13.168 -0.1050  0.6746  1.1804
 5593TIP3    H238271   1.813   1.683  13.260 -0.5039 -0.7147  2.4022
 5594TIP3   OH238272   0.328   0.495  78.783  0.3003  0.2318  0.3389
 5594TIP3    H138273   0.399   0.487  78.719 -0.4894 -0.4699 -0.4934
 5594TIP3    H238274   0.371   0.490  78.868  1.4136  1.4852 -0.1265
 5595TIP3   OH238275   0.159   1.766  27.845  0.7397 -0.5838 -0.2104
 5595TIP3    H138276   0.073   1.738  27.815  0.9937 -0.6085 -0.9304
 5595TIP3    H238277   0.204   1.685  27.869  1.2461 -0.7658 -1.6863
 5596TIP3   OH238278   2.181   1.413  30.852 -0.1589 -0.1087  0.2541
 5596TIP3    H138279   2.108   1.464  30.817 -0.0650  1.4093  2.1372
 5596TIP3    H238280   2.258   1.466  30.834  0.0858 -0.1495  1.1451
 5597TIP3   OH238281   2.148   0.514 109.271 -0.1498 -0.3353  0.1016
 5597TIP3    H138282   2.064   0.490 109.312 -1.0120  2.2578 -0.0105
 5597TIP3    H238283   2.211   0.510 109.343 -0.7069 -0.5053  0.5870
 5598TIP3   OH238284   0.406   1.248  25.738  0.4850 -0.6907  0.0556
 5598TIP3    H138285   0.459   1.327  25.752 -0.7003 -0.1670  2.2037
 5598TIP3    H238286   0.393   1.244  25.644  0.7711  1.5869 -0.1507
 5599TIP3   OH238287   2.188   1.951 102.294 -0.3880 -0.1786  0.3363
 5599TIP3    H138288   2.178   2.036 102.252 -1.6480 -0.5696 -0.2016
 5599TIP3    H238289   2.276   1.923 102.269 -0.7957 -0.0352 -1.4220
 5600TIP3   OH238290   1.985   2.482 106.993  0.1213  0.0798 -0.4404
 5600TIP3    H138291   2.036   2.491 106.913 -1.1173 -1.7088 -1.5073
 5600TIP3    H238292   1.983   2.388 107.010 -3.6581 -0.1144 -1.1212
 5601TIP3   OH238293   2.359   1.120   2.163  0.0099  0.2866 -0.3077
 5601TIP3    H138294   2.327   1.198   2.118 -0.2529 -0.8250 -2.1227
 5601TIP3    H238295   2.280   1.074   2.191  0.1296 -0.0444 -0.5102
 5602TIP3   OH238296   1.428   2.550  82.129  0.0836  0.2605  0.0249
 5602TIP3    H138297   1.514   2.537  82.171 -0.9962 -2.5995  1.6463
 5602TIP3    H238298   1.401   2.637  82.157  1.5907  0.4046  1.1689
 5603TIP3   OH238299   0.989   1.873 100.380  0.6864 -0.1570  0.0442
 5603TIP3    H138300   0.921   1.806 100.371  0.7861 -0.1239 -1.1718
 5603TIP3    H238301   1.052   1.835 100.441  0.0626 -0.5872  0.4387
 5604TIP3   OH238302   1.873   1.823   5.894 -0.1466 -0.2149  0.1016
 5604TIP3    H138303   1.864   1.916   5.914 -1.4680  0.3077 -2.4718
 5604TIP3    H238304   1.960   1.815   5.855 -0.2623  0.0590 -0.2116
 5605TIP3   OH238305   2.291   1.338  88.175  0.2154 -0.2990  0.5560
 5605TIP3    H138306   2.232   1.354  88.102  1.3586 -0.5905 -0.4616
 5605TIP3    H238307   2.259   1.256  88.214  0.3948 -0.8736 -0.4695
 5606TIP3   OH238308   2.226   1.923  83.699  0.0123  0.8817 -0.1114
 5606TIP3    H138309   2.230   1.828  83.708 -3.6333  0.2523 -2.5340
 5606TIP3    H238310   2.299   1.945  83.642  0.5306 -0.5884 -0.0481
 5607TIP3   OH238311   0.449   2.034  20.055  0.1345  0.3814 -0.3947
 5607TIP3    H138312   0.461   1.966  20.121 -1.7466  1.3461  1.0356
 5607TIP3    H238313   0.380   2.000  19.998  0.1436  0.5140 -0.4853
 5608TIP3   OH238314   0.213   1.800  95.303 -0.1904 -0.0007 -0.1415
 5608TIP3    H138315   0.197   1.850  95.223  0.3915  2.6778  1.2759
 5608TIP3    H238316   0.305   1.818  95.324  0.2103 -2.1572  0.1947
 5609TIP3   OH238317   1.524   2.313  84.869 -0.6419  0.0085 -0.6093
 5609TIP3    H138318   1.496   2.289  84.781  0.4209  1.7835 -1.4712
 5609TIP3    H238319   1.604   2.363  84.857 -0.3465  0.1088  1.3880
 5610TIP3   OH238320   0.946   1.887  16.578  0.2798  0.5448 -0.3934
 5610TIP3    H138321   0.862   1.846  16.557  0.0633  0.8333 -0.0999
 5610TIP3    H238322   0.922   1.972  16.615  0.7267  0.9270 -0.9838
 5611TIP3   OH238323   0.832   2.153   9.827  0.3510  0.1390 -0.4351
 5611TIP3    H138324   0.847   2.204   9.748  2.1385  0.1761 -0.1158
 5611TIP3    H238325   0.847   2.215   9.899 -0.2056 -0.1562 -0.0530
 5612TIP3   OH238326   0.876   0.378  83.928 -0.1436  0.0849 -0.4691
 5612TIP3    H138327   0.885   0.319  84.004  0.1438 -0.7650 -1.1409
 5612TIP3    H238328   0.930   0.454  83.950  0.5542 -0.4919 -0.1388
 5613TIP3   OH238329   0.384   2.232 100.897  0.0197 -0.2505 -0.2542
 5613TIP3    H138330   0.364   2.186 100.815 -0.6312  0.9224 -0.7743
 5613TIP3    H238331   0.444   2.302 100.872 -0.7764  0.5938  0.1080
 5614TIP3   OH238332   2.061   0.529  31.675 -0.0001 -0.1681  0.2259
 5614TIP3    H138333   2.043   0.442  31.641 -0.3184  0.5972 -1.6795
 5614TIP3    H238334   2.102   0.514  31.760  0.0132 -2.1620 -0.0994
 5615TIP3   OH238335   1.315   0.769   7.707  0.0336 -0.2589 -0.2493
 5615TIP3    H138336   1.386   0.704   7.707 -0.2181 -0.5689 -2.2538
 5615TIP3    H238337   1.249   0.731   7.765 -0.1682 -1.9088 -1.4764
 5616TIP3   OH238338   0.276   2.204  13.861  0.0405 -0.0139  0.2318
 5616TIP3    H138339   0.230   2.161  13.788  0.7041 -0.4198  0.0467
 5616TIP3    H238340   0.359   2.232  13.823  0.8078 -1.0901  1.0716
 5617TIP3   OH238341   2.341   2.262  76.945  0.6718 -0.3634  0.4137
 5617TIP3    H138342   2.389   2.180  76.958  1.3934  0.1772  1.2947
 5617TIP3    H238343   2.366   2.317  77.019 -0.9167  0.1427  0.6247
 5618TIP3   OH238344   0.141   0.238  52.449 -0.9057  0.1060 -0.1190
 5618TIP3    H138345   0.139   0.208  52.540  0.8177 -0.3844 -0.2220
 5618TIP3    H238346   0.179   0.326  52.453  0.3143 -0.3860 -0.4518
 5619TIP3   OH238347   1.211   1.636   8.811 -0.2647  0.1955 -0.2903
 5619TIP3    H138348   1.191   1.658   8.902 -0.4371  0.6159 -0.4250
 5619TIP3    H238349   1.287   1.690   8.789  0.4623 -0.7198 -0.0632
 5620TIP3   OH238350   1.337   2.625 102.337  0.0008  0.2688  0.1453
 5620TIP3    H138351   1.258   2.642 102.286 -0.6189  0.0991  1.0397
 5620TIP3    H238352   1.327   2.536 102.369  0.1458  0.5541  0.9994
 5621TIP3   OH238353   0.192   0.396  75.120 -0.2028  0.1007  0.6586
 5621TIP3    H138354   0.166   0.481  75.155 -4.0910 -0.0332 -1.3746
 5621TIP3    H238355   0.144   0.332  75.172  1.6761 -0.8827  1.3140
 5622TIP3   OH238356   1.459   0.530   1.124 -0.2369  0.3088  0.4044
 5622TIP3    H138357   1.447   0.506   1.032 -1.6450  0.5214  0.5110
 5622TIP3    H238358   1.488   0.622   1.121  1.1284 -0.1083  0.1436
 5623TIP3   OH238359   0.451   0.210  35.993 -1.1649 -0.2452  0.2578
 5623TIP3    H138360   0.460   0.287  35.937  0.1913 -1.0092 -0.6238
 5623TIP3    H238361   0.364   0.220  36.033 -1.2565  1.4258 -0.2785
 5624TIP3   OH238362   2.432   2.158   8.464 -0.0968 -0.0160 -0.2423
 5624TIP3    H138363   2.382   2.077   8.453 -1.8277  1.0647 -0.8736
 5624TIP3    H238364   2.493   2.158   8.390 -0.1701 -0.6702 -0.3140
 5625TIP3   OH238365   2.277   2.605  89.973  0.0990  0.7189 -0.3984
 5625TIP3    H138366   2.328   2.686  89.975 -0.2191  1.0110  3.1746
 5625TIP3    H238367   2.228   2.606  90.055 -2.0391 -1.8275 -1.5113
 5626TIP3   OH238368   0.105   1.695 103.953  0.0293  0.7372  0.2200
 5626TIP3    H138369   0.078   1.786 103.944 -0.9431  0.4702  0.2732
 5626TIP3    H238370   0.080   1.654 103.870  0.2215  0.4622  0.2892
 5627TIP3   OH238371   2.327   0.114  16.121 -0.0144 -0.8146 -0.1584
 5627TIP3    H138372   2.322   0.157  16.035 -1.1246 -1.4439 -0.4227
 5627TIP3    H238373   2.420   0.095  16.132 -0.0314 -2.1970 -1.9756
 5628TIP3   OH238374   1.008   1.444  36.873  0.2281 -0.3420  0.0089
 5628TIP3    H138375   1.075   1.413  36.934  2.2311  0.6682 -1.5603
 5628TIP3    H238376   1.045   1.427  36.786 -0.4709  2.3659 -0.9245
 5629TIP3   OH238377   0.746   2.614  26.697 -0.0216  0.1595 -0.3754
 5629TIP3    H138378   0.828   2.652  26.728  0.6225 -1.2740 -0.2004
 5629TIP3    H238379   0.769   2.524  26.673 -1.9577 -1.0709  1.8886
 5630TIP3   OH238380   1.042   1.655 106.462 -0.0146 -0.3137  0.3095
 5630TIP3    H138381   1.088   1.608 106.392 -0.9019  0.7691 -1.0436
 5630TIP3    H238382   1.110   1.678 106.525  0.7504 -1.5886 -0.0143
 5631TIP3   OH238383   0.972   0.141  18.992  0.0318  0.3912 -0.3715
 5631TIP3    H138384   0.883   0.152  18.958 -0.7404  0.4512  1.5437
 5631TIP3    H238385   1.022   0.210  18.949 -1.4482  2.0548  0.4150
 5632TIP3   OH238386   2.657   1.758  96.256  0.3195  0.2005 -0.3864
 5632TIP3    H138387   2.633   1.700  96.328  0.3531 -0.4135 -0.8698
 5632TIP3    H238388   2.740   1.797  96.283  0.4621 -0.2257 -0.2034
 5633TIP3   OH238389   1.677   1.200  76.255 -0.1606  0.6743 -0.1206
 5633TIP3    H138390   1.734   1.267  76.293 -0.2523  2.6050 -3.0544
 5633TIP3    H238391   1.658   1.141  76.328  1.4720  2.7671  2.1940
 5634TIP3   OH238392   1.594   0.323  14.534  0.0561 -0.7574  0.1678
 5634TIP3    H138393   1.501   0.303  14.546 -0.3053  1.4595  1.7382
 5634TIP3    H238394   1.603   0.339  14.440 -0.7358 -2.6795 -0.2747
 5635TIP3   OH238395   2.610   0.323 111.991 -0.0180  0.2236 -0.5639
 5635TIP3    H138396   2.538   0.294 112.048  0.9214  0.1803  0.6308
 5635TIP3    H238397   2.681   0.262 112.010  0.6017  0.7572 -1.1404
 5636TIP3   OH238398   0.044   0.083  91.042 -0.3850 -0.3261  0.0770
 5636TIP3    H138399  -0.021   0.104  91.110 -1.0706  0.0049 -0.6493
 5636TIP3    H238400   0.082   0.168  91.019  0.6235 -0.5683  0.7849
 5637TIP3   OH238401   0.143   0.279   5.553 -0.0742  0.7403  0.1026
 5637TIP3    H138402   0.140   0.208   5.488  0.0873 -0.1662  1.0651
 5637TIP3    H238403   0.119   0.357   5.503  2.2240  0.4816 -1.6080
 5638TIP3   OH238404   0.474   1.756  14.945 -0.1885 -0.0950  0.5927
 5638TIP3    H138405   0.481   1.726  15.036  0.1263 -0.4510  0.4535
 5638TIP3    H238406   0.384   1.737  14.920 -0.0095 -0.8791  0.5273
 5639TIP3   OH238407   0.419   1.049   1.281 -0.2965 -0.0177  0.0304
 5639TIP3    H138408   0.394   1.042   1.189  0.9821  1.5716 -0.4828
 5639TIP3    H238409   0.400   0.962   1.317 -1.6134 -0.4258 -1.5081
 5640TIP3   OH238410   0.532   1.076  22.784  0.1950 -0.1212 -0.1410
 5640TIP3    H138411   0.614   1.126  22.776  1.0590 -1.5410 -0.5327
 5640TIP3    H238412   0.554   1.004  22.844 -0.8190 -0.4309 -0.1325
 5641TIP3   OH238413   1.283   0.555  59.538 -0.0887 -0.2930 -0.2059
 5641TIP3    H138414   1.286   0.465  59.505  0.5437 -0.4478  0.2729
 5641TIP3    H238415   1.362   0.596  59.504  1.5536 -0.9677  2.5517
 5642TIP3   OH238416   0.624   2.053  82.567  0.2474  0.2600 -0.5519
 5642TIP3    H138417   0.694   2.037  82.631  0.4699  0.3709 -0.7660
 5642TIP3    H238418   0.559   2.103  82.615 -0.4965 -1.3158  0.1609
 5643TIP3   OH238419   0.601   0.510  80.331 -0.2426  0.1186  0.4660
 5643TIP3    H138420   0.573   0.598  80.356  2.1052  0.9315  0.4865
 5643TIP3    H238421   0.660   0.524  80.257 -0.4664 -1.5369 -0.0766
 5644TIP3   OH238422   2.009   1.381  96.523 -0.0829  0.5563 -0.1015
 5644TIP3    H138423   2.095   1.370  96.481 -0.3249  1.0376 -0.7384
 5644TIP3    H238424   1.998   1.475  96.530 -1.5219  0.5937 -2.0828
 5645TIP3   OH238425   1.705   0.749 109.046  0.1873 -0.1002  0.2814
 5645TIP3    H138426   1.779   0.690 109.031 -0.2582 -0.3104 -1.1826
 5645TIP3    H238427   1.664   0.715 109.126 -0.1307 -1.8681 -0.5884
 5646TIP3   OH238428   1.913   2.404  32.505 -0.2045  0.2347  0.0825
 5646TIP3    H138429   1.890   2.325  32.456 -1.4129  0.4403  0.2818
 5646TIP3    H238430   1.967   2.373  32.577  1.8175 -0.0449 -1.4880
 5647TIP3   OH238431   0.991   0.771  74.806  0.3560  0.5326  0.0936
 5647TIP3    H138432   0.960   0.854  74.769  0.6838  0.3395 -0.6354
 5647TIP3    H238433   1.081   0.790  74.834  0.1545  0.6406  0.6767
 5648TIP3   OH238434   0.295   0.632  24.081  0.7770 -0.1893 -0.2042
 5648TIP3    H138435   0.374   0.617  24.030  1.1642 -0.6683  0.5276
 5648TIP3    H238436   0.314   0.596  24.167  0.5963  1.6995  0.6860
 5649TIP3   OH238437   1.829   0.014  44.408  0.2603 -0.1864 -0.1979
 5649TIP3    H138438   1.748  -0.037  44.416 -0.0899  0.2715 -0.7368
 5649TIP3    H238439   1.899  -0.051  44.412 -0.2121 -0.8933 -2.1191
 5650TIP3   OH238440   2.361   1.633  12.162 -0.2759  0.5273 -0.3421
 5650TIP3    H138441   2.451   1.608  12.145 -0.2448  0.7403 -0.4862
 5650TIP3    H238442   2.366   1.723  12.194 -0.2937  0.0141  1.1814
 5651TIP3   OH238443   0.242   0.567  19.259  0.5710  0.6392  0.1691
 5651TIP3    H138444   0.229   0.602  19.347 -1.5978  0.5791 -0.0735
 5651TIP3    H238445   0.172   0.608  19.206  0.1981 -1.2747 -0.9237
 5652TIP3   OH238446   1.922   1.490  27.484  0.4164  0.2915  0.1635
 5652TIP3    H138447   1.893   1.410  27.441  2.3817 -0.9222  0.9809
 5652TIP3    H238448   1.841   1.539  27.501 -0.6772 -0.6722 -1.9121
 5653TIP3   OH238449   0.380   0.028  25.947  0.4091  0.0447  0.2182
 5653TIP3    H138450   0.356   0.115  25.914  0.2303 -0.5795 -1.3996
 5653TIP3    H238451   0.473   0.034  25.966  0.1394  0.9472  1.3854
 5654TIP3   OH238452   2.003   2.555  20.190 -0.0103  0.1198 -0.0390
 5654TIP3    H138453   1.926   2.502  20.168 -0.8665  1.6505 -0.8960
 5654TIP3    H238454   2.061   2.544  20.115  0.0871 -0.0972  0.0688
 5655TIP3   OH238455   0.861   1.166  35.307 -0.1211  0.2242 -0.1664
 5655TIP3    H138456   0.800   1.182  35.235  0.0054 -0.0644 -0.3402
 5655TIP3    H238457   0.857   1.072  35.321  1.8949 -0.1418 -1.6374
 5656TIP3   OH238458   1.265   1.015   3.034 -0.1818  0.0039 -0.4891
 5656TIP3    H138459   1.182   1.011   3.082 -0.0554  2.5360  0.0357
 5656TIP3    H238460   1.330   1.041   3.099  0.6793 -0.0445 -1.3057
 5657TIP3   OH238461   1.697   1.478  16.276  0.0568 -0.3332 -0.4343
 5657TIP3    H138462   1.709   1.405  16.215  0.4971 -0.7090  0.0935
 5657TIP3    H238463   1.615   1.459  16.321  0.7819 -1.1658  0.5835
 5658TIP3   OH238464   0.210   0.418  90.546  0.3686 -0.3859 -0.2905
 5658TIP3    H138465   0.159   0.353  90.594 -0.5293  0.9493  0.6709
 5658TIP3    H238466   0.294   0.422  90.591  0.2907 -0.6027 -0.1270
 5659TIP3   OH238467   2.685   0.283  85.585  0.6002 -0.3250 -0.0117
 5659TIP3    H138468   2.726   0.340  85.650  0.0378  0.8072 -0.6092
 5659TIP3    H238469   2.593   0.280  85.610  0.2064  0.8162 -1.1925
 5660TIP3   OH238470   2.407   2.490  85.720  0.0414 -0.1754 -0.3393
 5660TIP3    H138471   2.378   2.408  85.758 -0.1980  0.3618  0.6628
 5660TIP3    H238472   2.334   2.519  85.665 -0.8424  0.5167  1.1443
 5661TIP3   OH238473   1.431   0.579  96.403  0.3373 -0.0454  0.2453
 5661TIP3    H138474   1.395   0.542  96.483  0.5233  0.2913  0.4879
 5661TIP3    H238475   1.491   0.647  96.433  0.6028 -0.0912 -0.1709
 5662TIP3   OH238476   1.174   2.292  94.945 -0.5312  0.0860  0.3038
 5662TIP3    H138477   1.243   2.357  94.930 -0.7227  0.1181 -0.5130
 5662TIP3    H238478   1.117   2.333  95.010  0.8246 -0.4262  1.8805
 5663TIP3   OH238479   2.646   0.066 104.008 -0.3704  0.3112 -0.1880
 5663TIP3    H138480   2.698  -0.014 104.014 -1.4440 -0.2901  2.3626
 5663TIP3    H238481   2.707   0.136 104.030 -0.0454 -0.1152  0.2927
 5664TIP3   OH238482   1.558   2.547  30.531  0.2008 -0.3485 -0.4270
 5664TIP3    H138483   1.620   2.493  30.481 -0.6097 -2.0656  0.3695
 5664TIP3    H238484   1.484   2.489  30.548 -1.4449  1.5007 -0.9113
 5665TIP3   OH238485   0.637   2.139 106.781  0.3310 -0.2243  0.0872
 5665TIP3    H138486   0.639   2.151 106.876 -0.2638  2.2983 -0.1683
 5665TIP3    H238487   0.728   2.148 106.753  0.2016  1.6606  0.1800
 5666TIP3   OH238488   1.673   2.471 103.196 -0.0359 -0.3026  0.2142
 5666TIP3    H138489   1.621   2.403 103.237 -1.9031  1.3470  0.7348
 5666TIP3    H238490   1.740   2.493 103.262 -0.4713 -0.4697  0.7124
 5667TIP3   OH238491   1.405   2.155  17.343  0.1890  0.4978  0.2138
 5667TIP3    H138492   1.350   2.190  17.273 -1.0095 -0.0391  0.8560
 5667TIP3    H238493   1.494   2.157  17.307 -0.1573  1.8969 -0.6531
 5668TIP3   OH238494   1.936   0.447  22.792  0.1368 -1.0054 -0.2920
 5668TIP3    H138495   2.020   0.409  22.767  0.0709 -1.2077 -0.2135
 5668TIP3    H238496   1.874   0.374  22.786 -0.3954 -0.4533 -2.1165
 5669TIP3   OH238497   2.353   2.104   1.090 -0.1464  0.0043  0.1200
 5669TIP3    H138498   2.296   2.085   1.165 -0.3107 -0.2311 -0.0674
 5669TIP3    H238499   2.304   2.074   1.014  1.2517 -2.5442  0.1266
 5670TIP3   OH238500   2.672   1.964  10.701  0.2940  0.6578  0.3334
 5670TIP3    H138501   2.619   2.001  10.631 -0.0380 -0.9338 -0.2915
 5670TIP3    H238502   2.611   1.955  10.774  0.2118  0.7074  0.2714
 5671TIP3   OH238503   1.413   1.770 100.022 -0.0609 -0.1056  0.4803
 5671TIP3    H138504   1.388   1.737 100.109  0.0516 -1.1412  0.1438
 5671TIP3    H238505   1.451   1.693  99.978  2.1754  0.9640  0.3718
 5672TIP3   OH238506   2.375   0.434  89.807 -0.5664 -0.5064  0.6635
 5672TIP3    H138507   2.337   0.440  89.720  1.0484 -0.2484 -0.0577
 5672TIP3    H238508   2.313   0.480  89.864 -1.3545 -0.1820 -0.4297
 5673TIP3   OH238509   0.895   1.740   8.119 -0.7078 -0.3344 -0.1517
 5673TIP3    H138510   0.814   1.764   8.163 -0.7275 -0.2540 -0.2310
 5673TIP3    H238511   0.920   1.819   8.070  0.2915  0.2059  1.1819
 5674TIP3   OH238512   2.061   0.887   3.243  0.2385  0.0115 -0.3880
 5674TIP3    H138513   2.089   0.971   3.279  0.3131  0.3192 -1.1263
 5674TIP3    H238514   1.982   0.865   3.291 -0.0331  0.7338 -0.4805
 5675TIP3   OH238515   1.943   1.554  15.910 -0.1236 -0.1667 -0.1227
 5675TIP3    H138516   1.945   1.574  16.003  1.6190 -0.4474 -0.0704
 5675TIP3    H238517   1.984   1.467  15.903 -1.3241 -0.7017 -1.0388
 5676TIP3   OH238518   0.018   0.251  38.039 -0.6081  0.5270 -0.2371
 5676TIP3    H138519   0.028   0.252  38.135  1.8554  1.4950 -0.4294
 5676TIP3    H238520  -0.056   0.310  38.023 -1.2540  0.1195  1.0802
 5677TIP3   OH238521   2.219   0.796 105.059  0.2115 -0.1298  0.3184
 5677TIP3    H138522   2.163   0.730 105.017 -0.5012 -0.8939  2.3585
 5677TIP3    H238523   2.229   0.765 105.149  1.8864  1.3105  0.6739
 5678TIP3   OH238524   1.048   2.059  15.251 -0.1282 -0.1640  0.0100
 5678TIP3    H138525   0.986   2.105  15.307 -1.8889 -0.4105 -1.6285
 5678TIP3    H238526   1.056   1.972  15.291  1.8877  0.8735  2.1316
 5679TIP3   OH238527   1.123   2.401  90.697 -0.6382 -0.4716 -0.2074
 5679TIP3    H138528   1.061   2.413  90.626 -0.0157 -1.3613 -0.9285
 5679TIP3    H238529   1.081   2.443  90.773 -0.6069  1.9189 -1.4214
 5680TIP3   OH238530   0.296   2.685 102.318  0.1151 -0.2403 -0.4888
 5680TIP3    H138531   0.387   2.679 102.288 -0.1031 -0.4706 -1.1216
 5680TIP3    H238532   0.289   2.618 102.386  0.7118  0.5244  0.3526
 5681TIP3   OH238533   1.005   1.498  17.559 -0.3360  0.3594  0.1145
 5681TIP3    H138534   0.915   1.469  17.547  0.6320 -2.1278 -2.0735
 5681TIP3    H238535   1.059   1.424  17.531  2.4335  1.5315  1.8657
 5682TIP3   OH238536   0.740   1.431  86.253 -0.8767 -0.1761 -0.1592
 5682TIP3    H138537   0.706   1.369  86.189 -0.9408  0.7653 -1.0592
 5682TIP3    H238538   0.791   1.377  86.314 -0.0146 -0.9810 -1.5335
 5683TIP3   OH238539   2.197   1.809  92.848 -0.4496  0.2947 -0.1701
 5683TIP3    H138540   2.135   1.881  92.860 -0.1031  0.4833  0.5200
 5683TIP3    H238541   2.258   1.817  92.921 -0.4105 -0.7031 -0.0717
 5684TIP3   OH238542   2.208   1.521  10.681  0.3242  0.0181  0.2002
 5684TIP3    H138543   2.132   1.559  10.637 -0.7749 -1.8928  0.3532
 5684TIP3    H238544   2.205   1.428  10.659  2.1272 -0.2590  0.9476
 5685TIP3   OH238545   0.838   1.574  32.576 -0.3676  0.2776 -0.3125
 5685TIP3    H138546   0.907   1.599  32.514  1.8227 -2.0870  1.0065
 5685TIP3    H238547   0.876   1.503  32.628 -3.7804 -1.0808  0.6077
 5686TIP3   OH238548   2.197   1.317   3.866 -0.4382 -0.6387 -0.5844
 5686TIP3    H138549   2.181   1.287   3.955 -1.1423  0.3342 -0.3641
 5686TIP3    H238550   2.279   1.367   3.873 -1.4631  1.0815 -0.0332
 5687TIP3   OH238551   1.013   2.178 105.832  0.5938  0.1581  0.0139
 5687TIP3    H138552   0.949   2.185 105.761  2.4199  0.2436 -1.7086
 5687TIP3    H238553   0.990   2.249 105.892 -0.9994  0.0825 -0.4474
 5688TIP3   OH238554   2.653   0.547   1.394  0.3455 -0.0809 -0.0834
 5688TIP3    H138555   2.588   0.479   1.409  0.9266 -0.4487  0.7947
 5688TIP3    H238556   2.612   0.606   1.330 -0.6648 -0.5445  0.1320
 5689TIP3   OH238557   2.669   1.750  51.974  0.9532 -0.0446  0.1366
 5689TIP3    H138558   2.693   1.731  52.064 -0.5232 -0.7273  0.4022
 5689TIP3    H238559   2.575   1.769  51.976  0.4968 -1.7896 -1.4787
 5690TIP3   OH238560   1.155   0.699  76.247 -0.2179  0.2406 -0.2860
 5690TIP3    H138561   1.248   0.719  76.259 -0.1648 -0.0339 -0.2179
 5690TIP3    H238562   1.138   0.630  76.311 -1.0452  1.9178  1.3984
 5691TIP3   OH238563   1.110   2.155  47.392 -0.6200  0.4800 -0.0764
 5691TIP3    H138564   1.104   2.241  47.434  1.5380  0.4249  0.4412
 5691TIP3    H238565   1.026   2.146  47.346  0.2197  4.2959 -2.8612
 5692TIP3   OH238566   1.480   1.210  28.353 -0.0505  0.1038 -0.3122
 5692TIP3    H138567   1.393   1.187  28.322  0.0817 -0.3216 -0.3784
 5692TIP3    H238568   1.478   1.189  28.447  0.2152 -0.6298 -0.4648
 5693TIP3   OH238569   0.513   2.269   6.769  0.3662  0.4761 -0.6484
 5693TIP3    H138570   0.506   2.265   6.674  1.1533  0.4426 -0.7110
 5693TIP3    H238571   0.505   2.179   6.798  2.8076  0.1128 -0.9034
 5694TIP3   OH238572   0.395   1.162  74.090  0.1351 -0.0835  0.1446
 5694TIP3    H138573   0.373   1.132  74.178  2.2994  0.9668  1.0959
 5694TIP3    H238574   0.440   1.087  74.050 -0.8541 -0.5627 -0.0978
 5695TIP3   OH238575   1.992   0.156 100.633 -0.0723  0.2320  0.2278
 5695TIP3    H138576   1.918   0.166 100.692  0.5054  1.2755  0.8027
 5695TIP3    H238577   2.013   0.063 100.637 -0.3006  0.2127  1.3654
 5696TIP3   OH238578   1.543   1.212 102.948 -0.4833 -0.1231 -0.2911
 5696TIP3    H138579   1.503   1.150 102.886 -0.4705  1.2892 -1.7561
 5696TIP3    H238580   1.611   1.256 102.898  0.8956 -0.3267  1.3236
 5697TIP3   OH238581   2.001   0.187  27.595  0.4173  0.1084 -0.0195
 5697TIP3    H138582   1.980   0.110  27.647 -0.8554  1.6781  1.9512
 5697TIP3    H238583   2.055   0.241  27.653  2.0996  0.3300 -1.7025
 5698TIP3   OH238584   0.071   1.906 109.972 -0.5830 -0.0082  0.3011
 5698TIP3    H138585   0.052   1.937 110.061 -1.5661  0.0800  0.0673
 5698TIP3    H238586   0.114   1.981 109.930 -0.7295  0.1893  0.4991
 5699TIP3   OH238587   2.236   1.596  86.630 -0.3580 -0.6404  0.1848
 5699TIP3    H138588   2.296   1.585  86.704  0.4087  1.5907 -0.0328
 5699TIP3    H238589   2.199   1.509  86.616  1.0007 -1.5505  1.8884
 5700TIP3   OH238590   0.896   0.829  19.525  0.2956 -0.2290 -0.3901
 5700TIP3    H138591   0.960   0.763  19.499  0.9159  0.2121 -0.0371
 5700TIP3    H238592   0.881   0.812  19.618  0.8836  0.4525 -0.1582
 5701TIP3   OH238593   1.105   0.197 105.801  0.2526 -0.1058 -0.4021
 5701TIP3    H138594   1.149   0.117 105.828  0.6662  0.2537  0.0227
 5701TIP3    H238595   1.017   0.169 105.777  0.2208 -0.6100  0.2648
 5702TIP3   OH238596   0.543   1.723  79.181 -0.1745 -0.0206 -0.4235
 5702TIP3    H138597   0.482   1.767  79.241 -0.1607  0.4608 -0.7671
 5702TIP3    H238598   0.629   1.735  79.220 -0.2888 -0.6948  0.0546
 5703TIP3   OH238599   2.598   0.683  97.825  0.2128  0.0653 -0.1432
 5703TIP3    H138600   2.506   0.711  97.827  0.5346  1.2737 -1.1131
 5703TIP3    H238601   2.598   0.604  97.771 -0.0135  1.1663 -1.8229
 5704TIP3   OH238602   0.310   2.234  96.348  0.7096  0.2763  0.1116
 5704TIP3    H138603   0.320   2.250  96.254 -2.1379 -0.1415 -0.3538
 5704TIP3    H238604   0.306   2.139  96.356  1.0079  0.3062  0.6717
 5705TIP3   OH238605   1.879   0.673  64.393 -0.5421  0.0937 -0.0270
 5705TIP3    H138606   1.806   0.619  64.364  0.8032 -0.8165 -1.9480
 5705TIP3    H238607   1.950   0.611  64.411  0.8319  1.1074 -1.6195
 5706TIP3   OH238608   0.581   0.382  84.139  0.3481 -0.0303  0.4901
 5706TIP3    H138609   0.574   0.464  84.090  0.5003 -0.2068  0.1641
 5706TIP3    H238610   0.501   0.376  84.190 -0.9391 -0.9645 -1.5132
 5707TIP3   OH238611   2.380   0.207  25.893 -0.5310 -0.0691 -0.1266
 5707TIP3    H138612   2.468   0.175  25.914 -0.8457 -1.2680 -0.5998
 5707TIP3    H238613   2.328   0.187  25.971 -0.1552  1.7168  0.6443
 5708TIP3   OH238614   0.546   0.348 106.001 -0.2473  0.6425  0.7549
 5708TIP3    H138615   0.504   0.283 106.058 -1.4490  0.5322 -0.2319
 5708TIP3    H238616   0.624   0.303 105.967 -1.9830 -1.0202 -1.3314
 5709TIP3   OH238617   1.269   1.000  92.598  0.2336  0.1794  0.6008
 5709TIP3    H138618   1.327   1.062  92.554 -0.2406  0.0381 -0.2457
 5709TIP3    H238619   1.290   1.010  92.691 -0.4286  2.2436  0.5885
 5710TIP3   OH238620   1.913   1.412   5.754  0.7194  0.1678  0.0076
 5710TIP3    H138621   1.969   1.488   5.736 -0.2044  0.9626  0.4420
 5710TIP3    H238622   1.873   1.432   5.838 -0.8337 -0.0180 -0.6681
 5711TIP3   OH238623   0.483   0.948  74.651 -0.4570  0.4906 -0.2956
 5711TIP3    H138624   0.497   1.023  74.593 -0.2634  0.8732  0.2430
 5711TIP3    H238625   0.558   0.949  74.710 -1.6411  1.3171  1.2666
 5712TIP3   OH238626   1.699   0.640  90.312 -0.6206 -0.4170  0.2490
 5712TIP3    H138627   1.781   0.681  90.339  0.0817 -1.5150 -0.1578
 5712TIP3    H238628   1.663   0.701  90.247 -0.4501  0.3746  0.8795
 5713TIP3   OH238629   1.525   0.926  91.341  0.0067  0.4337 -0.0802
 5713TIP3    H138630   1.484   0.846  91.307 -3.1737  2.5373 -1.6447
 5713TIP3    H238631   1.603   0.938  91.286 -0.1674 -0.9089 -0.6597
 5714TIP3   OH238632   0.219   0.628  34.801 -0.2355  0.2145  0.0188
 5714TIP3    H138633   0.169   0.581  34.735 -0.4511 -0.3273  0.5597
 5714TIP3    H238634   0.155   0.652  34.867 -0.2871  2.0369 -0.6467
 5715TIP3   OH238635   1.468   0.918   9.375 -0.0550  0.7220  0.2743
 5715TIP3    H138636   1.449   1.008   9.399  1.3775  1.1153 -0.0072
 5715TIP3    H238637   1.439   0.866   9.450 -0.2730  1.4659  0.7093
 5716TIP3   OH238638   2.163   1.768  83.428 -0.0172 -0.3371 -0.5549
 5716TIP3    H138639   2.146   1.687  83.476  0.9058 -1.0125 -1.3115
 5716TIP3    H238640   2.258   1.767  83.414  0.1035  1.1864 -0.0585
 5717TIP3   OH238641   2.289   0.031   7.152 -0.1075 -0.1704  0.1248
 5717TIP3    H138642   2.257  -0.014   7.230  1.6608 -0.0946  0.9647
 5717TIP3    H238643   2.213   0.037   7.094 -1.0535 -1.8124  1.0990
 5718TIP3   OH238644   0.442   0.788  57.232 -0.8124  0.4040  0.0260
 5718TIP3    H138645   0.414   0.783  57.323  0.5092 -2.1090  0.3694
 5718TIP3    H238646   0.508   0.858  57.231 -0.2464 -0.0820  1.2001
 5719TIP3   OH238647   0.877   1.179   1.206  0.1841  0.2982 -0.2544
 5719TIP3    H138648   0.847   1.202   1.294  0.6248 -0.9432  0.2415
 5719TIP3    H238649   0.926   1.255   1.176 -0.0358  0.7618  0.5429
 5720TIP3   OH238650   0.557   1.301  23.054  0.1470 -0.1407 -0.3349
 5720TIP3    H138651   0.595   1.298  23.141 -0.6224 -0.5856  0.0004
 5720TIP3    H238652   0.523   1.213  23.039 -1.4759  0.4380 -0.2643
 5721TIP3   OH238653   2.552   0.184  92.944 -0.4777 -0.5367  0.3579
 5721TIP3    H138654   2.630   0.206  92.995 -0.2801  0.7918 -0.4749
 5721TIP3    H238655   2.546   0.089  92.949  1.9429 -0.7999 -0.6301
 5722TIP3   OH238656   1.689   0.306  75.346 -0.2506 -0.1410  0.5581
 5722TIP3    H138657   1.700   0.379  75.286 -1.6834 -1.3091 -1.2539
 5722TIP3    H238658   1.678   0.346  75.432 -0.1130  1.7119 -0.2503
 5723TIP3   OH238659   2.303   1.417 110.785  0.0586  0.2135  0.5188
 5723TIP3    H138660   2.341   1.505 110.793  0.9125 -0.0457 -0.5216
 5723TIP3    H238661   2.364   1.369 110.729 -0.8603 -0.7832  0.3414
 5724TIP3   OH238662   0.035   1.495  20.082  0.4238  0.2968  0.2650
 5724TIP3    H138663   0.126   1.523  20.070  0.1988  1.2029  0.5559
 5724TIP3    H238664  -0.015   1.547  20.020  0.0575  0.0974  0.3882
 5725TIP3   OH238665   1.162   1.900  26.960 -0.5944 -0.1978  0.4908
 5725TIP3    H138666   1.098   1.918  27.029  0.3301  1.2726  1.0064
 5725TIP3    H238667   1.236   1.956  26.981  0.0127 -0.2761 -1.2984
 5726TIP3   OH238668   1.491   0.912  95.498 -0.1185  0.1775  0.2435
 5726TIP3    H138669   1.567   0.970  95.491  0.0581 -0.2298 -1.8049
 5726TIP3    H238670   1.527   0.824  95.483 -0.9872 -0.0082 -0.7992
 5727TIP3   OH238671   1.570   2.285   9.229  0.3223  0.6122  0.0281
 5727TIP3    H138672   1.542   2.216   9.169  1.0797  0.0660  0.2977
 5727TIP3    H238673   1.493   2.300   9.285  0.2040 -0.1242  0.0721
 5728TIP3   OH238674   1.315   1.829  81.586  0.1870  0.5850  0.0688
 5728TIP3    H138675   1.372   1.898  81.552 -0.1488  0.3308 -1.0519
 5728TIP3    H238676   1.356   1.747  81.557 -0.2757  0.3743  0.0063
 5729TIP3   OH238677   0.394   0.562   9.666  0.6388 -0.6635 -0.3926
 5729TIP3    H138678   0.334   0.529   9.599 -0.0248  0.0414 -0.1645
 5729TIP3    H238679   0.371   0.655   9.674  0.7686 -0.7229  0.7447
 5730TIP3   OH238680   0.847   0.446  31.832  0.0986 -0.2643 -0.0984
 5730TIP3    H138681   0.753   0.461  31.838  0.3418  1.3844 -0.0513
 5730TIP3    H238682   0.869   0.400  31.913 -0.7336 -1.1445 -0.3497
 5731TIP3   OH238683   0.037   1.646  87.914  0.1783  0.2734  0.0059
 5731TIP3    H138684  -0.012   1.574  87.951  1.4490 -0.0738  1.0846
 5731TIP3    H238685   0.030   1.716  87.979 -1.6108  1.4114 -1.3336
 5732TIP3   OH238686   2.034   0.125  48.003 -0.0570 -0.0036 -0.2352
 5732TIP3    H138687   1.942   0.098  48.000 -0.1701  0.4996 -1.6282
 5732TIP3    H238688   2.059   0.111  48.095 -0.6979 -2.8355 -0.3827
 5733TIP3   OH238689   2.433   0.573  12.074 -0.6075 -0.2135 -0.1071
 5733TIP3    H138690   2.469   0.639  12.015 -0.0131 -0.9164 -0.5444
 5733TIP3    H238691   2.498   0.564  12.144 -0.0102 -1.3045 -0.7680
 5734TIP3   OH238692   0.330   2.399 104.484  0.5617 -0.5330 -0.7214
 5734TIP3    H138693   0.337   2.448 104.565 -0.7238 -0.8877 -0.3654
 5734TIP3    H238694   0.396   2.437 104.427  0.2805  0.9344 -0.1237
 5735TIP3   OH238695   2.433   0.198  36.421 -0.5658  0.0566 -0.0406
 5735TIP3    H138696   2.418   0.292  36.436  0.1164  0.2465 -0.5164
 5735TIP3    H238697   2.520   0.194  36.381 -0.2558 -0.8427  0.6933
 5736TIP3   OH238698   1.202   1.825  33.210 -0.0179  0.4453 -0.2966
 5736TIP3    H138699   1.190   1.822  33.115 -1.1806  0.1543 -0.1517
 5736TIP3    H238700   1.228   1.736  33.234  0.4884  0.5709 -0.3547
 5737TIP3   OH238701   0.407   2.480  87.542 -0.1380  0.0522 -0.1842
 5737TIP3    H138702   0.430   2.542  87.611  1.7755 -0.9136  0.1377
 5737TIP3    H238703   0.364   2.533  87.475 -0.9896  1.2107  1.2372
 5738TIP3   OH238704   0.773   1.388  77.170 -0.3770 -0.3427 -0.1073
 5738TIP3    H138705   0.733   1.311  77.130 -1.3659  0.9141 -1.6593
 5738TIP3    H238706   0.866   1.380  77.148 -0.5665 -0.7867 -0.7882
 5739TIP3   OH238707   0.470   1.608  33.485 -0.0218 -0.5290 -0.1413
 5739TIP3    H138708   0.496   1.680  33.428 -2.2309  0.9826  0.6057
 5739TIP3    H238709   0.526   1.617  33.562  0.5883 -0.4203 -0.5911
 5740TIP3   OH238710   0.783   0.135   4.408  0.0601 -0.0862 -0.6504
 5740TIP3    H138711   0.688   0.138   4.403  0.0672 -0.8907 -1.5090
 5740TIP3    H238712   0.810   0.227   4.407 -0.7253  0.1655  0.2826
 5741TIP3   OH238713   0.590   0.195 108.439 -0.0677 -0.2033 -0.1390
 5741TIP3    H138714   0.568   0.279 108.399  1.3896 -0.3851 -1.3997
 5741TIP3    H238715   0.679   0.206 108.471  0.4396 -1.4768 -1.0192
 5742TIP3   OH238716   1.781   0.644  15.409  0.1955  0.1665  0.1398
 5742TIP3    H138717   1.860   0.682  15.447  0.6144 -0.1657 -0.3699
 5742TIP3    H238718   1.732   0.610  15.483  0.0675  1.2173  0.5519
 5743TIP3   OH238719   0.271   2.551  20.038 -0.1019  0.1993  0.0696
 5743TIP3    H138720   0.201   2.487  20.055 -0.2264  0.5069  0.7376
 5743TIP3    H238721   0.232   2.613  19.977 -0.4776  0.4695  0.5765
 5744TIP3   OH238722   2.217   1.308  24.574  0.1449  0.0816 -0.2011
 5744TIP3    H138723   2.203   1.402  24.565 -3.6042 -0.1684  1.4057
 5744TIP3    H238724   2.255   1.297  24.661 -0.6171  0.0796  0.1410
 5745TIP3   OH238725   2.428   1.981  94.592 -0.2069 -0.5984  0.3510
 5745TIP3    H138726   2.376   1.973  94.512  0.6771  1.5079 -0.5230
 5745TIP3    H238727   2.412   1.900  94.640 -2.5090 -0.9726 -0.9112
 5746TIP3   OH238728   1.496   0.538  37.426 -0.2188  0.1246 -0.4136
 5746TIP3    H138729   1.533   0.452  37.408 -1.1075  0.1079 -2.5019
 5746TIP3    H238730   1.408   0.520  37.460 -0.2203  0.2135 -0.3685
 5747TIP3   OH238731   2.266   2.620 101.275 -0.0438  0.5137  0.0324
 5747TIP3    H138732   2.260   2.661 101.188  1.3161  1.0653  0.1777
 5747TIP3    H238733   2.338   2.558 101.267  0.3752  0.8785  0.8711
 5748TIP3   OH238734   0.050   0.653  24.969 -0.1144 -0.4045 -0.2156
 5748TIP3    H138735   0.047   0.670  24.874  0.2887  0.8035 -0.0356
 5748TIP3    H238736   0.135   0.610  24.982  0.0545 -0.1197 -0.3461
 5749TIP3   OH238737   1.899   0.887  23.059  0.2675 -0.3873 -0.5128
 5749TIP3    H138738   1.942   0.804  23.037  1.4068  0.1446 -0.3837
 5749TIP3    H238739   1.906   0.893  23.154 -0.6953 -0.5942 -0.4208
 5750TIP3   OH238740   2.484   0.343   3.261 -0.1465 -0.5209 -0.1671
 5750TIP3    H138741   2.428   0.270   3.286  2.0344 -1.5109  2.4325
 5750TIP3    H238742   2.563   0.332   3.315  1.4147  2.2689 -1.6245
 5751TIP3   OH238743   0.907   2.161  75.804  0.1483 -0.2100  0.3518
 5751TIP3    H138744   0.928   2.110  75.883 -0.7049 -0.1721  0.6093
 5751TIP3    H238745   0.921   2.252  75.829 -0.1233 -0.1981  0.4522
 5752TIP3   OH238746   0.281   2.127  32.388 -0.7908  0.7963 -0.2524
 5752TIP3    H138747   0.301   2.197  32.451 -1.0814  0.3417  0.3530
 5752TIP3    H238748   0.364   2.111  32.343 -0.5339  1.0060  0.1388
 5753TIP3   OH238749   0.526   0.628  78.341  0.1689 -0.1614 -0.5977
 5753TIP3    H138750   0.501   0.720  78.330 -0.3778  0.0844  1.9837
 5753TIP3    H238751   0.617   0.623  78.311 -0.1395  0.9362 -1.8065
 5754TIP3   OH238752   1.506   2.135  78.591  0.1961  0.0887  0.2818
 5754TIP3    H138753   1.429   2.086  78.561  0.8013 -0.0595 -1.1498
 5754TIP3    H238754   1.502   2.217  78.542 -0.4346  1.2149  2.1454
 5755TIP3   OH238755   1.490   1.928  77.827 -0.5124  0.5174 -0.2832
 5755TIP3    H138756   1.402   1.962  77.842 -0.2040  1.7417 -1.1152
 5755TIP3    H238757   1.521   1.904  77.914 -1.8631 -0.4759 -0.0492
 5756TIP3   OH238758   2.648   0.405  87.664 -0.4562  0.0092 -0.0454
 5756TIP3    H138759   2.704   0.482  87.663  1.3164 -1.2232 -1.2294
 5756TIP3    H238760   2.634   0.384  87.571  1.1358 -2.4227  0.1634
 5757TIP3   OH238761   1.786   0.301  29.996 -0.2106  0.2733  0.2098
 5757TIP3    H138762   1.772   0.371  30.060  1.6859  0.9090 -0.0060
 5757TIP3    H238763   1.859   0.251  30.031 -0.8552 -0.9853 -0.1778
 5758TIP3   OH238764   2.126   1.589  18.287 -0.0699 -0.4174 -0.4565
 5758TIP3    H138765   2.219   1.593  18.311  0.0328  0.2400 -0.9502
 5758TIP3    H238766   2.080   1.608  18.369  0.2889  2.7381 -0.8580
 5759TIP3   OH238767   1.356   2.637  17.505  0.3633 -0.3395  0.3622
 5759TIP3    H138768   1.415   2.576  17.460 -0.5522 -1.7302  0.9571
 5759TIP3    H238769   1.414   2.690  17.560  1.1101 -1.3687  0.6056
 5760TIP3   OH238770   0.527   0.130   2.856 -0.1211 -0.2590  0.9196
 5760TIP3    H138771   0.536   0.035   2.859  3.4635 -0.1261 -0.4492
 5760TIP3    H238772   0.486   0.147   2.771 -0.6274 -0.5434  1.0997
 5761TIP3   OH238773   0.844   1.951 102.309  0.1033 -0.3298  0.3980
 5761TIP3    H138774   0.780   1.997 102.363  0.7716  0.4846  0.5038
 5761TIP3    H238775   0.902   1.908 102.372 -0.1439 -0.8089  0.3024
 5762TIP3   OH238776   0.803   0.818   7.745  0.1730  0.1420  0.2150
 5762TIP3    H138777   0.824   0.732   7.709 -2.6102 -0.2712 -0.6227
 5762TIP3    H238778   0.831   0.880   7.678 -1.1891 -0.3822 -0.8879
 5763TIP3   OH238779   2.660   1.371 107.465 -0.7270  0.3914 -0.4050
 5763TIP3    H138780   2.590   1.428 107.433  0.5208  1.6679 -0.9934
 5763TIP3    H238781   2.739   1.425 107.462  0.6537 -1.5358 -1.5751
 5764TIP3   OH238782   1.205   0.576   5.962 -0.1695  0.3177 -0.0960
 5764TIP3    H138783   1.264   0.507   5.995  0.1411 -0.1138 -1.4947
 5764TIP3    H238784   1.169   0.616   6.041  0.9460 -0.3278  0.7769
 5765TIP3   OH238785   2.245   1.719  77.230 -0.0960 -0.3909  0.3615
 5765TIP3    H138786   2.156   1.713  77.197  1.2452 -1.9750 -3.6292
 5765TIP3    H238787   2.256   1.641  77.284 -1.0424 -0.2741  0.7331
 5766TIP3   OH238788   1.859   1.851 102.789 -0.1814  0.5322 -0.2377
 5766TIP3    H138789   1.784   1.908 102.772  0.0291  0.4381 -1.6001
 5766TIP3    H238790   1.847   1.777 102.730  0.7837  0.3234 -0.1917
 5767TIP3   OH238791   2.079   0.061  17.935  0.2927 -0.2155 -0.3858
 5767TIP3    H138792   2.139   0.097  18.001  1.1753 -0.1324 -1.2171
 5767TIP3    H238793   2.022   0.134  17.912  1.0852  0.2343 -0.9468
 5768TIP3   OH238794   0.176   0.046  35.731  0.0221 -0.6080 -0.1572
 5768TIP3    H138795   0.237   0.096  35.676 -1.3082  1.0468 -0.2050
 5768TIP3    H238796   0.144  -0.024  35.675  2.0575 -1.6992 -0.0436
 5769TIP3   OH238797   1.878   1.642  35.008 -0.0480  0.0015 -0.0309
 5769TIP3    H138798   1.783   1.639  35.021 -0.4985  2.4981 -1.9252
 5769TIP3    H238799   1.912   1.690  35.083 -0.3814 -0.1865  0.2396
 5770TIP3   OH238800   1.402   1.484 102.626 -0.0035  0.2987 -0.0087
 5770TIP3    H138801   1.402   1.489 102.721  0.1206  0.6545 -0.0233
 5770TIP3    H238802   1.455   1.558 102.598  0.1915  0.0359 -0.3451
 5771TIP3   OH238803   1.346   0.086  89.337 -0.0555  0.2399 -0.0530
 5771TIP3    H138804   1.308   0.174  89.331  0.2267  0.4901  1.3857
 5771TIP3    H238805   1.301   0.036  89.270 -0.5399  1.3769 -0.6140
 5772TIP3   OH238806   0.645   0.666  29.378  0.4027  0.3310 -0.2714
 5772TIP3    H138807   0.613   0.717  29.304  0.3653  0.2896 -0.2829
 5772TIP3    H238808   0.726   0.626  29.347  0.6004  0.6397 -0.1577
 5773TIP3   OH238809   0.195   1.472  30.638  0.2530  0.0206  0.4321
 5773TIP3    H138810   0.289   1.488  30.631  0.1634  1.5655  2.2492
 5773TIP3    H238811   0.189   1.384  30.677  0.9501  0.0867  0.7084
 5774TIP3   OH238812   2.634   0.389  90.310  0.0668 -0.0389 -0.1083
 5774TIP3    H138813   2.555   0.439  90.290 -0.0465 -0.5838 -1.0627
 5774TIP3    H238814   2.633   0.381  90.406 -2.3001 -2.0197 -0.1885
 5775TIP3   OH238815   0.444   2.621  73.674  0.3518  0.4182 -0.0654
 5775TIP3    H138816   0.427   2.612  73.580 -0.9997 -1.4285  0.2967
 5775TIP3    H238817   0.357   2.620  73.714  0.9597 -2.2519  1.4113
 5776TIP3   OH238818   2.521   1.473  78.461  0.7493  0.5602 -0.4062
 5776TIP3    H138819   2.592   1.518  78.507  0.1878  1.6246 -0.5729
 5776TIP3    H238820   2.503   1.396  78.516  0.9355  1.1448  0.5003
 5777TIP3   OH238821   0.531   1.057   9.869 -0.5972 -0.6227 -0.3785
 5777TIP3    H138822   0.499   0.967   9.867  0.1053 -0.9830  1.8497
 5777TIP3    H238823   0.496   1.093   9.951 -0.1293  0.8286 -0.7906
 5778TIP3   OH238824   0.005   0.698  86.151  0.3802 -0.5295 -0.2841
 5778TIP3    H138825   0.078   0.755  86.178 -1.2120  0.9846  1.0648
 5778TIP3    H238826  -0.033   0.744  86.076  0.2741 -0.8651 -0.4356
 5779TIP3   OH238827   1.708   0.191  11.203  0.5093  0.1836  0.0305
 5779TIP3    H138828   1.779   0.252  11.182  1.0220 -0.5060 -0.2927
 5779TIP3    H238829   1.746   0.104  11.187 -0.1455 -0.2294  0.6595
 5780TIP3   OH238830   1.625   1.149   3.675  0.2743  0.8353 -0.2520
 5780TIP3    H138831   1.652   1.130   3.585 -0.1790  0.3401 -0.2897
 5780TIP3    H238832   1.679   1.091   3.729 -1.1590 -0.6877 -0.3712
 5781TIP3   OH238833   1.061   0.668   8.640 -0.4479  0.1441 -0.2300
 5781TIP3    H138834   1.107   0.585   8.626  1.0966  0.8185  0.5420
 5781TIP3    H238835   1.124   0.735   8.613 -1.7715  1.0793 -1.1011
 5782TIP3   OH238836   1.148   1.813  76.755 -0.4731  0.2941 -0.0735
 5782TIP3    H138837   1.095   1.739  76.784 -0.4749 -0.2926 -1.5017
 5782TIP3    H238838   1.235   1.797  76.794  0.0907 -1.5382 -1.8843
 5783TIP3   OH238839   1.609   1.162  33.509 -0.3941 -0.4403  0.3993
 5783TIP3    H138840   1.588   1.069  33.512 -0.0383 -0.5082  0.9260
 5783TIP3    H238841   1.700   1.165  33.478  0.1225 -0.3606  1.8452
 5784TIP3   OH238842   1.842   1.582 111.985 -0.2781  0.5337  0.3510
 5784TIP3    H138843   1.909   1.593 111.917 -3.1504  1.3493 -2.6279
 5784TIP3    H238844   1.822   1.488 111.984 -0.4450  0.5690 -0.1377
 5785TIP3   OH238845   1.645   0.264  77.965  0.3474  0.5233 -0.8855
 5785TIP3    H138846   1.601   0.288  78.046  0.1656  0.5222 -0.9851
 5785TIP3    H238847   1.588   0.296  77.896  0.0568 -0.2779 -1.0215
 5786TIP3   OH238848   0.712   1.747  17.949  0.4011 -0.1517  0.1751
 5786TIP3    H138849   0.703   1.741  18.044  0.7854 -2.5367  0.1260
 5786TIP3    H238850   0.710   1.841  17.930 -1.2502  0.3215  2.3613
 5787TIP3   OH238851   2.210   1.612  82.298 -0.0143 -0.4846  0.1308
 5787TIP3    H138852   2.290   1.664  82.307 -0.0378  0.3158 -3.0693
 5787TIP3    H238853   2.241   1.523  82.282  0.1798 -0.4723  0.4334
 5788TIP3   OH238854   2.223   0.427  13.821  0.6213 -0.0289 -0.2981
 5788TIP3    H138855   2.278   0.398  13.894  0.0644 -0.2365  0.0457
 5788TIP3    H238856   2.168   0.352  13.801  0.9854 -0.0756 -1.1502
 5789TIP3   OH238857   1.133   1.026  22.574  0.3769 -0.0483 -0.0752
 5789TIP3    H138858   1.179   1.017  22.491 -0.5444  1.0096 -0.7280
 5789TIP3    H238859   1.196   1.071  22.632  0.7875 -0.2123 -0.3888
 5790TIP3   OH238860   2.091   0.200  32.598 -0.2995  0.0070 -0.4996
 5790TIP3    H138861   2.055   0.127  32.649  1.1640  0.1627  0.8522
 5790TIP3    H238862   2.109   0.163  32.512 -0.9107 -0.8399 -0.2734
 5791TIP3   OH238863   1.000   1.206 106.976  0.0186  0.4433 -0.2778
 5791TIP3    H138864   0.927   1.175 107.029  0.2239  0.7944  0.2085
 5791TIP3    H238865   1.049   1.126 106.954  1.3946  0.5084  2.2282
 5792TIP3   OH238866   0.274   1.087  86.630 -0.3974 -0.0577 -0.7661
 5792TIP3    H138867   0.321   1.140  86.566 -2.0432  0.8699 -1.2494
 5792TIP3    H238868   0.307   0.998  86.616  0.6046  0.4280 -1.6236
 5793TIP3   OH238869   2.479   2.347 105.287  0.2269  0.4254  0.6212
 5793TIP3    H138870   2.522   2.350 105.201 -0.1927  1.1508  0.4213
 5793TIP3    H238871   2.463   2.254 105.303 -0.9343  0.3586 -0.7295
 5794TIP3   OH238872   2.375   1.666  98.599  0.1504  0.0366 -0.1958
 5794TIP3    H138873   2.407   1.744  98.644 -0.8382 -0.0456  0.7112
 5794TIP3    H238874   2.294   1.644  98.645  0.7247 -1.8852 -0.0107
 5795TIP3   OH238875   2.348   2.286 100.361 -0.1027  0.2140  0.3366
 5795TIP3    H138876   2.257   2.259 100.350 -0.6542  1.8204  0.7185
 5795TIP3    H238877   2.371   2.258 100.449 -1.0204  1.8240  1.1495
 5796TIP3   OH238878   0.960   1.523  99.171  0.6152 -0.2075 -0.1614
 5796TIP3    H138879   1.046   1.537  99.132  1.1753  1.2124  1.4526
 5796TIP3    H238880   0.978   1.489  99.259 -0.4543 -0.0270  0.1495
 5797TIP3   OH238881   0.881   2.685  89.294 -0.3489  0.0759  0.3574
 5797TIP3    H138882   0.834   2.615  89.249 -0.1309  0.3510 -0.3184
 5797TIP3    H238883   0.971   2.654  89.300 -0.4192 -0.0475  0.7893
 5798TIP3   OH238884   2.573   1.052  30.501  0.2194 -0.1132 -0.2380
 5798TIP3    H138885   2.512   0.978  30.494  1.9900 -1.6091 -0.8366
 5798TIP3    H238886   2.572   1.091  30.414  0.1030 -0.1321 -0.2452
 5799TIP3   OH238887   1.628   0.693  21.586  0.1237 -0.0386 -0.0104
 5799TIP3    H138888   1.697   0.652  21.638 -0.8486 -0.7042  0.8110
 5799TIP3    H238889   1.583   0.619  21.544  0.8816  0.4797 -1.8380
 5800TIP3   OH238890   1.593   0.237  12.314 -0.5307  0.6377  0.0466
 5800TIP3    H138891   1.609   0.331  12.311 -0.1273  0.6209  1.1037
 5800TIP3    H238892   1.680   0.197  12.316 -0.6602  0.3437  1.3230
 5801TIP3   OH238893   0.032   1.425  89.898 -0.2307 -0.2744  0.2030
 5801TIP3    H138894   0.058   1.513  89.870  0.1847 -0.6182 -0.4963
 5801TIP3    H238895  -0.063   1.433  89.913 -0.5111 -0.0934 -1.4217
 5802TIP3   OH238896   1.490   0.145  81.323 -0.2074 -0.2049  0.2689
 5802TIP3    H138897   1.440   0.079  81.371 -1.9336  0.0937 -1.0435
 5802TIP3    H238898   1.429   0.218  81.310  0.2871 -0.1061 -1.9720
 5803TIP3   OH238899   0.442   2.312  79.334 -0.1331  0.3888  0.1151
 5803TIP3    H138900   0.479   2.319  79.422 -0.3335 -1.0200  0.3233
 5803TIP3    H238901   0.352   2.283  79.348 -0.4030  0.8644 -0.5404
 5804TIP3   OH238902   2.622   1.887  26.484  0.0169  0.7417  0.3570
 5804TIP3    H138903   2.543   1.933  26.513 -0.5480  0.4758 -0.6815
 5804TIP3    H238904   2.588   1.806  26.444  0.8900  0.1091  0.8657
 5805TIP3   OH238905   0.892   1.044 103.414  0.1116 -0.4583 -0.2149
 5805TIP3    H138906   0.985   1.045 103.438  0.4532 -1.0705 -1.4633
 5805TIP3    H238907   0.890   1.012 103.324 -1.0101  3.0014 -1.6084
 5806TIP3   OH238908   2.200   2.181  17.402 -0.4094 -0.2413  0.0255
 5806TIP3    H138909   2.176   2.190  17.310 -0.9095  0.2740  0.1994
 5806TIP3    H238910   2.292   2.208  17.405 -0.1091 -1.1478 -0.4612
 5807TIP3   OH238911   0.167   0.496  12.033 -0.2901 -0.3033  0.2880
 5807TIP3    H138912   0.121   0.415  12.057 -1.8373  0.2746 -0.5726
 5807TIP3    H238913   0.254   0.468  12.006 -0.0166 -1.4333  2.1758
 5808TIP3   OH238914   0.281   1.615  91.267 -0.1647 -0.6316 -0.0309
 5808TIP3    H138915   0.273   1.687  91.329 -1.1633  0.6929 -1.6213
 5808TIP3    H238916   0.229   1.544  91.306 -0.6721  0.1319  0.7020
 5809TIP3   OH238917   1.500   1.318  84.515 -0.3692 -0.2217 -0.1560
 5809TIP3    H138918   1.526   1.281  84.431  0.8989  0.7930 -0.2320
 5809TIP3    H238919   1.405   1.330  84.507 -0.4395 -1.1828 -1.0060
 5810TIP3   OH238920   1.267   0.680  34.708 -0.3661 -0.0724  0.5613
 5810TIP3    H138921   1.348   0.635  34.686  0.3184  1.7517 -0.8924
 5810TIP3    H238922   1.199   0.631  34.663  0.2772 -0.0978 -0.4040
 5811TIP3   OH238923   0.045   2.052  93.482 -0.7303 -0.1990  0.1911
 5811TIP3    H138924  -0.040   2.076  93.446  0.0805  1.8637 -0.4918
 5811TIP3    H238925   0.027   2.034  93.575 -1.8397  0.7849  0.1964
 5812TIP3   OH238926   2.009   2.224  31.949 -0.6081  0.4601 -0.5667
 5812TIP3    H138927   1.936   2.185  31.997  0.1775 -0.6546 -0.2263
 5812TIP3    H238928   2.041   2.153  31.893 -0.4211  1.2331 -1.4560
 5813TIP3   OH238929   0.875   0.182   2.843 -0.4413 -0.0147 -0.4387
 5813TIP3    H138930   0.958   0.154   2.803  0.0677  0.3679  0.3134
 5813TIP3    H238931   0.813   0.185   2.770 -0.0098 -1.1079 -0.8828
 5814TIP3   OH238932   1.045   0.094  34.400 -0.0222 -0.0573  0.8579
 5814TIP3    H138933   1.137   0.090  34.376  0.0156  0.3874  0.9135
 5814TIP3    H238934   1.004   0.020  34.356  0.0804  0.6170 -0.4121
 5815TIP3   OH238935   0.868   1.928 100.912 -0.1534  0.3502  0.0205
 5815TIP3    H138936   0.844   1.915 100.820 -1.1246 -0.7195  0.4027
 5815TIP3    H238937   0.942   1.868 100.926 -0.6862 -0.2722  0.2004
 5816TIP3   OH238938   0.391   1.625  22.409  0.0504 -0.3384 -0.2915
 5816TIP3    H138939   0.357   1.701  22.362 -1.1580 -0.2481  0.7030
 5816TIP3    H238940   0.468   1.598  22.357  0.6534  1.6786 -0.5505
 5817TIP3   OH238941   0.445   1.319  73.874 -0.2925 -0.4074  0.1777
 5817TIP3    H138942   0.409   1.267  73.946  1.2143 -0.8424  0.6360
 5817TIP3    H238943   0.537   1.296  73.871  0.3062  1.8022 -0.0201
 5818TIP3   OH238944   0.502   2.532 110.737 -0.4799  0.6228  0.3246
 5818TIP3    H138945   0.461   2.490 110.662  1.3162  0.5954 -0.7098
 5818TIP3    H238946   0.507   2.463 110.803  1.2021 -0.4957 -0.8711
 5819TIP3   OH238947   2.127   2.263 108.012 -0.3989  0.1832 -0.3509
 5819TIP3    H138948   2.091   2.175 108.010 -1.6936  0.6577  0.5305
 5819TIP3    H238949   2.222   2.251 108.008 -0.5865 -1.2061 -0.8564
 5820TIP3   OH238950   0.745   0.554   4.529 -0.0457  0.3044 -0.3916
 5820TIP3    H138951   0.830   0.557   4.486 -0.6888 -0.7906 -1.7895
 5820TIP3    H238952   0.766   0.540   4.622  1.2983  0.8828 -0.5825
 5821TIP3   OH238953   0.848   2.284  14.032  0.2339  0.2614  0.1022
 5821TIP3    H138954   0.794   2.207  14.014 -1.3775  1.3889 -0.1924
 5821TIP3    H238955   0.858   2.284  14.127 -1.5946  0.7999  0.3392
 5822TIP3   OH238956   1.013   1.745 104.285  0.3478  0.2828  0.1387
 5822TIP3    H138957   0.983   1.829 104.251  1.3403  0.2625 -0.8115
 5822TIP3    H238958   0.983   1.681 104.221  0.5287  0.0217  0.3179
 5823TIP3   OH238959   2.021   1.824  27.253  0.0541  0.3250 -0.1682
 5823TIP3    H138960   2.011   1.836  27.347 -0.3447  0.4106 -0.2171
 5823TIP3    H238961   2.049   1.910  27.220 -0.5082  0.4994 -0.2140
 5824TIP3   OH238962   1.196   1.825 112.092  0.0954  0.4827  0.3640
 5824TIP3    H138963   1.145   1.744 112.088  1.4058 -0.3170 -1.8439
 5824TIP3    H238964   1.130   1.895 112.092 -1.0381 -0.5253  1.4217
 5825TIP3   OH238965   0.937   1.529  85.294 -0.1320  0.1409  0.0652
 5825TIP3    H138966   0.850   1.531  85.255 -0.9640  2.4119  1.8223
 5825TIP3    H238967   0.990   1.584  85.236 -0.3120  0.1458 -0.0978
 5826TIP3   OH238968   2.572   2.564   0.995 -0.0569 -0.1662  0.2616
 5826TIP3    H138969   2.509   2.498   1.025 -0.5456 -0.0036 -0.3818
 5826TIP3    H238970   2.568   2.559   0.899 -0.7083  1.3562  0.1831
 5827TIP3   OH238971   2.356   0.723  80.652  0.9263  0.5347  0.2745
 5827TIP3    H138972   2.278   0.777  80.662  2.0681  2.2702  0.3055
 5827TIP3    H238973   2.411   0.745  80.728  1.7827 -0.0276 -0.1601
 5828TIP3   OH238974   2.206   1.765  30.767  0.4183  0.2262  0.0062
 5828TIP3    H138975   2.173   1.800  30.685 -0.2105 -0.1254  0.1035
 5828TIP3    H238976   2.152   1.807  30.834  0.2351 -0.2697  0.1720
 5829TIP3   OH238977   2.163   0.357  27.246 -0.4871 -0.2014 -0.0566
 5829TIP3    H138978   2.075   0.341  27.281  0.2377  1.4510  2.8535
 5829TIP3    H238979   2.165   0.450  27.226  0.7622 -0.0610  0.5917
 5830TIP3   OH238980   1.027   1.115   6.923  0.4062 -0.1708  0.1312
 5830TIP3    H138981   0.934   1.101   6.939  0.5522 -0.1394  1.0564
 5830TIP3    H238982   1.064   1.027   6.916  0.3862 -0.1899  0.2590
 5831TIP3   OH238983   0.600   1.627  68.578 -0.0185  0.1489  0.2307
 5831TIP3    H138984   0.693   1.606  68.565 -0.5403 -0.7416 -3.1963
 5831TIP3    H238985   0.600   1.703  68.635  2.7074 -0.8183  1.7086
 5832TIP3   OH238986   2.005   1.865   3.851  0.3271 -0.3890 -0.1287
 5832TIP3    H138987   2.006   1.909   3.766 -0.6597  0.6432  0.3694
 5832TIP3    H238988   2.095   1.869   3.882  0.3911  0.6567 -0.4167
 5833TIP3   OH238989   0.822   2.652  87.756  0.6300  0.1231 -0.2103
 5833TIP3    H138990   0.782   2.628  87.840  0.1173 -0.4095 -0.5942
 5833TIP3    H238991   0.899   2.704  87.780 -0.3031  1.2104  0.5500
 5834TIP3   OH238992   1.248   0.780  96.027 -0.7453 -0.0781 -0.2901
 5834TIP3    H138993   1.200   0.841  95.971 -1.1834 -0.9566 -0.8960
 5834TIP3    H238994   1.202   0.697  96.016 -0.0586 -0.5586  0.3879
 5835TIP3   OH238995   1.863   0.965 102.187 -0.2059 -0.4557 -0.0145
 5835TIP3    H138996   1.936   1.023 102.212 -0.7308  0.1654  0.0915
 5835TIP3    H238997   1.790   0.993 102.242 -0.4345 -1.3237  0.1415
 5836TIP3   OH238998   0.601   1.319   8.702 -0.2920  0.2746 -0.6768
 5836TIP3    H138999   0.613   1.225   8.710  0.6883  0.3113 -1.6180
 5836TIP3    H239000   0.647   1.343   8.622  0.8790  1.8045  0.3968
 5837TIP3   OH239001   0.279   1.892  91.976 -0.2390  0.1680 -0.3912
 5837TIP3    H139002   0.306   1.829  92.043 -1.0441 -0.2332 -0.4285
 5837TIP3    H239003   0.358   1.940  91.955  0.5526 -1.2522 -0.7921
 5838TIP3   OH239004   1.686   0.960  19.112 -0.1824 -0.2809 -0.0687
 5838TIP3    H139005   1.622   0.910  19.062 -0.1863  0.6089 -0.9788
 5838TIP3    H239006   1.770   0.942  19.070  0.2051 -1.4213  1.1050
 5839TIP3   OH239007   2.056   1.366  63.920 -0.0730  0.8199 -0.0495
 5839TIP3    H139008   2.080   1.292  63.976  0.9305  1.2418  0.0934
 5839TIP3    H239009   1.992   1.415  63.971  4.6520  4.3498  3.4063
 5840TIP3   OH239010   0.639   2.306  25.370 -0.0522 -0.2406  0.0289
 5840TIP3    H139011   0.562   2.264  25.408 -1.0016  1.7500  0.4210
 5840TIP3    H239012   0.670   2.365  25.438  1.1272 -0.1344 -0.5742
 5841TIP3   OH239013   1.193   1.652 108.705  0.3576 -0.3710 -0.0962
 5841TIP3    H139014   1.140   1.646 108.625  0.8238 -0.1009 -0.4254
 5841TIP3    H239015   1.212   1.746 108.714 -1.2064 -0.1385  1.3294
 5842TIP3   OH239016   0.287   0.245  85.721 -0.1894  0.3425  0.0968
 5842TIP3    H139017   0.307   0.248  85.627 -0.5907  0.7584  0.0254
 5842TIP3    H239018   0.257   0.334  85.742  1.6981  0.8134  1.0228
 5843TIP3   OH239019   1.274   0.345  95.185 -0.4469  0.0478  0.2929
 5843TIP3    H139020   1.261   0.322  95.093 -1.1537 -2.0582  0.8655
 5843TIP3    H239021   1.235   0.432  95.193  0.6466  0.7896 -1.6099
 5844TIP3   OH239022   2.126   1.755  75.623  0.3383 -0.3790  0.5424
 5844TIP3    H139023   2.154   1.724  75.537  1.5402 -1.4881  1.3112
 5844TIP3    H239024   2.032   1.734  75.627 -0.5810  2.4557 -1.6453
 5845TIP3   OH239025   0.819   0.024  18.686 -0.6723 -0.6363  0.5030
 5845TIP3    H139026   0.752  -0.001  18.622  0.0024 -0.8429 -0.1427
 5845TIP3    H239027   0.782   0.099  18.733 -0.2080  1.1943 -1.8596
 5846TIP3   OH239028   1.000   0.964  80.289  0.4787  0.2149 -0.4905
 5846TIP3    H139029   1.025   0.926  80.373 -0.3117 -1.5326 -0.9978
 5846TIP3    H239030   1.068   0.934  80.229  1.0096  1.4110 -0.5018
 5847TIP3   OH239031   0.536   1.083  27.188  0.7196  0.1819 -0.2375
 5847TIP3    H139032   0.570   1.036  27.112  0.8724  0.6529 -0.4631
 5847TIP3    H239033   0.520   1.172  27.156  0.3927  0.2747  0.1743
 5848TIP3   OH239034   1.798   1.436  91.073  0.4818 -0.0223  0.3123
 5848TIP3    H139035   1.806   1.411  91.165  0.0427  0.0633  0.3746
 5848TIP3    H239036   1.865   1.384  91.029  0.4848 -0.3007  0.6313
 5849TIP3   OH239037   0.660   1.424 106.584  0.3447 -0.5955  0.3463
 5849TIP3    H139038   0.636   1.515 106.568 -0.1433 -0.6473  0.7295
 5849TIP3    H239039   0.732   1.406 106.523 -1.9402 -1.0576 -2.4101
 5850TIP3   OH239040   0.251   2.463   6.707 -0.5904  0.3644  0.2585
 5850TIP3    H139041   0.319   2.402   6.733 -0.2563  1.0469  1.0370
 5850TIP3    H239042   0.183   2.408   6.667  0.5283 -0.2907 -0.8029
 5851TIP3   OH239043   2.010   0.175  12.547 -0.3467  0.3934 -0.2623
 5851TIP3    H139044   1.986   0.250  12.602 -1.4328 -0.7102  0.8281
 5851TIP3    H239045   1.943   0.174  12.479 -0.1426  0.5929 -0.4687
 5852TIP3   OH239046   0.526   0.098 100.396  0.3623 -0.2369  0.5918
 5852TIP3    H139047   0.442   0.054 100.382  0.8202 -0.8947 -0.1093
 5852TIP3    H239048   0.502   0.185 100.429 -0.6152 -0.1144 -0.4072
 5853TIP3   OH239049   0.496   1.792  32.227  0.4181  0.0013  0.0599
 5853TIP3    H139050   0.475   1.878  32.264  1.1332 -0.0933  0.6969
 5853TIP3    H239051   0.449   1.730  32.282  1.2550 -0.1209  0.6517
 5854TIP3   OH239052   1.748   0.253  98.132  0.2331  0.1426 -0.0701
 5854TIP3    H139053   1.832   0.215  98.107 -0.8847 -2.0276 -0.7963
 5854TIP3    H239054   1.693   0.242  98.054 -1.3635 -0.5587  1.0955
 5855TIP3   OH239055   2.120   0.184  82.757 -0.2590  0.3554  0.2307
 5855TIP3    H139056   2.186   0.116  82.741 -0.0789  0.5718  0.0567
 5855TIP3    H239057   2.037   0.138  82.751 -0.2024  0.4305 -1.3804
 5856TIP3   OH239058   2.508   1.170  16.306  0.4805  0.1777 -0.1737
 5856TIP3    H139059   2.464   1.228  16.368  1.1864  0.6271 -0.0791
 5856TIP3    H239060   2.507   1.218  16.224  0.3859 -0.0070 -0.2791
 5857TIP3   OH239061   1.143   2.599  73.728 -1.1123 -0.1511  0.2414
 5857TIP3    H139062   1.184   2.639  73.651  0.1856  0.5932  1.2873
 5857TIP3    H239063   1.059   2.565  73.695 -0.0414 -1.0292 -1.7851
 5858TIP3   OH239064   0.387   0.510 103.573 -0.1793 -0.4021  0.1601
 5858TIP3    H139065   0.364   0.491 103.482  2.2031 -0.8589 -0.4248
 5858TIP3    H239066   0.443   0.588 103.567 -1.8936  1.0107  1.5269
 5859TIP3   OH239067   1.525   1.743  37.416 -0.4197  0.2588 -0.4540
 5859TIP3    H139068   1.515   1.779  37.504  2.3394  1.5299 -0.5499
 5859TIP3    H239069   1.485   1.808  37.358  2.1670  2.0773 -0.4093
 5860TIP3   OH239070   0.144   0.946  23.802  0.6109  0.3549 -0.2703
 5860TIP3    H139071   0.150   1.038  23.829  0.4266  0.2565  0.0979
 5860TIP3    H239072   0.112   0.900  23.879  1.2824 -0.1178 -0.2650
 5861TIP3   OH239073   2.525   2.404  93.590 -0.3954  0.3549 -0.0326
 5861TIP3    H139074   2.575   2.417  93.509 -0.1354  1.4786  0.2908
 5861TIP3    H239075   2.455   2.343  93.565 -1.2459  1.8500 -1.5070
 5862TIP3   OH239076   0.935   1.140  92.679 -0.4736 -0.0730 -0.4347
 5862TIP3    H139077   0.978   1.100  92.603 -0.0071 -0.6087  0.0994
 5862TIP3    H239078   0.909   1.065  92.733  1.5412  0.3031  1.2145
 5863TIP3   OH239079   2.628   1.012 107.007 -0.1408 -0.0792 -0.0561
 5863TIP3    H139080   2.618   0.953 106.933 -1.3842 -1.0166  0.8280
 5863TIP3    H239081   2.693   0.970 107.063 -1.5057 -0.9757  0.8955
 5864TIP3   OH239082   2.464   0.467  39.607  0.2071  0.0338  0.2471
 5864TIP3    H139083   2.407   0.408  39.656 -2.2444  1.9631 -0.0760
 5864TIP3    H239084   2.502   0.525  39.674 -1.0301  0.9654  0.1708
 5865TIP3   OH239085   2.390   0.946  25.602 -0.1091  0.3720 -0.4835
 5865TIP3    H139086   2.387   0.970  25.509 -0.6184  1.5491 -0.1881
 5865TIP3    H239087   2.434   1.020  25.644  2.5872 -1.3148 -0.0951
 5866TIP3   OH239088   2.510   1.338   9.705 -0.3966 -0.0716  0.4886
 5866TIP3    H139089   2.577   1.287   9.658  0.6430 -0.8316  2.6409
 5866TIP3    H239090   2.477   1.400   9.640 -0.8771 -2.6648 -1.9691
 5867TIP3   OH239091   1.420   0.108 105.051  0.2732 -0.3612 -0.0447
 5867TIP3    H139092   1.411   0.203 105.058  0.3716 -0.3832  0.4131
 5867TIP3    H239093   1.357   0.083 104.983 -0.0211 -0.0111  0.0948
 5868TIP3   OH239094   0.589   1.848 103.943 -0.0098 -0.1750 -0.3902
 5868TIP3    H139095   0.646   1.811 103.875 -0.2382  1.7370 -1.7114
 5868TIP3    H239096   0.513   1.790 103.943  0.1531 -0.4261 -1.5460
 5869TIP3   OH239097   0.543   1.620  35.799 -0.4490  0.2212 -0.0291
 5869TIP3    H139098   0.459   1.663  35.780  0.7548  1.6967 -2.5163
 5869TIP3    H239099   0.519   1.530  35.822 -2.6986  0.4532 -1.1845
 5870TIP3   OH239100   2.491   1.061  34.284 -0.2158  0.3365  0.0973
 5870TIP3    H139101   2.523   1.150  34.274 -1.8699  1.1474  1.4258
 5870TIP3    H239102   2.470   1.054  34.378 -2.5760 -0.5203 -0.4155
 5871TIP3   OH239103   1.697   0.161  94.396 -0.1565  0.5604  0.2589
 5871TIP3    H139104   1.691   0.181  94.303  0.4705  0.4084  0.1881
 5871TIP3    H239105   1.755   0.086  94.402  0.0688  0.7700  0.8025
 5872TIP3   OH239106   1.204   2.333  26.966  0.0807 -0.0620  0.3066
 5872TIP3    H139107   1.290   2.309  27.001  0.4170 -0.4202 -0.7208
 5872TIP3    H239108   1.202   2.293  26.879 -0.3973  1.4885 -0.4321
 5873TIP3   OH239109   0.830   0.028  79.900 -0.0752  0.2151 -0.2164
 5873TIP3    H139110   0.818   0.122  79.910 -1.3791 -0.0607  1.0422
 5873TIP3    H239111   0.908   0.008  79.952 -1.0857  0.2942  1.3816
 5874TIP3   OH239112   2.553   1.813  15.386 -0.1729 -0.1082  0.4129
 5874TIP3    H139113   2.593   1.881  15.440 -1.5733  1.1381 -0.0399
 5874TIP3    H239114   2.463   1.809  15.416  0.0185 -2.2401  0.8334
 5875TIP3   OH239115   2.572   2.314   2.784  0.0513  0.7124  0.7092
 5875TIP3    H139116   2.638   2.383   2.793  1.2997 -0.2617 -0.3848
 5875TIP3    H239117   2.616   2.246   2.732 -1.5730 -0.3261  0.6137
 5876TIP3   OH239118   2.257   2.002  99.703 -0.7255 -0.4592 -0.1407
 5876TIP3    H139119   2.334   2.044  99.741 -1.6856  0.7546  0.5303
 5876TIP3    H239120   2.247   1.921  99.752  0.6100 -1.0893 -0.8245
 5877TIP3   OH239121   1.747   0.035  84.439 -0.5758 -0.5112 -0.4035
 5877TIP3    H139122   1.726   0.045  84.532 -1.8532 -0.7977 -0.6410
 5877TIP3    H239123   1.670   0.069  84.393  1.3735  2.9178 -1.4762
 5878TIP3   OH239124   1.761   0.878 109.808 -0.1111  0.0596  0.0611
 5878TIP3    H139125   1.841   0.888 109.757  0.3132 -1.5352  0.3377
 5878TIP3    H239126   1.720   0.964 109.807  2.0997  1.1814  0.7505
 5879TIP3   OH239127   0.834   1.087  36.750 -0.0024  0.1748 -0.5749
 5879TIP3    H139128   0.866   1.078  36.840 -1.7615 -0.6012  0.0077
 5879TIP3    H239129   0.913   1.086  36.696  0.9629 -2.0243  0.7501
 5880TIP3   OH239130   0.197   0.696  30.565  0.3178  0.2422 -0.3014
 5880TIP3    H139131   0.193   0.791  30.577  1.7009  0.2139  0.5387
 5880TIP3    H239132   0.268   0.683  30.501  1.1710 -0.2898  0.7257
 5881TIP3   OH239133   0.101   2.586  25.901 -0.1738  0.1027  0.0313
 5881TIP3    H139134   0.029   2.643  25.876  0.8623  1.1648 -0.6024
 5881TIP3    H239135   0.179   2.640  25.894  0.7496 -1.1413  0.2830
 5882TIP3   OH239136   2.137   2.547   1.392 -0.2962  0.2087 -0.1596
 5882TIP3    H139137   2.230   2.525   1.396 -0.2566  0.3984 -0.0396
 5882TIP3    H239138   2.092   2.462   1.395 -0.1212  0.0985 -0.5201
 5883TIP3   OH239139   1.614   0.300  28.966  0.3246  0.7844 -0.0837
 5883TIP3    H139140   1.694   0.316  28.916  0.8288  1.4795  0.9112
 5883TIP3    H239141   1.643   0.244  29.039 -0.6245 -1.2439 -1.2018
 5884TIP3   OH239142   0.478   2.178  12.857 -0.3357 -0.2720  0.1347
 5884TIP3    H139143   0.515   2.140  12.777  0.8384 -0.8226  0.9086
 5884TIP3    H239144   0.431   2.105  12.897 -3.0316  0.5986 -1.2116
 5885TIP3   OH239145   0.779   1.976 103.039  0.0173 -0.4004  0.6336
 5885TIP3    H139146   0.748   1.932 103.117 -0.0863  0.4135  1.0648
 5885TIP3    H239147   0.720   1.948 102.969 -0.4017 -0.4682  1.0188
 5886TIP3   OH239148   0.535   1.672  83.464  0.6953 -0.3484  0.0740
 5886TIP3    H139149   0.509   1.678  83.372  0.2774 -3.7044 -0.1642
 5886TIP3    H239150   0.452   1.675  83.512  0.8907  1.0661  0.3750
 5887TIP3   OH239151   0.353   2.494  83.409  0.2964 -0.5188  1.2511
 5887TIP3    H139152   0.298   2.488  83.331 -2.3787  0.0230  2.9727
 5887TIP3    H239153   0.437   2.459  83.381 -0.5875 -0.5242 -1.8067
 5888TIP3   OH239154   1.547   2.154 108.433 -0.0361 -0.0937 -0.1833
 5888TIP3    H139155   1.625   2.124 108.480 -0.6682  2.0384  2.4679
 5888TIP3    H239156   1.474   2.114 108.481 -0.6920  1.7855  0.4480
 5889TIP3   OH239157   2.295   0.360  83.796 -0.1830 -0.3229  0.1937
 5889TIP3    H139158   2.384   0.388  83.777 -0.1977 -0.0517  0.5202
 5889TIP3    H239159   2.254   0.436  83.837 -0.7043 -0.2891 -0.3810
 5890TIP3   OH239160   1.969   1.511  18.070 -0.1395  0.0854 -0.1131
 5890TIP3    H139161   1.993   1.538  18.159 -0.9347 -0.2165  0.2043
 5890TIP3    H239162   1.957   1.417  18.077  0.1082  0.0141 -0.6249
 5891TIP3   OH239163   0.883   2.582  33.623 -0.7129  0.0444 -0.2901
 5891TIP3    H139164   0.838   2.646  33.678 -2.4142 -0.3784 -1.1237
 5891TIP3    H239165   0.871   2.498  33.668 -1.1104 -0.1269 -0.7016
 5892TIP3   OH239166   0.790   0.614  77.528  0.0040 -0.5818 -0.2383
 5892TIP3    H139167   0.717   0.653  77.480 -0.7766 -0.7083  0.7950
 5892TIP3    H239168   0.755   0.599  77.616  0.8935 -1.7953 -0.0647
 5893TIP3   OH239169   1.383   1.960  95.708 -0.0541  0.0327  0.6776
 5893TIP3    H139170   1.344   2.047  95.698 -1.2661 -0.5472  0.0836
 5893TIP3    H239171   1.341   1.908  95.639  1.2633 -0.8214  0.4957
 5894TIP3   OH239172   0.564   1.565  13.910 -0.2200 -0.0784 -0.1911
 5894TIP3    H139173   0.619   1.642  13.922  0.4423 -0.5976  0.1223
 5894TIP3    H239174   0.491   1.578  13.971  0.2691 -0.0516  0.3924
 5895TIP3   OH239175   1.652   0.302   7.747  0.5545 -0.5738  0.2667
 5895TIP3    H139176   1.690   0.236   7.805  0.4322 -0.8141  0.0737
 5895TIP3    H239177   1.705   0.299   7.668  1.4153  0.5294  0.7796
 5896TIP3   OH239178   0.066   1.167  80.283 -0.3280  0.2239  0.0794
 5896TIP3    H139179   0.050   1.085  80.236  0.1095  0.7676 -1.0481
 5896TIP3    H239180  -0.020   1.194  80.315 -0.6511 -0.0897 -0.5222
 5897TIP3   OH239181   0.337   1.339  13.530  0.3834 -0.3253  0.0511
 5897TIP3    H139182   0.312   1.422  13.570 -1.1179 -0.4249 -0.6117
 5897TIP3    H239183   0.372   1.364  13.445 -0.2746 -0.3715 -0.2392
 5898TIP3   OH239184   0.584   0.204  26.171  0.1051  0.0875 -0.1953
 5898TIP3    H139185   0.554   0.169  26.255  1.6694 -0.2489  0.2599
 5898TIP3    H239186   0.598   0.127  26.117  1.1477  0.1599 -0.0373
 5899TIP3   OH239187   1.451   0.898  93.621  0.2675  0.5946  0.2059
 5899TIP3    H139188   1.460   0.805  93.600 -0.5775  0.9143 -1.8324
 5899TIP3    H239189   1.518   0.942  93.567 -1.0925  1.3512 -0.9548
 5900TIP3   OH239190   0.391   1.522  28.105 -0.0582  0.2891 -0.6089
 5900TIP3    H139191   0.478   1.483  28.095  0.2249  0.4407  0.9089
 5900TIP3    H239192   0.408   1.615  28.121 -0.4904  0.3174 -0.2848
 5901TIP3   OH239193   1.816   2.253  19.655  0.3397  0.8814  0.3985
 5901TIP3    H139194   1.741   2.200  19.628  1.0511 -0.2854  0.6574
 5901TIP3    H239195   1.777   2.324  19.705 -0.5922  0.1716  0.7178
 5902TIP3   OH239196   2.507   0.535 109.679  0.4820  0.2727  0.0919
 5902TIP3    H139197   2.481   0.621 109.712 -0.4435  0.9524 -2.2039
 5902TIP3    H239198   2.583   0.510 109.733  0.7449  2.4880  0.8403
 5903TIP3   OH239199   0.133   0.404   3.094 -0.2731  0.5386  0.1844
 5903TIP3    H139200   0.074   0.330   3.078 -0.1145  0.1843  1.2043
 5903TIP3    H239201   0.217   0.363   3.118  0.1936  1.0453 -0.5251
 5904TIP3   OH239202   1.933   0.275  17.826  0.2375 -0.6414 -0.0884
 5904TIP3    H139203   1.965   0.365  17.818 -1.8596  0.2514  0.6415
 5904TIP3    H239204   1.946   0.237  17.739  1.9043  0.0612 -0.1848
 5905TIP3   OH239205   0.926   0.771  10.630  0.3859 -0.0468  0.0770
 5905TIP3    H139206   1.010   0.808  10.658  0.5372 -1.0561  1.0310
 5905TIP3    H239207   0.872   0.847  10.612  0.8452  0.6661  1.4975
 5906TIP3   OH239208   1.258   2.569  94.127  0.3552 -0.0858  0.2708
 5906TIP3    H139209   1.349   2.577  94.156  0.1103  0.1914  0.9751
 5906TIP3    H239210   1.206   2.582  94.207 -0.2755 -1.3506  0.0860
 5907TIP3   OH239211   0.465   1.745  89.026  0.0568  0.0589 -0.3761
 5907TIP3    H139212   0.534   1.722  88.964  1.6842 -0.7807  1.6024
 5907TIP3    H239213   0.425   1.824  88.990  1.9132  0.4538 -1.7182
 5908TIP3   OH239214   2.076   2.417  15.700 -0.2635  0.5774  0.2417
 5908TIP3    H139215   2.055   2.396  15.791 -0.3427  0.3123  0.1655
 5908TIP3    H239216   2.060   2.335  15.653  2.3684 -0.1157  0.3998
 5909TIP3   OH239217   0.307   1.335   1.045  0.1060  0.4776 -0.4526
 5909TIP3    H139218   0.383   1.328   1.103 -0.1165 -0.1595 -0.2300
 5909TIP3    H239219   0.265   1.249   1.050 -1.6889  1.3664  0.9112
 5910TIP3   OH239220   2.299   0.487  26.902  0.1479 -0.2497 -0.1187
 5910TIP3    H139221   2.389   0.484  26.872  0.0480 -0.0952 -0.4280
 5910TIP3    H239222   2.250   0.439  26.836 -0.0308 -0.1377 -0.0677
 5911TIP3   OH239223   0.825   1.008  23.155  0.0323  0.7110 -0.0296
 5911TIP3    H139224   0.891   0.981  23.219  0.6050  1.1012 -0.4341
 5911TIP3    H239225   0.858   1.092  23.121  0.2944  0.0169 -1.5798
 5912TIP3   OH239226   1.131   1.432  31.996  0.1404 -0.2743  0.6541
 5912TIP3    H139227   1.217   1.455  31.961  0.6059 -0.4948  1.6196
 5912TIP3    H239228   1.140   1.340  32.022 -1.2079 -1.1671 -1.6923
 5913TIP3   OH239229   0.260   0.072  51.170 -0.5470  0.3024  1.0157
 5913TIP3    H139230   0.346   0.060  51.210 -1.0438  1.5849  2.5714
 5913TIP3    H239231   0.261   0.162  51.136 -1.0527  0.1154  0.4866
 5914TIP3   OH239232   0.612   0.314 109.170  0.1409 -0.0286  0.1930
 5914TIP3    H139233   0.686   0.351 109.121  1.4343 -1.3306  1.0959
 5914TIP3    H239234   0.555   0.389 109.187  0.6503  0.8008 -1.5434
 5915TIP3   OH239235   0.739   1.790   9.691  0.2710 -0.0432  0.4709
 5915TIP3    H139236   0.658   1.779   9.742  0.0303  0.7062  0.2623
 5915TIP3    H239237   0.766   1.701   9.671 -0.3696 -0.3138  0.7664
 5916TIP3   OH239238   2.169   0.782   4.277  0.0314 -0.7436  0.4662
 5916TIP3    H139239   2.233   0.711   4.270  1.7901  0.7901  0.2181
 5916TIP3    H239240   2.156   0.811   4.186  2.6485  1.9657  0.8022
 5917TIP3   OH239241   1.063   1.913  37.982  0.0341 -0.7285  0.2007
 5917TIP3    H139242   0.987   1.933  37.928 -0.8715 -2.0838  0.9091
 5917TIP3    H239243   1.031   1.849  38.046  1.7357 -1.2240  0.6122
 5918TIP3   OH239244   1.866   2.352 103.481  0.0211 -0.1308  0.4790
 5918TIP3    H139245   1.876   2.445 103.462 -0.2670 -0.0924  0.5251
 5918TIP3    H239246   1.816   2.349 103.562 -1.5632 -0.3541 -0.4779
 5919TIP3   OH239247   1.741   2.321 110.730 -0.0457 -0.0968  0.3526
 5919TIP3    H139248   1.790   2.331 110.812  1.6024  0.7313 -0.6732
 5919TIP3    H239249   1.793   2.260 110.679 -0.9748 -0.4814 -0.1512
 5920TIP3   OH239250   0.738   1.723  16.172  0.3652 -0.5117  0.7759
 5920TIP3    H139251   0.666   1.661  16.164  0.0802  0.0048 -1.3059
 5920TIP3    H239252   0.804   1.691  16.110  0.5253  0.8180  0.2289
 5921TIP3   OH239253   1.355   2.013  27.139  0.1176 -0.2073  0.3767
 5921TIP3    H139254   1.280   2.071  27.150 -0.3351 -0.7073  0.0280
 5921TIP3    H239255   1.392   2.004  27.227  1.6032  2.3933  0.1218
 5922TIP3   OH239256   2.404   0.256  83.388 -0.1607 -0.2053  0.0456
 5922TIP3    H139257   2.355   0.292  83.314  0.7016  2.1120  0.5171
 5922TIP3    H239258   2.339   0.244  83.457 -0.8726 -1.8767 -0.8388
 5923TIP3   OH239259   1.714   0.259 109.493 -0.1659  0.1305  0.7618
 5923TIP3    H139260   1.647   0.305 109.543  0.8451  1.9039  0.5673
 5923TIP3    H239261   1.696   0.282 109.402  0.8554  0.8823  0.7309
 5924TIP3   OH239262   2.251   0.813  97.386  0.3749  0.4169 -0.7058
 5924TIP3    H139263   2.190   0.777  97.450  0.7887  0.2095 -0.4332
 5924TIP3    H239264   2.212   0.790  97.301  0.1880  0.0903 -0.5370
 5925TIP3   OH239265   2.684   0.737  31.678 -0.7556  0.0554 -0.2655
 5925TIP3    H139266   2.642   0.814  31.638  1.2684  0.7675 -1.1664
 5925TIP3    H239267   2.773   0.766  31.697 -0.1941 -1.8382  0.1905
 5926TIP3   OH239268   1.489   1.198 106.051 -0.2400  0.3292  0.3002
 5926TIP3    H139269   1.582   1.175 106.060 -0.5118 -0.6680  0.7632
 5926TIP3    H239270   1.488   1.277 105.997  0.8255 -0.1690 -0.4755
 5927TIP3   OH239271   2.177   1.499   8.796 -0.5677  0.2753 -0.4478
 5927TIP3    H139272   2.141   1.411   8.784  0.4590 -0.1364 -0.6832
 5927TIP3    H239273   2.265   1.484   8.831  0.6213  1.0675 -2.8343
 5928TIP3   OH239274   2.178   2.486  16.136  0.3558  0.3407 -0.7124
 5928TIP3    H139275   2.241   2.496  16.066  1.5150 -0.1224  0.2297
 5928TIP3    H239276   2.222   2.432  16.201 -0.8359  0.4022  0.1922
 5929TIP3   OH239277   0.865   2.258  28.599 -0.0842  0.4285 -0.1645
 5929TIP3    H139278   0.902   2.242  28.512 -0.3938  2.7397 -0.7742
 5929TIP3    H239279   0.901   2.342  28.625 -2.1737  1.1087  0.7209
 5930TIP3   OH239280   1.237   1.613  17.187 -0.5330  0.0954 -0.0624
 5930TIP3    H139281   1.266   1.533  17.232 -1.9499 -0.8969 -0.8327
 5930TIP3    H239282   1.170   1.649  17.245  0.3477  0.9470  0.4533
 5931TIP3   OH239283   0.591   0.060  17.098 -0.5585 -0.5766 -0.2526
 5931TIP3    H139284   0.666   0.052  17.040  0.2528 -0.3998  0.7476
 5931TIP3    H239285   0.554   0.145  17.077 -1.3486 -1.2393 -1.7252
 5932TIP3   OH239286   1.099   0.662  19.493 -0.2814 -0.0472  0.3667
 5932TIP3    H139287   1.080   0.579  19.537 -0.4088 -0.1041  0.2093
 5932TIP3    H239288   1.186   0.686  19.523 -0.2860 -0.1872  0.4932
 5933TIP3   OH239289   0.867   2.450  34.605  0.1054 -0.3200  0.4264
 5933TIP3    H139290   0.918   2.523  34.641 -0.0975 -0.4901  1.0625
 5933TIP3    H239291   0.932   2.397  34.558  0.0047  1.1541 -1.5408
 5934TIP3   OH239292   0.321   1.087  99.760  0.2943  0.3564 -0.1830
 5934TIP3    H139293   0.339   1.031  99.684  0.9152  1.1063 -0.5992
 5934TIP3    H239294   0.247   1.045  99.804  1.0545 -1.0757 -0.2090
 5935TIP3   OH239295   0.741   2.475 109.548  0.5131  0.0547  0.1282
 5935TIP3    H139296   0.739   2.569 109.568 -0.7543  0.0016  0.2769
 5935TIP3    H239297   0.783   2.435 109.625  4.9228  0.8428 -1.5553
 5936TIP3   OH239298   1.841   1.867  88.025  0.6192 -0.2549 -0.4169
 5936TIP3    H139299   1.893   1.844  88.101  0.4069 -0.9706 -0.4767
 5936TIP3    H239300   1.874   1.810  87.955  0.6099  0.1813 -0.7837
 5937TIP3   OH239301   1.684   1.712  89.774 -0.0307 -0.0551 -0.2931
 5937TIP3    H139302   1.664   1.629  89.817 -1.7217 -0.0505 -0.9857
 5937TIP3    H239303   1.747   1.689  89.706  1.8562 -0.2315  1.4203
 5938TIP3   OH239304   2.073   2.606   0.022 -0.3242 -0.0280  0.1005
 5938TIP3    H139305   2.058   2.698   0.042 -0.0988 -0.1234  0.7050
 5938TIP3    H239306   2.016   2.588  -0.053 -2.9617 -0.2841  2.0507
 5939TIP3   OH239307   2.045   1.157  73.437  0.3816 -0.0512 -0.4668
 5939TIP3    H139308   1.988   1.098  73.389  1.3274 -0.7787 -0.7431
 5939TIP3    H239309   2.008   1.244  73.423  1.6341  0.0782 -4.1871
 5940TIP3   OH239310   2.277   0.765  27.366 -0.2480  0.3348  0.4589
 5940TIP3    H139311   2.323   0.692  27.324 -1.0769 -1.0945  1.9269
 5940TIP3    H239312   2.342   0.806  27.422 -0.1702 -0.2877  0.8329
 5941TIP3   OH239313   2.263   1.721  76.146 -0.3792  0.4494 -0.5275
 5941TIP3    H139314   2.179   1.686  76.115 -1.2996  3.2771 -1.5486
 5941TIP3    H239315   2.328   1.683  76.086 -1.0015 -1.0988 -0.2714
 5942TIP3   OH239316   2.245   0.299 101.559 -0.4620 -0.2101 -0.6715
 5942TIP3    H139317   2.177   0.349 101.514 -0.6276 -0.5037 -0.7542
 5942TIP3    H239318   2.284   0.360 101.621 -1.5589 -0.3438  0.1803
 5943TIP3   OH239319   2.458   1.198  14.376 -0.1714 -0.2349  0.2056
 5943TIP3    H139320   2.366   1.216  14.362 -0.2305 -0.9937 -0.4565
 5943TIP3    H239321   2.483   1.139  14.305  1.1723  1.0603 -0.4593
 5944TIP3   OH239322   0.920   0.813  98.464 -0.1341 -0.0200  0.2139
 5944TIP3    H139323   0.834   0.793  98.426  0.0359 -0.4869  0.0721
 5944TIP3    H239324   0.900   0.838  98.554 -0.4538  0.2343  0.0778
 5945TIP3   OH239325   1.206   1.537 106.272  0.4592 -0.0061 -0.0132
 5945TIP3    H139326   1.174   1.534 106.182  0.3521  0.1516  0.0184
 5945TIP3    H239327   1.256   1.456 106.283  1.4966  0.5393 -0.6026
 5946TIP3   OH239328   0.061   2.640  75.675  0.0439 -0.1389 -0.0345
 5946TIP3    H139329  -0.024   2.598  75.688  0.0011  0.0187  0.2074
 5946TIP3    H239330   0.077   2.634  75.581  0.2267 -1.0686  0.0390
 5947TIP3   OH239331   1.072   0.863  38.006 -0.1201 -0.2147  0.5282
 5947TIP3    H139332   1.089   0.806  37.930 -2.2016 -0.2436  0.0292
 5947TIP3    H239333   1.009   0.927  37.974  0.1426  0.7325  1.8375
 5948TIP3   OH239334   2.016   2.193  37.107  0.3246  0.1892 -0.2159
 5948TIP3    H139335   2.002   2.163  37.197  2.9574  0.6143  0.4135
 5948TIP3    H239336   1.927   2.208  37.073 -0.7569  0.8394  2.5643
 5949TIP3   OH239337   2.129   2.159  92.573 -0.4551  0.0479  0.0652
 5949TIP3    H139338   2.067   2.205  92.516 -0.0937  0.3937 -0.0578
 5949TIP3    H239339   2.131   2.070  92.539  0.1344  0.3744 -0.7974
 5950TIP3   OH239340   0.461   0.491 106.652  0.0939  0.4366  0.2656
 5950TIP3    H139341   0.414   0.572 106.667 -0.6035  0.1516 -0.3514
 5950TIP3    H239342   0.498   0.500 106.564  0.3971  0.2661  0.3776
 5951TIP3   OH239343   0.687   0.567  69.547  0.1246  0.2900  0.0907
 5951TIP3    H139344   0.727   0.543  69.630 -0.9927  1.2454  0.9434
 5951TIP3    H239345   0.593   0.569  69.566 -0.1956 -0.0002 -1.3473
 5952TIP3   OH239346   1.571   0.021   5.119  0.1323 -0.5656 -0.0888
 5952TIP3    H139347   1.626   0.026   5.041 -1.2060  2.1961 -1.0111
 5952TIP3    H239348   1.484   0.002   5.085 -0.0083 -2.1902  1.0827
 5953TIP3   OH239349   0.341   2.592  31.375  0.0639 -0.2465  0.7069
 5953TIP3    H139350   0.371   2.506  31.403 -0.0151 -0.1161  1.1927
 5953TIP3    H239351   0.321   2.639  31.456 -2.1875 -0.5805  0.3951
 5954TIP3   OH239352   0.155   0.643   6.432  0.2176  0.0133 -0.2479
 5954TIP3    H139353   0.108   0.677   6.355  1.2072  0.7574 -0.5547
 5954TIP3    H239354   0.236   0.606   6.396  1.0501  1.0614  0.4844
 5955TIP3   OH239355   2.254   0.452  23.614 -0.2955  0.0850 -0.3050
 5955TIP3    H139356   2.182   0.396  23.586 -0.3972  0.3087 -0.4894
 5955TIP3    H239357   2.218   0.503  23.687 -0.0515 -0.4489  0.2048
 5956TIP3   OH239358   0.659   0.477  68.465 -0.8465  0.6321 -0.8544
 5956TIP3    H139359   0.727   0.496  68.400 -0.4463 -1.0265 -0.9660
 5956TIP3    H239360   0.658   0.381  68.471 -0.4193  0.7345  2.0839
 5957TIP3   OH239361   1.800   0.815  94.713 -0.1898  0.5745 -0.0161
 5957TIP3    H139362   1.829   0.741  94.659 -1.1049 -0.7443  1.2399
 5957TIP3    H239363   1.750   0.870  94.652  0.2714  0.0369 -0.9140
 5958TIP3   OH239364   1.586   2.186  20.463 -0.2467  0.0274  0.2608
 5958TIP3    H139365   1.516   2.152  20.408 -0.5113 -0.5866  0.9538
 5958TIP3    H239366   1.548   2.262  20.507 -0.1026  0.3887 -0.2299
 5959TIP3   OH239367   1.285   2.667  24.484  0.0453 -0.0173  0.0078
 5959TIP3    H139368   1.285   2.746  24.539  0.2673  0.8356 -1.1662
 5959TIP3    H239369   1.363   2.619  24.512  0.5331  0.7389 -0.0210
 5960TIP3   OH239370   2.469   2.470 107.940 -0.6330  0.2266  0.2289
 5960TIP3    H139371   2.479   2.461 108.035  1.7016  1.1913  0.1416
 5960TIP3    H239372   2.462   2.380 107.908 -0.3253 -0.1663  1.2318
 5961TIP3   OH239373   0.052   1.037  90.949 -0.0120 -0.4542 -0.0730
 5961TIP3    H139374   0.129   0.987  90.922 -1.6013 -1.5497 -2.9980
 5961TIP3    H239375  -0.012   0.971  90.974 -0.7488  0.3207  0.1390
 5962TIP3   OH239376   1.886   2.647  94.431  0.2854 -0.1569  0.2617
 5962TIP3    H139377   1.909   2.695  94.510 -0.1151 -0.8514  0.8019
 5962TIP3    H239378   1.966   2.601  94.406  0.6300  0.6579 -0.1785
 5963TIP3   OH239379   2.160   1.055  36.569 -0.2261 -1.1495  0.5056
 5963TIP3    H139380   2.074   1.042  36.527  0.3799 -1.6333 -0.6417
 5963TIP3    H239381   2.168   0.983  36.630 -0.1706 -1.7699 -0.2170
 5964TIP3   OH239382   1.953   0.701  33.067 -0.1111  0.3723  0.2674
 5964TIP3    H139383   1.955   0.675  32.975  0.5618  0.0557  0.3651
 5964TIP3    H239384   1.873   0.661  33.101  0.5092 -0.9568  0.2214
 5965TIP3   OH239385   0.607   1.616  30.186 -0.3151  0.6759 -0.3530
 5965TIP3    H139386   0.669   1.644  30.253 -0.7968  0.4828  0.1858
 5965TIP3    H239387   0.654   1.549  30.136 -0.3608 -0.0659  0.5693
 5966TIP3   OH239388   1.824   1.939  95.270 -0.0044  0.0363  0.2902
 5966TIP3    H139389   1.782   1.858  95.299 -2.4738  1.0530 -0.2577
 5966TIP3    H239390   1.822   1.997  95.346  1.0537 -0.1046  0.4463
 5967TIP3   OH239391   2.232   0.734  78.886 -0.3080 -0.0903 -0.2415
 5967TIP3    H139392   2.268   0.686  78.961  1.5993  0.5296 -0.6971
 5967TIP3    H239393   2.252   0.680  78.811 -0.8550  0.0036 -0.4586
 5968TIP3   OH239394   1.560   0.982   9.925  0.4007  0.0830 -0.2132
 5968TIP3    H139395   1.549   1.054   9.864 -2.1793 -0.0837 -0.0500
 5968TIP3    H239396   1.601   1.021  10.002  1.2228  0.8420 -1.0183
 5969TIP3   OH239397   0.779   0.683  12.767 -0.1859  0.1299  0.1827
 5969TIP3    H139398   0.807   0.755  12.824  1.4060 -0.3307  0.0362
 5969TIP3    H239399   0.691   0.707  12.740  0.3973  2.1743 -0.0829
 5970TIP3   OH239400   0.913   1.698  90.954  0.0630  0.3398 -0.0814
 5970TIP3    H139401   0.941   1.700  90.863 -0.8894 -1.4017 -0.4579
 5970TIP3    H239402   0.932   1.786  90.987  2.1267  0.4590 -1.4054
 5971TIP3   OH239403   0.391   2.179  87.484 -0.9840  0.2052  0.5210
 5971TIP3    H139404   0.410   2.265  87.520 -2.8960  0.1320  1.8855
 5971TIP3    H239405   0.369   2.195  87.392  1.4209  0.7531 -0.0090
 5972TIP3   OH239406   2.141   0.989  23.558  0.3207  0.1445 -0.6289
 5972TIP3    H139407   2.199   0.914  23.543 -0.8843 -0.8550 -0.4444
 5972TIP3    H239408   2.064   0.951  23.600  0.1662  1.6615  0.5413
 5973TIP3   OH239409   1.170   0.135  98.748  0.1599 -0.5728  0.4518
 5973TIP3    H139410   1.215   0.154  98.830  0.3700 -0.2283  0.2585
 5973TIP3    H239411   1.084   0.103  98.775 -0.3234  0.9200  0.8033
 5974TIP3   OH239412   0.209   1.939  68.691  0.6571  0.5740 -0.0655
 5974TIP3    H139413   0.174   1.877  68.755  0.5621 -1.7283 -2.2291
 5974TIP3    H239414   0.290   1.971  68.731 -0.5220  0.9987  2.1607
 5975TIP3   OH239415   0.582   1.463  83.158 -0.0768  0.3354 -0.1873
 5975TIP3    H139416   0.600   1.411  83.079  1.3397  0.3268  0.1215
 5975TIP3    H239417   0.516   1.527  83.129  0.2882  0.2259 -1.3376
 5976TIP3   OH239418   0.673   2.307  35.614  0.1461 -0.6569  0.6612
 5976TIP3    H139419   0.704   2.376  35.555  0.9898 -0.8222  0.9059
 5976TIP3    H239420   0.647   2.236  35.556 -0.6240 -0.1941  0.4110
 5977TIP3   OH239421   2.405   2.171  67.886 -0.7137 -0.1062 -0.1235
 5977TIP3    H139422   2.343   2.112  67.844  0.1301 -1.4757  0.4952
 5977TIP3    H239423   2.477   2.179  67.823  0.0606 -1.3101  0.5785
 5978TIP3   OH239424   2.145   1.640  27.489 -0.4086  0.2210  0.2641
 5978TIP3    H139425   2.122   1.732  27.506 -0.2724  0.2203  0.4626
 5978TIP3    H239426   2.063   1.599  27.463 -0.0605  0.8987 -2.0993
 5979TIP3   OH239427   1.142   0.735  27.639 -0.1692 -0.4616  0.2497
 5979TIP3    H139428   1.067   0.783  27.604  0.9305 -0.0500 -1.7369
 5979TIP3    H239429   1.134   0.647  27.601  0.7191 -0.1877 -0.6381
 5980TIP3   OH239430   1.802   1.255  37.660  0.0835 -0.1257  0.1157
 5980TIP3    H139431   1.742   1.291  37.725  2.4589 -1.1051  3.1126
 5980TIP3    H239432   1.868   1.322  37.648 -0.1808 -0.0712 -1.1392
 5981TIP3   OH239433   1.377   0.025  20.528  0.8825  0.2133 -0.5847
 5981TIP3    H139434   1.427   0.106  20.536 -0.5773  1.0982 -0.0835
 5981TIP3    H239435   1.309   0.044  20.463 -0.9099  0.2162  1.1766
 5982TIP3   OH239436   0.907   0.702   2.815  0.1963 -0.2957  0.0417
 5982TIP3    H139437   0.847   0.760   2.861  0.2371 -1.0695  1.1040
 5982TIP3    H239438   0.987   0.702   2.867 -0.4036 -2.6374  1.0942
 5983TIP3   OH239439   1.106   0.080  31.837  0.2416 -0.0381 -0.2206
 5983TIP3    H139440   1.150   0.163  31.857 -1.8709  0.8754  0.9132
 5983TIP3    H239441   1.079   0.046  31.923 -1.5775 -0.3498 -0.8758
 5984TIP3   OH239442   1.888   1.950  86.069  0.4790  0.0349 -0.0159
 5984TIP3    H139443   1.865   1.860  86.045  0.3219  0.5098 -1.7326
 5984TIP3    H239444   1.812   1.981  86.119  0.3372 -0.6186  0.1962
 5985TIP3   OH239445   1.329   1.126  95.517  0.2653 -0.6043  0.3772
 5985TIP3    H139446   1.395   1.064  95.487 -0.3130 -1.8245  1.4970
 5985TIP3    H239447   1.303   1.174  95.439  1.3568 -1.1845 -0.3598
 5986TIP3   OH239448   1.007   0.325  17.578 -0.5357  0.2447 -0.2786
 5986TIP3    H139449   1.091   0.368  17.559 -0.8968  0.6420 -1.0237
 5986TIP3    H239450   1.030   0.232  17.587  0.4438  0.6749  2.5922
 5987TIP3   OH239451   1.962   0.408   0.112  0.1233 -0.0536 -0.2944
 5987TIP3    H139452   2.032   0.459   0.153  0.4077 -0.2501 -0.5393
 5987TIP3    H239453   1.926   0.467   0.045  0.0633  0.0406 -0.1837
 5988TIP3   OH239454   0.188   1.175  83.336  0.0193 -0.0807  0.2758
 5988TIP3    H139455   0.123   1.240  83.362 -0.4225 -0.6748  0.6618
 5988TIP3    H239456   0.272   1.223  83.338 -0.3761  0.6394 -0.0553
 5989TIP3   OH239457   0.790   1.757 109.104  0.1124 -0.0735  0.0403
 5989TIP3    H139458   0.757   1.810 109.032 -0.1283 -0.0314  0.1808
 5989TIP3    H239459   0.745   1.791 109.181  1.5184  0.9494  0.4591
 5990TIP3   OH239460   0.950   0.513  97.935 -0.1936  0.1198  0.3827
 5990TIP3    H139461   0.911   0.555  97.858  0.0713 -1.1884 -0.4958
 5990TIP3    H239462   1.000   0.439  97.899 -1.0476 -1.2536  1.9015
 5991TIP3   OH239463   2.494   0.062  92.246  0.3723  0.1381 -0.2298
 5991TIP3    H139464   2.564  -0.002  92.234 -1.0306 -1.4287 -0.2711
 5991TIP3    H239465   2.488   0.106  92.161 -0.1329 -1.2241 -0.9166
 5992TIP3   OH239466   2.300   0.633  86.035 -0.3584  0.0522  0.4063
 5992TIP3    H139467   2.243   0.669  86.104  0.7555  0.6323  1.0579
 5992TIP3    H239468   2.337   0.554  86.075  0.1881  0.3169  0.4189
 5993TIP3   OH239469   2.436   1.529  38.208  0.2578 -0.5055 -0.3430
 5993TIP3    H139470   2.409   1.491  38.291  0.1542 -0.9563 -0.5808
 5993TIP3    H239471   2.452   1.622  38.228 -1.1500 -0.2892 -0.1261
 5994TIP3   OH239472   1.799   2.311 105.532  0.3462 -0.5782  0.2352
 5994TIP3    H139473   1.790   2.404 105.510  1.8288 -0.4844 -0.0662
 5994TIP3    H239474   1.827   2.311 105.624  1.7219 -0.6348 -0.1570
 5995TIP3   OH239475   2.443   1.990 101.426 -0.5419  0.3862  0.1764
 5995TIP3    H139476   2.529   2.032 101.420 -0.4492  0.0932 -0.6293
 5995TIP3    H239477   2.428   1.953 101.339 -1.2259 -0.0722  0.4773
 5996TIP3   OH239478   0.632   0.888  76.914 -0.2181  0.0753  0.1764
 5996TIP3    H139479   0.678   0.857  76.837  2.2324 -1.0783  1.9663
 5996TIP3    H239480   0.603   0.809  76.959 -1.2510  0.7127  0.6846
 5997TIP3   OH239481   0.792   2.662 103.962  0.0131 -0.0151  0.0842
 5997TIP3    H139482   0.840   2.720 104.021 -0.1305 -0.6463  0.8368
 5997TIP3    H239483   0.747   2.721 103.902 -0.8605  0.7135  1.4004
 5998TIP3   OH239484   1.962   0.592   8.690  0.3117  0.7831  0.0280
 5998TIP3    H139485   2.003   0.642   8.620  0.0872  0.6590 -0.1917
 5998TIP3    H239486   1.868   0.607   8.679  0.2582  0.5380  0.1269
 5999TIP3   OH239487   0.364   2.679  92.363 -0.1416 -0.0523 -0.2504
 5999TIP3    H139488   0.362   2.611  92.430  0.5038  1.3425  1.2764
 5999TIP3    H239489   0.455   2.707  92.359 -0.7233  2.2705  0.8907
 6000TIP3   OH239490   1.199   0.539  86.904  0.1096 -0.1326 -0.4968
 6000TIP3    H139491   1.242   0.590  86.972  0.8426  0.7156 -1.5665
 6000TIP3    H239492   1.131   0.598  86.869  0.3398 -0.2220 -1.1049
 6001TIP3   OH239493   0.045   1.859  37.155 -0.4546  0.5405  0.0661
 6001TIP3    H139494   0.125   1.894  37.116 -0.5078  1.6911  0.9406
 6001TIP3    H239495   0.075   1.804  37.227 -0.3067 -2.3918 -2.0554
 6002TIP3   OH239496   0.449   1.070  88.541  0.2952 -0.2826 -0.3496
 6002TIP3    H139497   0.381   1.137  88.536  1.3088  0.7144 -1.6180
 6002TIP3    H239498   0.402   0.988  88.542 -1.0198  0.4167  1.9126
 6003TIP3   OH239499   1.900   1.928   1.482  0.1071  0.1853  0.3192
 6003TIP3    H139500   1.907   1.928   1.386  1.1999  2.3697  0.3203
 6003TIP3    H239501   1.967   1.866   1.511  0.3779  0.1644 -0.3185
 6004TIP3   OH239502   2.490   2.575  94.229 -0.5960  0.1990 -0.1027
 6004TIP3    H139503   2.463   2.597  94.318 -1.9863  1.4501 -0.8049
 6004TIP3    H239504   2.416   2.526  94.192 -0.2918  0.2390 -0.7852
 6005TIP3   OH239505   0.563   0.104  79.646  0.2794  0.2738 -0.1145
 6005TIP3    H139506   0.500   0.149  79.590  2.3870  1.1568 -1.9151
 6005TIP3    H239507   0.643   0.100  79.594  2.0576  0.1550  2.4377
 6006TIP3   OH239508   0.219   1.385  81.083 -0.2819  0.3812  0.2532
 6006TIP3    H139509   0.309   1.360  81.066 -0.0425  1.1232  0.4090
 6006TIP3    H239510   0.186   1.419  81.000 -0.2009  0.7406  0.3672
 6007TIP3   OH239511   1.575   0.174  98.767  0.4144  0.1773 -0.5440
 6007TIP3    H139512   1.514   0.247  98.757  0.4906  0.3498  0.2073
 6007TIP3    H239513   1.644   0.208  98.824 -0.1808 -0.8450  0.8522
 6008TIP3   OH239514   1.241   0.489  20.622 -0.0891  0.0732  0.4193
 6008TIP3    H139515   1.193   0.570  20.604  1.5830  1.1710  0.7242
 6008TIP3    H239516   1.297   0.510  20.696  0.1347 -1.4952  0.7358
 6009TIP3   OH239517   0.606   0.516  18.748 -0.0101  0.5949  0.3655
 6009TIP3    H139518   0.537   0.500  18.812 -1.1912 -1.5539 -1.3251
 6009TIP3    H239519   0.583   0.599  18.707 -1.1297  0.3323  0.4340
 6010TIP3   OH239520   1.932   0.294  27.359  0.5253  0.0762 -0.0800
 6010TIP3    H139521   1.952   0.255  27.444  0.0068 -0.6408 -0.2825
 6010TIP3    H239522   1.894   0.223  27.307 -0.4971  0.8420 -0.4361
 6011TIP3   OH239523   1.814   1.799  27.794 -0.2919  0.1392 -0.2755
 6011TIP3    H139524   1.869   1.843  27.858 -1.0941 -1.2219  1.4475
 6011TIP3    H239525   1.832   1.843  27.711  3.2191 -0.1297  0.2186
 6012TIP3   OH239526   1.485   2.274  80.062 -0.1492  0.7209  0.1140
 6012TIP3    H139527   1.575   2.265  80.092 -1.2521 -3.4436  3.0073
 6012TIP3    H239528   1.490   2.261  79.967  2.3902  3.1112 -0.2001
 6013TIP3   OH239529   1.561   0.799  19.785  0.2923  0.1995 -0.1488
 6013TIP3    H139530   1.626   0.730  19.777  0.3649  0.1916  0.4868
 6013TIP3    H239531   1.611   0.880  19.780  0.0870  0.2677 -2.1551
 6014TIP3   OH239532   2.366   2.607  88.264 -0.7184  0.1299  0.2283
 6014TIP3    H139533   2.444   2.620  88.210 -0.5754 -0.1739  0.3581
 6014TIP3    H239534   2.293   2.614  88.202 -0.4732 -2.4194 -0.4383
 6015TIP3   OH239535   0.418   2.058  29.542  0.5540  0.2464  0.0463
 6015TIP3    H139536   0.387   2.049  29.632  3.2090  1.6538  1.2282
 6015TIP3    H239537   0.384   2.143  29.514  0.1628  0.0456 -0.0911
 6016TIP3   OH239538   0.187   0.600 108.134  0.2948 -0.1508 -0.9196
 6016TIP3    H139539   0.232   0.638 108.059 -0.8579  1.4578 -0.8520
 6016TIP3    H239540   0.098   0.584 108.103 -0.3903  1.1777  0.2676
 6017TIP3   OH239541   1.165   2.115  29.387 -0.3610 -0.1296 -0.1364
 6017TIP3    H139542   1.213   2.037  29.417 -0.1392  0.1190  0.1675
 6017TIP3    H239543   1.073   2.093  29.402 -0.2392  0.1779  1.2294
 6018TIP3   OH239544   0.574   2.499 103.882  0.3930  0.4397 -0.1735
 6018TIP3    H139545   0.512   2.571 103.878  0.9230  0.8536 -1.2349
 6018TIP3    H239546   0.658   2.541 103.901  0.7166  0.1147 -0.8602
 6019TIP3   OH239547   0.729   0.705  57.076  0.6151  0.6726 -0.1465
 6019TIP3    H139548   0.794   0.697  57.006  0.0674  1.6405 -0.8013
 6019TIP3    H239549   0.738   0.625  57.128 -0.0069 -0.8320 -2.2282
 6020TIP3   OH239550   0.175   0.887  88.192 -0.3164 -0.2891  0.3294
 6020TIP3    H139551   0.165   0.957  88.127 -0.0171  1.0458  1.6635
 6020TIP3    H239552   0.266   0.857  88.181 -0.5519 -0.7213 -0.4818
 6021TIP3   OH239553   2.439   2.051  47.598  0.8175  0.4511  0.3480
 6021TIP3    H139554   2.500   2.063  47.526 -1.1815  2.4822 -1.1503
 6021TIP3    H239555   2.360   2.015  47.558 -1.4226  4.3198  0.7329
 6022TIP3   OH239556   1.662   2.320   8.907  0.4570  0.2782 -0.2506
 6022TIP3    H139557   1.728   2.254   8.928  1.1765  1.6237  2.0447
 6022TIP3    H239558   1.586   2.296   8.959  0.8681  1.4381  0.9368
 6023TIP3   OH239559   0.989   1.108  83.259 -0.3118 -0.3555  0.2348
 6023TIP3    H139560   0.993   1.169  83.333 -1.5018 -0.2181  0.2022
 6023TIP3    H239561   0.897   1.084  83.253  0.2748 -3.2542  1.1411
 6024TIP3   OH239562   0.843   0.823  83.290 -1.0698  0.0312  0.5579
 6024TIP3    H139563   0.786   0.898  83.305 -0.7882  0.1789  0.9004
 6024TIP3    H239564   0.883   0.841  83.205 -1.2315  0.1126  0.5020
 6025TIP3   OH239565   0.898   1.135 109.472 -0.1911 -0.0262  0.1116
 6025TIP3    H139566   0.896   1.148 109.378 -0.6122  2.7413  0.4139
 6025TIP3    H239567   0.814   1.169 109.503  0.0793 -0.5618  1.5297
 6026TIP3   OH239568   0.842   0.448  28.472 -0.5343  0.0485 -0.3606
 6026TIP3    H139569   0.809   0.495  28.395  1.4334 -0.2346 -1.4463
 6026TIP3    H239570   0.906   0.508  28.511 -0.0220 -0.6165 -0.1560
 6027TIP3   OH239571   0.692   1.479  99.114  0.0619  0.6235  0.3044
 6027TIP3    H139572   0.775   1.503  99.155  0.8083  0.0887 -0.8268
 6027TIP3    H239573   0.707   1.494  99.021 -1.1333  0.5416  0.0888
 6028TIP3   OH239574   0.888   1.703  27.725 -0.1437  0.2892  0.2039
 6028TIP3    H139575   0.865   1.637  27.790 -1.8356 -0.2462 -0.8963
 6028TIP3    H239576   0.807   1.749  27.706  0.2741  0.4054 -1.5523
 6029TIP3   OH239577   1.201   2.635  89.147  0.1683 -0.0305  0.7450
 6029TIP3    H139578   1.122   2.675  89.110  0.7110 -0.4882 -1.0195
 6029TIP3    H239579   1.172   2.549  89.177  0.1654 -0.6253 -0.8570
 6030TIP3   OH239580   1.546   2.530  77.754 -0.2341 -0.1032  0.1276
 6030TIP3    H139581   1.603   2.465  77.712 -1.0777 -1.3303  0.7980
 6030TIP3    H239582   1.545   2.604  77.693  1.0990 -0.5364 -0.4664
 6031TIP3   OH239583   1.427   1.072  92.818  0.7667 -0.4307 -0.0240
 6031TIP3    H139584   1.369   1.076  92.894 -0.0826 -1.6703 -0.5748
 6031TIP3    H239585   1.493   1.007  92.843  1.2214  0.0771  0.1229
 6032TIP3   OH239586   1.654   1.751   5.137  0.1588 -0.1952  0.1046
 6032TIP3    H139587   1.650   1.828   5.194 -0.8072  0.7237 -1.1140
 6032TIP3    H239588   1.666   1.788   5.049 -0.3237 -1.4407 -0.5044
 6033TIP3   OH239589   1.434   2.048 107.948 -0.3707  0.2275  0.0583
 6033TIP3    H139590   1.434   2.130 107.897  3.9714 -0.8572 -2.2187
 6033TIP3    H239591   1.510   2.056 108.006 -0.7901 -1.5611  0.9052
 6034TIP3   OH239592   1.232   0.409  77.376 -0.0550 -0.2859  0.2486
 6034TIP3    H139593   1.158   0.463  77.404 -2.2071 -2.7301 -0.2151
 6034TIP3    H239594   1.208   0.320  77.404  1.6514 -1.5164 -1.8638
 6035TIP3   OH239595   1.101   1.828 105.085 -0.0107  0.1128  0.3750
 6035TIP3    H139596   1.040   1.843 105.013  0.1313  0.5976  0.3558
 6035TIP3    H239597   1.071   1.886 105.155 -0.4385 -0.6963  0.8927
 6036TIP3   OH239598   1.816   1.912  32.058  0.1649  0.2409 -0.1675
 6036TIP3    H139599   1.808   1.894  31.965  0.3086 -1.2355  0.0863
 6036TIP3    H239600   1.733   1.884  32.096  1.4127 -2.7177  0.6337
 6037TIP3   OH239601   1.403   2.195  26.108  0.2717  0.0152  0.3684
 6037TIP3    H139602   1.362   2.244  26.037  0.0106 -0.9055 -0.1455
 6037TIP3    H239603   1.371   2.235  26.188  0.2487  0.8137 -0.0358
 6038TIP3   OH239604   1.763   1.754  34.749  0.0431 -0.1708 -0.1642
 6038TIP3    H139605   1.719   1.815  34.808 -1.3235 -2.0074  0.8100
 6038TIP3    H239606   1.813   1.697  34.807  3.1061  1.2732 -1.1947
 6039TIP3   OH239607   1.213   1.070  86.430  0.5320  0.1239  0.4033
 6039TIP3    H139608   1.269   1.016  86.375  0.8274 -0.8388  1.6120
 6039TIP3    H239609   1.191   1.146  86.375  0.0413 -1.2302 -1.3629
 6040TIP3   OH239610   2.096   0.716  25.645 -0.2069  0.4400 -0.6030
 6040TIP3    H139611   2.013   0.723  25.691 -0.0552  0.4058 -0.3241
 6040TIP3    H239612   2.161   0.747  25.707  0.3904 -2.4281  0.3449
 6041TIP3   OH239613   1.152   1.655 102.705  0.4634 -0.0341  0.4043
 6041TIP3    H139614   1.195   1.640 102.789 -0.2009  2.7693  1.3600
 6041TIP3    H239615   1.084   1.588 102.701 -0.0401  0.2611  2.5293
 6042TIP3   OH239616   1.321   1.283  15.959  0.1848 -0.0995 -0.3586
 6042TIP3    H139617   1.413   1.296  15.936 -0.1542 -0.1786 -1.9189
 6042TIP3    H239618   1.310   1.188  15.962  0.3133 -0.0876  0.5503
 6043TIP3   OH239619   1.931   2.616  79.753 -0.9087 -0.0728  0.0716
 6043TIP3    H139620   1.873   2.540  79.763 -0.0457 -0.6293  1.0597
 6043TIP3    H239621   1.877   2.681  79.709 -2.8373  0.0127  2.3576
 6044TIP3   OH239622   0.792   1.141  89.964  0.0186 -0.7407  0.1953
 6044TIP3    H139623   0.726   1.206  89.990  0.7914 -0.9352  2.8542
 6044TIP3    H239624   0.743   1.060  89.950 -0.6648 -0.1513 -1.0392
 6045TIP3   OH239625   0.342   0.237 102.111  0.0777 -0.1416 -0.3961
 6045TIP3    H139626   0.365   0.267 102.199 -0.7145 -0.2366 -0.1443
 6045TIP3    H239627   0.416   0.181 102.085  0.0808 -0.5388  0.4303
 6046TIP3   OH239628   1.332   0.501 104.428 -0.1998 -0.0834  0.2007
 6046TIP3    H139629   1.355   0.587 104.464  0.1943  0.1906 -0.6827
 6046TIP3    H239630   1.270   0.465 104.492 -0.0138  0.6524  0.8183
 6047TIP3   OH239631   0.498   1.805   4.388 -0.0019 -0.2414  0.6952
 6047TIP3    H139632   0.420   1.782   4.339  0.2277 -1.6636  0.9510
 6047TIP3    H239633   0.475   1.885   4.435 -0.4468  0.7741 -1.1650
 6048TIP3   OH239634   0.941   1.723  82.876  0.2183  0.0549 -0.0070
 6048TIP3    H139635   0.937   1.746  82.969 -0.8606  0.2890 -0.0972
 6048TIP3    H239636   0.899   1.637  82.871  0.2661  0.0464 -0.2777
 6049TIP3   OH239637   0.806   2.541  96.892 -0.0613 -0.2137  0.1448
 6049TIP3    H139638   0.760   2.536  96.809 -1.1423  0.4953  0.6723
 6049TIP3    H239639   0.851   2.626  96.889 -0.1843 -0.1417  0.3210
 6050TIP3   OH239640   1.173   1.294  19.808  0.2900 -0.1848  0.1318
 6050TIP3    H139641   1.252   1.264  19.763 -0.2500  1.6956 -2.3180
 6050TIP3    H239642   1.202   1.368  19.861  0.4470 -0.6205  0.6643
 6051TIP3   OH239643   1.851   1.386  14.925  0.2446 -0.1887 -0.1003
 6051TIP3    H139644   1.803   1.331  14.986  0.2643  1.3281  1.3654
 6051TIP3    H239645   1.941   1.355  14.930  0.2798  0.0434  0.7979
 6052TIP3   OH239646   0.437   1.622  82.968  0.1109 -0.0133  0.4776
 6052TIP3    H139647   0.345   1.598  82.969 -0.0614  0.5958  0.1429
 6052TIP3    H239648   0.454   1.650  82.877  0.2066  1.3689  0.8913
 6053TIP3   OH239649   1.785   0.077  27.264  0.1458 -0.3617  0.1879
 6053TIP3    H139650   1.871   0.037  27.256  0.0441 -0.4083 -0.8443
 6053TIP3    H239651   1.743   0.030  27.336 -0.1050 -2.3984 -1.2181
 6054TIP3   OH239652   0.221   0.765  81.604  0.3247  0.2166  0.1073
 6054TIP3    H139653   0.287   0.740  81.668  0.2566 -0.3047 -0.0154
 6054TIP3    H239654   0.139   0.731  81.639  0.4578 -1.1098 -0.8062
 6055TIP3   OH239655   0.290   1.342  20.793 -0.3778 -0.4598 -0.2671
 6055TIP3    H139656   0.356   1.276  20.771  1.1882  1.2426 -0.9810
 6055TIP3    H239657   0.316   1.373  20.880 -0.7889 -0.4282 -0.1555
 6056TIP3   OH239658   2.051   1.043 105.846 -0.6973 -0.3576 -0.1226
 6056TIP3    H139659   2.085   1.111 105.788 -0.0137 -0.7551 -0.2061
 6056TIP3    H239660   1.969   1.079 105.881  0.7038  1.4056  1.5415
 6057TIP3   OH239661   2.205   0.289  74.241 -0.1298  0.9878  0.0869
 6057TIP3    H139662   2.141   0.231  74.200 -0.2319  1.9044 -1.1197
 6057TIP3    H239663   2.288   0.241  74.237 -0.3351  0.6600 -0.2861
 6058TIP3   OH239664   1.808   1.283 103.369 -0.3493 -0.0436  0.5277
 6058TIP3    H139665   1.813   1.191 103.395 -0.1633 -0.0361  0.5239
 6058TIP3    H239666   1.865   1.328 103.432  0.1796 -0.0360  0.0553
 6059TIP3   OH239667   0.961   0.042 103.425  0.4043  0.6909 -0.3043
 6059TIP3    H139668   0.867   0.024 103.426  0.4150  0.6117 -0.7954
 6059TIP3    H239669   1.001  -0.039 103.396  0.7687  0.1480  1.5482
 6060TIP3   OH239670   2.655   1.656  52.263  0.0849 -0.1511  0.5231
 6060TIP3    H139671   2.607   1.600  52.325  0.5504 -0.8771  0.2351
 6060TIP3    H239672   2.747   1.630  52.274  0.1173 -0.6791 -0.8548
 6061TIP3   OH239673   0.175   0.868  15.767 -0.0962 -0.4595  0.4321
 6061TIP3    H139674   0.087   0.881  15.732 -1.3807 -1.3618  3.0243
 6061TIP3    H239675   0.176   0.921  15.847  1.2322 -1.4851  1.1288
 6062TIP3   OH239676   2.551   0.224  43.015  0.0450 -0.1488 -0.1398
 6062TIP3    H139677   2.557   0.188  43.103  1.0670  0.7890  0.2030
 6062TIP3    H239678   2.604   0.165  42.961 -0.3472 -0.5601 -0.0856
 6063TIP3   OH239679   1.522   1.094  17.593 -0.5560 -0.5746  0.8894
 6063TIP3    H139680   1.583   1.161  17.621  0.0566  0.3784 -2.2873
 6063TIP3    H239681   1.436   1.137  17.594 -0.5420 -0.5576  1.2808
 6064TIP3   OH239682   2.441   0.478 110.583 -0.2608  0.3477 -0.0988
 6064TIP3    H139683   2.433   0.562 110.538  0.6028  0.5734  0.1511
 6064TIP3    H239684   2.378   0.483 110.655 -1.2753  0.1889 -0.9446
 6065TIP3   OH239685   1.654   2.011  36.993  0.0484 -0.3464  0.0039
 6065TIP3    H139686   1.560   2.008  36.974  0.1589  0.3317 -0.7042
 6065TIP3    H239687   1.674   2.104  36.999  0.6796 -0.4879  0.1427
 6066TIP3   OH239688   1.618   0.424  90.924 -0.2644 -0.6218 -0.4207
 6066TIP3    H139689   1.596   0.331  90.917  0.2187 -0.7830  0.1540
 6066TIP3    H239690   1.710   0.429  90.896 -0.0567 -0.4363  0.2677
 6067TIP3   OH239691   0.437   0.345   1.103 -0.1175 -0.6568 -0.5101
 6067TIP3    H139692   0.373   0.307   1.042  0.8508 -1.1465 -1.2388
 6067TIP3    H239693   0.517   0.352   1.052 -0.0917  1.8841 -0.2536
 6068TIP3   OH239694   2.641   2.301 103.379  0.1177  0.3261  0.0221
 6068TIP3    H139695   2.597   2.217 103.391  1.6724 -0.4907  0.3188
 6068TIP3    H239696   2.695   2.289 103.301 -0.1081  1.2649 -0.2871
 6069TIP3   OH239697   0.361   1.584  99.574 -0.1902  0.4976  0.4593
 6069TIP3    H139698   0.279   1.535  99.580  0.7556 -1.1719  0.2319
 6069TIP3    H239699   0.411   1.540  99.505  1.0895  1.2241  0.8840
 6070TIP3   OH239700   1.462   0.262 106.374 -0.6085  0.1793 -0.3173
 6070TIP3    H139701   1.393   0.257 106.440 -1.6375  1.7073 -1.2192
 6070TIP3    H239702   1.502   0.348 106.387  0.5805 -0.3375 -0.3694
 6071TIP3   OH239703   1.478   1.028 109.257 -0.7781 -0.3644  0.3437
 6071TIP3    H139704   1.389   1.063 109.266 -0.8535 -0.9204  2.2216
 6071TIP3    H239705   1.533   1.091 109.303 -0.4510 -0.9628  0.7790
 6072TIP3   OH239706   2.175   2.029  94.872 -0.2115  0.1280  0.0134
 6072TIP3    H139707   2.122   2.024  94.951 -0.7708 -0.8014 -0.4178
 6072TIP3    H239708   2.160   1.947  94.827 -0.0776  0.7366 -1.1884
 6073TIP3   OH239709   1.799   1.395 103.778 -0.0872  0.2112  0.3815
 6073TIP3    H139710   1.773   1.445 103.856  0.4605  3.3744 -1.2942
 6073TIP3    H239711   1.726   1.335 103.763 -0.4746 -0.0726  2.9167
 6074TIP3   OH239712   0.667   1.662   1.257  0.2948  0.0388 -0.0947
 6074TIP3    H139713   0.615   1.710   1.321  0.3093 -1.3526  1.0283
 6074TIP3    H239714   0.662   1.714   1.178  0.6449  2.0578  1.1487
 6075TIP3   OH239715   1.270   1.860   0.234 -0.3359  0.1749  0.5966
 6075TIP3    H139716   1.204   1.842   0.167 -1.0195  1.2351  0.9702
 6075TIP3    H239717   1.264   1.954   0.250 -0.6395 -0.1374  2.6132
 6076TIP3   OH239718   1.224   1.432  19.476  0.0035  0.0321  0.5073
 6076TIP3    H139719   1.141   1.421  19.523 -1.1839  0.1609 -1.4765
 6076TIP3    H239720   1.246   1.344  19.446  0.1198  0.1507  0.2466
 6077TIP3   OH239721   0.116   0.646  40.963  0.3321  1.1250  0.4636
 6077TIP3    H139722   0.140   0.554  40.967 -0.5040  0.6945 -2.4161
 6077TIP3    H239723   0.021   0.647  40.976 -0.1745  1.1410 -2.6322
 6078TIP3   OH239724   0.046   0.914  12.164  0.4384 -0.2802 -0.2180
 6078TIP3    H139725   0.065   0.844  12.226 -0.2377  0.3715  0.7466
 6078TIP3    H239726   0.099   0.893  12.087  2.9323  0.0000  1.3089
 6079TIP3   OH239727   1.738   1.096  88.254  0.1880 -0.0642  0.1586
 6079TIP3    H139728   1.809   1.107  88.317  0.2466 -0.5407  0.1789
 6079TIP3    H239729   1.670   1.156  88.283  0.2027 -0.3055  0.6949
 6080TIP3   OH239730   1.404   1.037  23.983  0.2533  0.1967  0.5098
 6080TIP3    H139731   1.449   1.115  23.950  1.0319  0.1390  1.3977
 6080TIP3    H239732   1.333   1.072  24.037 -0.9135  0.2888 -1.0083
 6081TIP3   OH239733   0.866   1.807   2.342  0.6296 -0.2440  0.1437
 6081TIP3    H139734   0.858   1.900   2.320  1.3450  0.0303  0.9621
 6081TIP3    H239735   0.806   1.794   2.416 -1.0931 -0.9540 -1.3001
 6082TIP3   OH239736   0.847   1.273   1.470  1.0589  0.5511  0.2976
 6082TIP3    H139737   0.814   1.363   1.465 -0.0357  0.1480 -0.2028
 6082TIP3    H239738   0.839   1.249   1.562  0.0490  0.5136  0.2103
 6083TIP3   OH239739   1.558   0.643 112.067 -0.2551 -0.4427  0.3042
 6083TIP3    H139740   1.514   0.588 112.132  0.2041 -0.6519  0.4436
 6083TIP3    H239741   1.627   0.587 112.031 -0.6623 -0.4080 -0.5442
 6084TIP3   OH239742   1.422   0.778   8.856 -0.2897  0.7071  0.1492
 6084TIP3    H139743   1.430   0.689   8.890 -0.2184  0.5635 -0.2403
 6084TIP3    H239744   1.398   0.830   8.932 -0.3456  0.3528  0.3784
 6085TIP3   OH239745   2.356   1.628  25.193 -0.3845  0.0644  0.0927
 6085TIP3    H139746   2.310   1.711  25.183 -0.3703  0.0718  0.0890
 6085TIP3    H239747   2.313   1.568  25.132  0.8263  0.5750 -1.3375
 6086TIP3   OH239748   2.298   2.657  31.140 -0.3593 -0.4078 -0.1521
 6086TIP3    H139749   2.314   2.742  31.180 -0.0585  0.2221 -1.5402
 6086TIP3    H239750   2.205   2.658  31.118 -0.0317  0.2930 -1.6855
 6087TIP3   OH239751   1.157   2.499  31.387 -0.7834 -0.0368 -0.1686
 6087TIP3    H139752   1.090   2.513  31.454 -2.1359  1.3768 -1.7333
 6087TIP3    H239753   1.159   2.404  31.373 -2.0670 -0.1386  0.2878
 6088TIP3   OH239754   2.430   1.997  86.127 -0.0957 -0.2609 -0.3493
 6088TIP3    H139755   2.458   2.061  86.193  1.0124 -1.7236  0.6594
 6088TIP3    H239756   2.491   2.011  86.054  0.1415 -0.1700 -0.1352
 6089TIP3   OH239757   1.794   1.036  16.682  0.2682  0.4982 -0.0624
 6089TIP3    H139758   1.734   1.049  16.609  0.5418  0.0404 -0.3745
 6089TIP3    H239759   1.747   0.979  16.742  0.2135  0.5161 -0.0891
 6090TIP3   OH239760   2.324   1.602   3.543  0.1020  0.3795  0.2483
 6090TIP3    H139761   2.408   1.647   3.536 -0.8176  2.2831  0.9079
 6090TIP3    H239762   2.308   1.594   3.637 -0.7568  0.6369  0.1318
 6091TIP3   OH239763   1.748   1.430  36.982 -0.1983  0.0815  0.4962
 6091TIP3    H139764   1.749   1.506  37.041 -1.5852 -0.3873  1.1514
 6091TIP3    H239765   1.765   1.468  36.895 -1.6074  1.2728  0.6965
 6092TIP3   OH239766   2.460   0.607  42.714 -0.4281 -0.4387  0.8926
 6092TIP3    H139767   2.391   0.541  42.707 -0.3250 -0.3977 -0.8339
 6092TIP3    H239768   2.428   0.668  42.781 -2.1595 -0.3356  0.0384
 6093TIP3   OH239769   1.885   0.966  36.518  0.2913 -0.0715  0.2929
 6093TIP3    H139770   1.897   0.933  36.607  5.6665 -0.9182 -0.4056
 6093TIP3    H239771   1.885   0.887  36.463 -0.2029  0.5623 -0.6522
 6094TIP3   OH239772   2.408   0.104  12.813 -0.4520 -0.3761 -0.3661
 6094TIP3    H139773   2.484   0.074  12.863 -0.4157  0.3142 -0.0090
 6094TIP3    H239774   2.333   0.085  12.869 -0.3461  1.2224  0.3721
 6095TIP3   OH239775   0.136   2.220  78.757  0.4737 -0.2090 -0.2673
 6095TIP3    H139776   0.188   2.222  78.677 -0.0119  3.2739 -0.6597
 6095TIP3    H239777   0.188   2.269  78.821 -0.0666 -1.1321  0.9220
 6096TIP3   OH239778   2.346   0.747  68.226  0.0379  0.4945  0.5562
 6096TIP3    H139779   2.377   0.747  68.135 -0.7532 -1.0389  0.2621
 6096TIP3    H239780   2.384   0.668  68.264 -2.2318 -0.6648  0.5966
 6097TIP3   OH239781   1.023   0.377  92.031  0.1305  0.2093 -0.2433
 6097TIP3    H139782   0.985   0.424  92.106 -0.9299  2.7771 -2.2077
 6097TIP3    H239783   0.973   0.295  92.026 -1.3358  1.0050  0.5792
 6098TIP3   OH239784   1.180   0.222   9.324 -0.0222  0.1184 -0.2754
 6098TIP3    H139785   1.198   0.145   9.377  0.0768 -0.8940 -1.7257
 6098TIP3    H239786   1.247   0.285   9.350 -0.7910  0.1870  1.7502
 6099TIP3   OH239787   2.379   0.259  27.783  0.1919  0.5141  0.4224
 6099TIP3    H139788   2.401   0.190  27.721  1.3213  0.3089  1.0273
 6099TIP3    H239789   2.407   0.224  27.868 -0.4756  1.1648  0.9188
 6100TIP3   OH239790   1.571   2.005  25.851  0.2483 -0.0537 -0.1419
 6100TIP3    H139791   1.480   2.008  25.881  0.1261 -0.3570 -0.4810
 6100TIP3    H239792   1.608   1.927  25.893  0.5189  0.3783  0.4506
 6101TIP3   OH239793   2.491   0.193  32.499  0.2350 -0.4116 -0.4400
 6101TIP3    H139794   2.443   0.182  32.581  3.5086  1.8207  2.0361
 6101TIP3    H239795   2.425   0.227  32.438 -2.2427 -1.6942  1.3160
 6102TIP3   OH239796   2.569   1.939   3.138  0.3995 -0.5308 -0.1767
 6102TIP3    H139797   2.636   1.987   3.187  2.0708 -2.0904 -0.8268
 6102TIP3    H239798   2.617   1.874   3.087 -1.4982 -0.7484 -1.8473
 6103TIP3   OH239799   1.436   2.333  33.994  0.4675  0.1210 -0.1105
 6103TIP3    H139800   1.385   2.327  33.913  0.7704 -0.6146 -0.2576
 6103TIP3    H239801   1.398   2.268  34.052  0.7701  0.0764  0.0418
 6104TIP3   OH239802   1.075   0.660  99.561  0.0225 -0.7004 -0.1852
 6104TIP3    H139803   1.077   0.732  99.497  0.6616 -1.5847 -1.2081
 6104TIP3    H239804   1.059   0.582  99.508  0.2952 -1.4358  0.7885
 6105TIP3   OH239805   2.209   1.463  46.821 -0.5260  0.4404 -0.3669
 6105TIP3    H139806   2.300   1.455  46.852 -0.0148  3.6044 -0.6856
 6105TIP3    H239807   2.179   1.373  46.812  2.3907 -0.7264  0.3009
 6106TIP3   OH239808   1.241   0.559  99.903 -0.2858  0.1878 -0.1620
 6106TIP3    H139809   1.241   0.634  99.963  1.6986  0.2974 -0.2145
 6106TIP3    H239810   1.149   0.547  99.879 -0.8181  1.7143  0.9429
 6107TIP3   OH239811   0.885   1.714  91.332  0.3658 -0.0882 -0.0219
 6107TIP3    H139812   0.801   1.672  91.313 -0.2665  0.4413  1.4406
 6107TIP3    H239813   0.892   1.785  91.269 -1.1144  0.9117  0.8664
 6108TIP3   OH239814   2.627   0.549  20.213 -0.5555 -0.1522  0.3751
 6108TIP3    H139815   2.595   0.543  20.123 -1.2566  0.9085  0.5400
 6108TIP3    H239816   2.584   0.478  20.260  0.0322 -0.8872 -0.1784
 6109TIP3   OH239817   0.450   0.215 103.439 -0.2430 -0.3694  0.2115
 6109TIP3    H139818   0.448   0.311 103.447 -0.4961 -0.0368 -2.8390
 6109TIP3    H239819   0.543   0.194 103.440 -0.1320  0.0631 -0.4046
 6110TIP3   OH239820   0.605   1.084 107.985 -0.0384  0.0881 -0.3630
 6110TIP3    H139821   0.512   1.083 107.961  0.2789  1.1870 -1.7854
 6110TIP3    H239822   0.648   1.031 107.918  0.5470  0.8878 -0.6314
 6111TIP3   OH239823   0.481   0.733 103.469  0.5304 -0.4467 -0.0948
 6111TIP3    H139824   0.507   0.810 103.520 -0.5368  0.4312 -0.8529
 6111TIP3    H239825   0.554   0.718 103.408  1.1792 -0.6563  0.7114
 6112TIP3   OH239826   0.446   2.037  23.386 -0.7553  0.1626  0.4984
 6112TIP3    H139827   0.490   2.048  23.301 -1.7335 -0.2054 -0.0735
 6112TIP3    H239828   0.353   2.032  23.364 -1.0038 -0.1927  1.5804
 6113TIP3   OH239829   1.133   2.063 101.860 -0.0518  0.3992 -0.4500
 6113TIP3    H139830   1.059   2.076 101.800 -0.9041 -0.8228  0.3014
 6113TIP3    H239831   1.152   2.150 101.894 -1.5603  0.6568 -0.2047
 6114TIP3   OH239832   1.413   1.063   6.773  0.2202 -0.2766  0.0942
 6114TIP3    H139833   1.421   1.141   6.826 -1.6216 -1.0534  1.6280
 6114TIP3    H239834   1.360   1.089   6.698 -0.0007  0.0462  0.3647
 6115TIP3   OH239835   1.749   0.627  10.393  0.0005  0.1379 -0.0483
 6115TIP3    H139836   1.687   0.608  10.464  0.0373  0.0428 -0.0412
 6115TIP3    H239837   1.780   0.541  10.365 -0.9362  0.0982 -1.0072
 6116TIP3   OH239838   1.033   2.163  33.638  0.5652 -0.2644  0.7268
 6116TIP3    H139839   1.057   2.080  33.680 -1.1872 -1.3912 -0.3528
 6116TIP3    H239840   0.972   2.204  33.699 -1.2398 -1.4547 -0.1742
 6117TIP3   OH239841   1.285   1.604 110.801  0.0613  0.0705 -0.2530
 6117TIP3    H139842   1.261   1.546 110.872  0.7121  0.2762  0.1371
 6117TIP3    H239843   1.291   1.691 110.841  0.5980  0.1598 -0.5192
 6118TIP3   OH239844   1.697   2.093 105.354  0.1976 -0.4567  0.3893
 6118TIP3    H139845   1.602   2.091 105.365  0.2429 -0.1759  0.8842
 6118TIP3    H239846   1.725   2.165 105.411  0.5372  0.5900 -1.0483
 6119TIP3   OH239847   2.347   1.828  35.261 -0.2517  0.1073 -0.2403
 6119TIP3    H139848   2.368   1.803  35.171  0.4673 -0.2499  0.0193
 6119TIP3    H239849   2.432   1.839  35.303 -0.4848 -2.4826  1.1354
 6120TIP3   OH239850   0.761   0.498 108.555  0.2112 -0.1902  0.0576
 6120TIP3    H139851   0.683   0.498 108.611 -0.3206 -1.1711 -0.6535
 6120TIP3    H239852   0.795   0.409 108.563  0.0625 -0.3745 -1.2489
 6121TIP3   OH239853   2.206   0.293   9.859  0.6872 -0.2447 -0.0343
 6121TIP3    H139854   2.222   0.346   9.781  1.9648 -2.4740 -1.3852
 6121TIP3    H239855   2.291   0.290   9.904  0.1633  0.3271  1.0529
 6122TIP3   OH239856   2.607   1.945  18.621  0.4354 -0.0367 -0.1076
 6122TIP3    H139857   2.613   1.893  18.540  2.1083 -0.0758  0.0046
 6122TIP3    H239858   2.515   1.937  18.648  0.2673 -1.5456 -1.0029
 6123TIP3   OH239859   1.631   2.598  22.639  0.0715 -0.2781  0.2044
 6123TIP3    H139860   1.561   2.593  22.574 -0.1654  1.1368  0.3344
 6123TIP3    H239861   1.616   2.680  22.685  1.4037 -0.3039  0.7223
 6124TIP3   OH239862   0.248   0.181  17.390  0.0888 -0.1719 -0.3194
 6124TIP3    H139863   0.336   0.146  17.385 -0.4911 -1.5357 -1.6740
 6124TIP3    H239864   0.244   0.246  17.319  0.5340  1.2790  0.9174
 6125TIP3   OH239865   1.832   2.676  76.153 -0.7226 -0.9964  0.0380
 6125TIP3    H139866   1.788   2.599  76.117 -1.2598  0.0828 -1.7035
 6125TIP3    H239867   1.766   2.745  76.153  0.0827 -0.1952  0.4301
 6126TIP3   OH239868   0.382   0.947   2.931 -0.1236  0.5673 -0.5705
 6126TIP3    H139869   0.399   1.025   2.984 -0.2001  0.3084 -0.1559
 6126TIP3    H239870   0.334   0.888   2.990 -0.0909  0.2191 -0.8867
 6127TIP3   OH239871   1.590   0.898  26.121  0.5674  0.1758 -0.0145
 6127TIP3    H139872   1.542   0.980  26.108  1.3029  0.5854 -0.2654
 6127TIP3    H239873   1.674   0.913  26.077 -0.1567 -1.5792 -2.1877
 6128TIP3   OH239874   1.403   0.307  90.333 -0.1535 -0.2374  0.3668
 6128TIP3    H139875   1.453   0.378  90.374 -0.5567  0.0137  0.4243
 6128TIP3    H239876   1.431   0.229  90.380  1.6492 -0.4067 -0.9015
 6129TIP3   OH239877   0.461   1.410  36.383  0.1668  0.1001  0.4890
 6129TIP3    H139878   0.481   1.415  36.477  0.0449  0.1093  0.5134
 6129TIP3    H239879   0.532   1.459  36.341 -0.5380  1.3237  0.6708
 6130TIP3   OH239880   1.931   1.652  76.226  0.6730  0.1469 -0.3832
 6130TIP3    H139881   1.943   1.692  76.313  1.9785  0.0301 -0.4801
 6130TIP3    H239882   1.963   1.562  76.237 -1.6454 -0.7347 -0.3196
 6131TIP3   OH239883   0.278   2.069   6.720 -0.3994 -0.3095 -0.5104
 6131TIP3    H139884   0.201   2.118   6.693 -1.4577  0.1279  2.8514
 6131TIP3    H239885   0.244   1.987   6.755  0.8252 -0.7953 -0.3872
 6132TIP3   OH239886   2.048   2.515  40.583 -0.3354 -0.6843 -0.1709
 6132TIP3    H139887   1.982   2.471  40.637 -0.1866  1.6905  2.1559
 6132TIP3    H239888   2.110   2.551  40.646  1.5994 -0.3698 -2.1463
 6133TIP3   OH239889   1.184   1.793  94.038 -0.6901  0.1676 -0.3288
 6133TIP3    H139890   1.155   1.885  94.042 -0.8926  0.0820  0.1989
 6133TIP3    H239891   1.102   1.743  94.037 -0.5914  0.0094 -1.2150
 6134TIP3   OH239892   2.162   0.944  91.573  0.1684 -0.1601 -0.4583
 6134TIP3    H139893   2.229   0.963  91.507  0.0736  1.2821 -0.1762
 6134TIP3    H239894   2.079   0.953  91.527  0.1271 -0.3322 -0.4169
 6135TIP3   OH239895   1.614   2.156   8.519  0.0338 -0.2746 -0.1327
 6135TIP3    H139896   1.658   2.073   8.541 -0.2475 -0.2147  0.6580
 6135TIP3    H239897   1.679   2.223   8.538 -0.2880 -0.2063  0.7669
 6136TIP3   OH239898   0.028   0.152 105.931 -0.0339  0.5057 -0.0075
 6136TIP3    H139899   0.063   0.107 106.008 -0.5200 -1.9015 -1.0976
 6136TIP3    H239900   0.094   0.139 105.863 -1.0932 -0.4319 -0.9080
 6137TIP3   OH239901   1.385   2.488   1.803  0.1000  0.0705  0.3544
 6137TIP3    H139902   1.423   2.566   1.763 -0.1374  0.2852  0.5510
 6137TIP3    H239903   1.291   2.502   1.801  0.1011  0.2984  1.4216
 6138TIP3   OH239904   1.373   2.017  36.947  0.1846  0.7655  0.0005
 6138TIP3    H139905   1.372   2.001  36.853  0.8548 -0.5535  0.1926
 6138TIP3    H239906   1.293   2.067  36.964 -0.3455  0.3474 -1.1618
 6139TIP3   OH239907   0.481   0.512  23.250 -0.2350 -0.0459  0.3643
 6139TIP3    H139908   0.559   0.568  23.259 -0.0016 -0.4634  1.0728
 6139TIP3    H239909   0.512   0.425  23.274 -0.3465 -0.7027 -1.7127
 6140TIP3   OH239910   0.615   0.651  30.839 -0.0439  0.2950  0.7380
 6140TIP3    H139911   0.540   0.648  30.899  0.0743  1.9552  1.0349
 6140TIP3    H239912   0.578   0.630  30.753 -0.6270 -0.0026  1.0569
 6141TIP3   OH239913   1.682   0.278 106.880 -0.3117  0.8809  0.0634
 6141TIP3    H139914   1.610   0.229 106.920  0.9116 -1.6816 -0.6987
 6141TIP3    H239915   1.756   0.264 106.939  0.5542  0.1650 -1.1622
 6142TIP3   OH239916   2.653   2.004  22.783 -0.2116 -0.1938 -0.5956
 6142TIP3    H139917   2.574   2.027  22.733 -0.3504  0.8231  0.0592
 6142TIP3    H239918   2.702   2.085  22.788  1.2248 -0.9648 -1.5484
 6143TIP3   OH239919   0.436   1.126  94.589  0.0188 -0.1777 -0.8054
 6143TIP3    H139920   0.522   1.156  94.558 -0.1525 -0.2159 -1.3392
 6143TIP3    H239921   0.383   1.206  94.591  0.7258  0.3045  1.9308
 6144TIP3   OH239922   1.495   2.294  93.479  0.3434 -0.4914  0.1539
 6144TIP3    H139923   1.573   2.312  93.426  0.5982  0.8257  0.9302
 6144TIP3    H239924   1.529   2.261  93.561  0.2284  1.5003  1.0725
 6145TIP3   OH239925   1.476   2.673  18.201  0.4996  0.1688  0.1542
 6145TIP3    H139926   1.455   2.609  18.133  0.0993  0.3371  0.1197
 6145TIP3    H239927   1.563   2.705  18.177  0.0902  0.7067 -0.6455
 6146TIP3   OH239928   1.882   0.916  11.369  0.1769  0.0330 -0.4145
 6146TIP3    H139929   1.915   0.826  11.363 -1.7485 -0.7816  0.4987
 6146TIP3    H239930   1.932   0.964  11.303  3.6146 -0.9226  1.2353
 6147TIP3   OH239931   0.276   2.636 111.676 -0.1643 -0.4902 -0.1879
 6147TIP3    H139932   0.272   2.731 111.661 -0.0825 -0.2134  1.3170
 6147TIP3    H239933   0.199   2.618 111.730  1.0730 -0.8413  1.5404
 6148TIP3   OH239934   0.381   0.515  93.729 -0.1814 -0.3096 -0.3343
 6148TIP3    H139935   0.310   0.577  93.718 -0.4139 -0.5038  0.0739
 6148TIP3    H239936   0.351   0.435  93.686 -1.6854 -1.5444  2.7010
 6149TIP3   OH239937   0.507   2.134  80.515 -0.1881 -0.1316  0.0660
 6149TIP3    H139938   0.450   2.108  80.588  0.0931  0.7565  0.6292
 6149TIP3    H239939   0.450   2.185  80.457 -0.4395 -0.9338 -0.3981
 6150TIP3   OH239940   1.716   1.190  99.753  0.3728 -0.4867  0.1908
 6150TIP3    H139941   1.749   1.100  99.755 -1.4276 -1.2507 -1.3843
 6150TIP3    H239942   1.689   1.204  99.662 -1.4431  0.8450  0.8784
 6151TIP3   OH239943   1.429   1.069  89.769  0.2433  0.7099 -0.3432
 6151TIP3    H139944   1.361   1.012  89.803  0.2091  1.2917  0.5908
 6151TIP3    H239945   1.382   1.136  89.719 -0.0514  2.0534  1.6267
 6152TIP3   OH239946   2.012   1.252  28.191 -0.4845 -0.1697 -0.1564
 6152TIP3    H139947   2.058   1.247  28.107 -0.7478 -0.6698 -0.2764
 6152TIP3    H239948   1.959   1.332  28.185  0.0693  0.1987 -0.1682
 6153TIP3   OH239949   0.411   1.758  74.645 -0.1215  0.1275  0.0283
 6153TIP3    H139950   0.339   1.703  74.616 -0.9782  0.1790  1.8957
 6153TIP3    H239951   0.412   1.831  74.583  0.2539 -1.3274 -1.7496
 6154TIP3   OH239952   1.989   2.150  82.195 -0.1737  0.1463 -0.4503
 6154TIP3    H139953   2.052   2.209  82.153  1.8160 -0.4415  1.4847
 6154TIP3    H239954   1.964   2.196  82.275  0.5089 -1.0883  0.5123
 6155TIP3   OH239955   1.131   1.347  92.332 -0.3135  0.2068  0.2535
 6155TIP3    H139956   1.101   1.438  92.329  1.1408  0.6832 -1.2970
 6155TIP3    H239957   1.221   1.353  92.367  0.0148 -0.5603 -0.4485
 6156TIP3   OH239958   1.104   2.056  34.504  0.2483 -0.2445 -0.1245
 6156TIP3    H139959   1.193   2.033  34.530 -0.7408 -1.5147  2.6033
 6156TIP3    H239960   1.079   1.989  34.441  1.6876  1.0554 -2.1758
 6157TIP3   OH239961   1.730   2.564  10.471 -0.3684 -0.2302 -0.0838
 6157TIP3    H139962   1.648   2.515  10.472 -0.1770 -0.5738  1.2514
 6157TIP3    H239963   1.710   2.643  10.421 -0.5795 -1.7940 -2.6472
 6158TIP3   OH239964   2.261   0.739  32.936  1.3583  0.1471 -0.0198
 6158TIP3    H139965   2.322   0.723  32.863  0.1826 -1.8894 -0.6467
 6158TIP3    H239966   2.200   0.665  32.932 -0.6466  1.6464  1.1108
 6159TIP3   OH239967   1.996   1.053  58.880  0.1212  0.4416  0.3158
 6159TIP3    H139968   2.034   0.971  58.912  0.1868  1.0748  1.9925
 6159TIP3    H239969   2.057   1.083  58.812  1.4321  0.3056  1.3814
 6160TIP3   OH239970   1.140   1.838  11.875  0.0298 -1.2072  0.0462
 6160TIP3    H139971   1.218   1.883  11.906 -0.5063 -0.8678  0.9490
 6160TIP3    H239972   1.168   1.747  11.863  0.1168 -1.5563  2.3194
 6161TIP3   OH239973   0.144   0.767  79.181 -0.0644  0.3961  0.5673
 6161TIP3    H139974   0.055   0.798  79.196  0.2694  0.7077  2.0596
 6161TIP3    H239975   0.198   0.847  79.182  0.4551  0.0597  1.6839
 6162TIP3   OH239976   1.383   2.669   7.187  0.4534 -0.3170 -0.4887
 6162TIP3    H139977   1.459   2.686   7.130 -0.8626 -0.2421 -2.2969
 6162TIP3    H239978   1.311   2.716   7.146 -1.0285 -1.9840  0.0754
 6163TIP3   OH239979   0.520   1.034  96.467 -0.1809  0.0241 -0.5155
 6163TIP3    H139980   0.537   1.113  96.416 -1.6620  1.5114  1.1770
 6163TIP3    H239981   0.437   1.000  96.432  0.0523 -0.3566 -0.7135
 6164TIP3   OH239982   1.319   1.677 107.391 -0.4356  0.3115  0.4779
 6164TIP3    H139983   1.383   1.682 107.461  0.3581  1.5014 -0.2930
 6164TIP3    H239984   1.300   1.584 107.382  2.9655 -0.4190 -0.7988
 6165TIP3   OH239985   2.285   0.487  31.865  0.0794  0.1354  0.4888
 6165TIP3    H139986   2.372   0.522  31.846  0.2239 -0.9988 -1.1437
 6165TIP3    H239987   2.300   0.394  31.884 -0.8879 -0.5362 -1.6460
 6166TIP3   OH239988   2.152   0.817  21.466 -0.1234  0.1599  0.1406
 6166TIP3    H139989   2.178   0.744  21.523 -0.6574 -0.1168  0.0360
 6166TIP3    H239990   2.156   0.780  21.378  0.4928  0.5266  0.0072
 6167TIP3   OH239991   2.036   0.977  85.036 -0.4601 -0.3076  0.5983
 6167TIP3    H139992   1.993   0.978  84.950 -1.3238  1.2078  1.0124
 6167TIP3    H239993   2.111   0.918  85.024 -1.0164 -0.7605 -0.9592
 6168TIP3   OH239994   1.464   0.778  58.389  0.1736  0.8045  0.5181
 6168TIP3    H139995   1.531   0.844  58.406  1.2976  0.4617 -2.2075
 6168TIP3    H239996   1.394   0.826  58.344  1.5686  0.0208 -2.6824
 6169TIP3   OH239997   0.211   0.758 111.487 -0.3448 -0.0102  0.2504
 6169TIP3    H139998   0.169   0.811 111.420 -1.8115  0.7281  1.6789
 6169TIP3    H239999   0.177   0.792 111.570  0.0245 -2.0168  1.3058
 6170TIP3   OH240000   1.328   1.819  23.052 -0.0327 -0.2385  0.1933
 6170TIP3    H140001   1.357   1.731  23.074 -0.7804 -0.5556 -0.0767
 6170TIP3    H240002   1.409   1.866  23.029  0.8195  0.0903  3.3890
 6171TIP3   OH240003   2.287   1.162  93.278 -0.3595 -0.6925 -0.3544
 6171TIP3    H140004   2.335   1.212  93.212 -1.3633 -1.6123 -1.8409
 6171TIP3    H240005   2.196   1.189  93.268 -0.7398 -1.8920 -0.3454
 6172TIP3   OH240006   0.273   1.754  34.614  0.0857 -0.1586 -0.2926
 6172TIP3    H140007   0.322   1.812  34.555  1.7483 -0.8097  0.4003
 6172TIP3    H240008   0.211   1.709  34.557 -0.6518  1.6545 -0.9787
 6173TIP3   OH240009   2.232   1.937  10.465 -0.4888  0.1825 -0.0429
 6173TIP3    H140010   2.242   1.912  10.373 -0.0798  1.7538 -0.4622
 6173TIP3    H240011   2.318   1.922  10.503 -0.5115  0.0262 -0.0549
 6174TIP3   OH240012   0.868   1.019 104.501  0.3591 -0.0779 -0.1351
 6174TIP3    H140013   0.775   1.035 104.520  0.7531  1.0225  0.8816
 6174TIP3    H240014   0.910   1.104 104.508  1.3832 -0.4692 -1.1270
 6175TIP3   OH240015   0.620   0.422  33.741  0.4034  0.2290  0.3346
 6175TIP3    H140016   0.689   0.488  33.735  0.6741 -0.0163  0.7552
 6175TIP3    H240017   0.636   0.364  33.667  1.5567 -0.6902  1.2745
 6176TIP3   OH240018   1.127   1.071  30.507 -0.3408 -0.0792  0.0998
 6176TIP3    H140019   1.150   0.978  30.512 -0.2309 -0.0984 -0.6296
 6176TIP3    H240020   1.172   1.102  30.428 -1.5391  0.2524 -0.4843
 6177TIP3   OH240021   2.337   2.491  21.325  0.7550 -0.1899  0.8671
 6177TIP3    H140022   2.274   2.424  21.298  1.0003  0.2385 -0.8696
 6177TIP3    H240023   2.422   2.455  21.301  0.8643  0.8734 -0.4240
 6178TIP3   OH240024   0.812   1.169  85.098  0.0547  0.2749  0.1131
 6178TIP3    H140025   0.718   1.176  85.117  0.0725  1.0317 -0.0434
 6178TIP3    H240026   0.827   1.232  85.028  0.6490  0.0194  0.0056
 6179TIP3   OH240027   1.814   1.231 100.206  0.7053 -0.1671 -0.3949
 6179TIP3    H140028   1.883   1.297 100.199  0.5660 -0.1191 -1.5077
 6179TIP3    H240029   1.839   1.179 100.282  1.0453  0.8993  0.2458
 6180TIP3   OH240030   2.089   1.409  93.645  0.1371 -0.5705  0.4139
 6180TIP3    H140031   2.092   1.318  93.616  1.3673  0.0401 -1.5730
 6180TIP3    H240032   2.023   1.410  93.715  0.4652 -3.0510  0.8294
 6181TIP3   OH240033   2.409   2.125  30.595 -0.2000 -0.5726 -0.1922
 6181TIP3    H140034   2.457   2.051  30.633  0.2961  0.1156  0.5694
 6181TIP3    H240035   2.442   2.131  30.505 -0.1138 -1.1616 -0.2051
 6182TIP3   OH240036   0.129   0.632  92.005 -0.1177  0.1763  0.0897
 6182TIP3    H140037   0.141   0.539  91.986  0.2402  0.0925  0.6945
 6182TIP3    H240038   0.048   0.655  91.960  0.4342 -0.1176 -1.1028
 6183TIP3   OH240039   1.810   2.475  95.192  0.4301  0.5349 -0.2459
 6183TIP3    H140040   1.891   2.436  95.225  0.4757 -0.2408 -1.2213
 6183TIP3    H240041   1.749   2.470  95.266  0.7787 -0.3815 -0.0061
 6184TIP3   OH240042   0.682   0.287  38.093  0.1522  0.1518 -0.4661
 6184TIP3    H140043   0.695   0.375  38.128 -1.0091  0.1420  0.0079
 6184TIP3    H240044   0.612   0.249  38.146  0.5990 -1.0535 -0.6905
 6185TIP3   OH240045   1.017   0.413  15.060 -0.2230  0.4171  0.4084
 6185TIP3    H140046   0.970   0.497  15.054 -1.6737 -0.4401 -1.4486
 6185TIP3    H240047   0.948   0.349  15.078  0.1589 -0.8751 -2.2262
 6186TIP3   OH240048   1.148   0.846  98.979 -0.2572  0.4353 -0.0221
 6186TIP3    H140049   1.105   0.924  99.011 -0.6872  0.1402  0.1321
 6186TIP3    H240050   1.125   0.778  99.042  0.6861  0.3403  0.2326
 6187TIP3   OH240051   2.157   1.035 101.659 -0.4534  0.3015 -0.0018
 6187TIP3    H140052   2.101   0.980 101.713 -2.9015  1.7977 -0.8561
 6187TIP3    H240053   2.172   1.113 101.711  2.1370 -0.6255  0.7835
 6188TIP3   OH240054   0.986   0.845  84.149  0.5153  0.0178  0.1660
 6188TIP3    H140055   0.915   0.908  84.134  0.3485 -0.1953  0.0599
 6188TIP3    H240056   0.960   0.798  84.228 -0.8679 -1.9820 -1.3794
 6189TIP3   OH240057   2.422   1.413 108.699 -0.2320  0.3988 -0.0422
 6189TIP3    H140058   2.349   1.423 108.638  0.2855  1.1088 -0.5751
 6189TIP3    H240059   2.388   1.443 108.783 -0.9500 -0.5782  0.0269
 6190TIP3   OH240060   1.026   2.678  25.283 -0.7121  0.0335  0.4304
 6190TIP3    H140061   0.930   2.682  25.290 -0.8202  0.4548 -0.9544
 6190TIP3    H240062   1.044   2.701  25.192  0.6384 -1.3996  0.3020
 6191TIP3   OH240063   1.313   0.965  98.425 -0.3270 -0.3069  0.0899
 6191TIP3    H140064   1.282   0.880  98.457 -0.3472 -0.4337 -0.2448
 6191TIP3    H240065   1.301   0.959  98.330 -2.0743  0.7730  0.2032
 6192TIP3   OH240066   1.272   1.910  77.023 -0.8608 -0.3412  0.0424
 6192TIP3    H140067   1.325   1.989  77.008 -0.4971  0.0777  2.9338
 6192TIP3    H240068   1.182   1.939  77.009 -0.6687  0.3301  0.1487
 6193TIP3   OH240069   1.933   2.257  93.533 -0.1714  0.1688 -0.1160
 6193TIP3    H140070   1.958   2.280  93.622  0.1676  2.8393 -0.8149
 6193TIP3    H240071   2.003   2.292  93.478  0.1093 -2.2377 -1.4350
 6194TIP3   OH240072   2.623   2.314   7.472 -0.7596  0.3787  0.4498
 6194TIP3    H140073   2.534   2.300   7.504 -0.9747  1.8463  0.5488
 6194TIP3    H240074   2.611   2.349   7.383 -0.2542 -0.0177  0.2186
 6195TIP3   OH240075   2.124   0.962  95.225 -0.1132  0.2249 -0.2156
 6195TIP3    H140076   2.143   0.958  95.132  1.0996  1.1082 -0.0225
 6195TIP3    H240077   2.029   0.947  95.231 -0.0767 -0.6306 -1.5057
 6196TIP3   OH240078   0.698   2.235  17.412 -0.0830 -0.5872 -0.5255
 6196TIP3    H140079   0.617   2.277  17.383 -0.7714 -1.2064  0.4567
 6196TIP3    H240080   0.767   2.280  17.362 -0.8003  1.4462  0.2076
 6197TIP3   OH240081   1.633   0.325 101.861  0.0481 -0.4720  0.0621
 6197TIP3    H140082   1.584   0.256 101.905  0.5104 -0.4062  0.6895
 6197TIP3    H240083   1.595   0.406 101.894  0.9616 -0.4111  1.0193
 6198TIP3   OH240084   1.950   2.598  21.601  0.1325  0.3398  0.1244
 6198TIP3    H140085   1.990   2.664  21.544 -1.5975  1.1433 -0.1957
 6198TIP3    H240086   1.958   2.634  21.689 -2.0947  1.7134 -0.1838
 6199TIP3   OH240087   0.537   1.298   6.858 -0.1097  0.0878  0.8205
 6199TIP3    H140088   0.473   1.227   6.846  1.2076 -1.2251  1.2961
 6199TIP3    H240089   0.548   1.335   6.771 -1.4601  0.3133  0.7172
 6200TIP3   OH240090   0.611   0.042  38.200  0.0371 -0.0115  0.2565
 6200TIP3    H140091   0.661  -0.020  38.254  2.4095  1.7578  0.2485
 6200TIP3    H240092   0.638   0.022  38.110 -3.8408 -2.8957 -0.5565
 6201TIP3   OH240093   2.017   1.037  25.302 -0.0714 -0.1707 -0.0135
 6201TIP3    H140094   1.931   1.019  25.338 -0.3007 -1.3424 -1.0787
 6201TIP3    H240095   2.069   0.959  25.322 -0.0691 -0.6437 -1.7440
 6202TIP3   OH240096   0.433   2.676   5.681  0.1248  0.5011  0.2831
 6202TIP3    H140097   0.372   2.699   5.751  0.3865  0.2700  0.5839
 6202TIP3    H240098   0.425   2.580   5.672  0.2333  0.5053  0.1271
 6203TIP3   OH240099   1.372   1.310  33.634 -0.3208 -0.4326 -0.3888
 6203TIP3    H140100   1.324   1.228  33.641  1.5311 -1.4848  0.8164
 6203TIP3    H240101   1.435   1.296  33.564 -0.7743  0.4350 -1.0009
 6204TIP3   OH240102   1.594   1.437  97.248  0.1186  0.1659 -0.1580
 6204TIP3    H140103   1.683   1.470  97.260  0.1935 -0.4686  1.3189
 6204TIP3    H240104   1.587   1.366  97.313 -1.0469 -0.6217 -1.1167
 6205TIP3   OH240105   1.588   2.019 106.969  0.4613  0.0504 -0.0857
 6205TIP3    H140106   1.645   1.943 106.954 -0.2405 -0.1717 -1.7595
 6205TIP3    H240107   1.614   2.082 106.902 -0.1798  0.6005  0.1743
 6206TIP3   OH240108   0.407   2.573 109.299  0.1302 -0.7747  0.1983
 6206TIP3    H140109   0.403   2.587 109.394  1.4143 -0.6793  0.2592
 6206TIP3    H240110   0.317   2.583 109.269 -0.1706  0.0280  1.2994
 6207TIP3   OH240111   1.157   1.552  23.252 -0.1481 -0.5790  0.0571
 6207TIP3    H140112   1.215   1.625  23.273 -0.7707  0.2933 -1.1140
 6207TIP3    H240113   1.197   1.476  23.294 -0.4015  0.7055  2.7908
 6208TIP3   OH240114   0.499   1.945  86.422  0.4881 -0.2662  0.2825
 6208TIP3    H140115   0.579   1.931  86.372  1.8655  0.2644  2.2185
 6208TIP3    H240116   0.520   2.017  86.481 -0.4569 -1.8763  2.7535
 6209TIP3   OH240117   0.624   0.654   4.986  0.0588 -0.0686  0.2238
 6209TIP3    H140118   0.557   0.710   4.947  0.6040  0.2962 -0.1973
 6209TIP3    H240119   0.663   0.708   5.055  1.6000  0.6377 -1.1543
 6210TIP3   OH240120   1.657   1.124   2.937  0.0544 -0.1378 -0.0216
 6210TIP3    H140121   1.628   1.047   2.986 -0.7940 -0.4344 -0.9607
 6210TIP3    H240122   1.744   1.143   2.972 -0.8236  0.1190  2.1099
 6211TIP3   OH240123   0.702   0.822  16.951 -0.0644 -0.0298  0.2439
 6211TIP3    H140124   0.644   0.826  17.026 -0.9508  2.6263 -0.4507
 6211TIP3    H240125   0.774   0.882  16.973 -0.7835  1.4901 -1.2873
 6212TIP3   OH240126   2.389   1.371  19.892  0.8185  0.0467 -0.5877
 6212TIP3    H140127   2.427   1.360  19.805  0.6567 -0.0036 -0.6533
 6212TIP3    H240128   2.295   1.380  19.876  0.6564 -1.0177 -0.3443
 6213TIP3   OH240129   1.277   1.969  32.674 -0.3383 -0.3719 -0.0252
 6213TIP3    H140130   1.261   1.874  32.682  1.3353 -0.8178 -1.4028
 6213TIP3    H240131   1.320   1.993  32.756  0.4374 -1.1129 -0.1962
 6214TIP3   OH240132   0.824   2.074  94.162  0.0146  0.1211  0.5441
 6214TIP3    H140133   0.829   2.149  94.103  4.4878 -1.5277 -1.6416
 6214TIP3    H240134   0.800   2.001  94.106  1.1939 -0.9701  1.3985
 6215TIP3   OH240135   1.325   2.547   8.142  0.1308  0.0757 -0.2124
 6215TIP3    H140136   1.351   2.618   8.200 -1.9451 -0.5541  1.6634
 6215TIP3    H240137   1.397   2.484   8.146  0.6377  0.6901  0.5669
 6216TIP3   OH240138   1.829   1.098  74.936 -0.4965 -0.3346 -0.0326
 6216TIP3    H140139   1.785   1.134  75.013 -0.4109  0.7496 -0.4811
 6216TIP3    H240140   1.767   1.034  74.901 -1.2726  0.4038 -0.0438
 6217TIP3   OH240141   1.743   0.923 102.834 -0.3378  0.4627 -0.3794
 6217TIP3    H140142   1.710   0.836 102.813  0.9883 -0.3658  0.7213
 6217TIP3    H240143   1.714   0.939 102.924  0.9191  0.3465  0.0781
 6218TIP3   OH240144   2.292   2.610 109.643  0.0974  0.3356 -0.0552
 6218TIP3    H140145   2.225   2.558 109.688 -0.6502  0.8903 -0.4943
 6218TIP3    H240146   2.360   2.547 109.620  0.2165 -0.0689  1.3020
 6219TIP3   OH240147   1.161   1.460 101.489  0.1045  0.1891  0.1979
 6219TIP3    H140148   1.143   1.381 101.539 -0.8875  0.4025  0.1931
 6219TIP3    H240149   1.076   1.502 101.477  0.3998  0.4833 -1.1088
 6220TIP3   OH240150   1.220   0.878 101.681 -0.2875  0.4224 -0.0749
 6220TIP3    H140151   1.287   0.823 101.642  1.0339  2.2911 -0.6069
 6220TIP3    H240152   1.269   0.943 101.731 -1.8211  0.1318  1.9709
 6221TIP3   OH240153   0.355   2.548  22.461 -0.6342 -0.1640 -0.3285
 6221TIP3    H140154   0.326   2.473  22.512  0.8818 -0.0213  0.8164
 6221TIP3    H240155   0.435   2.519  22.419 -0.3679  0.6112 -0.3754
 6222TIP3   OH240156   0.770   1.371  16.578  0.0708 -0.4771 -0.0140
 6222TIP3    H140157   0.731   1.284  16.567  1.5437 -1.1147 -0.4843
 6222TIP3    H240158   0.798   1.396  16.490 -0.4396  0.5370  0.1046
 6223TIP3   OH240159   0.837   1.233  86.407 -0.3279  0.4421  0.5450
 6223TIP3    H140160   0.788   1.151  86.415  1.4376 -0.5567  1.8857
 6223TIP3    H240161   0.847   1.263  86.497 -1.8597  2.7561  0.0227
 6224TIP3   OH240162   1.750   0.056  99.542 -0.0552 -0.1596  0.1149
 6224TIP3    H140163   1.842   0.043  99.519 -0.6438 -1.9897 -1.4437
 6224TIP3    H240164   1.703   0.043  99.460 -1.8003 -0.5830  1.1368
 6225TIP3   OH240165   0.652   0.643  26.945  0.0512  0.0053 -0.0103
 6225TIP3    H140166   0.595   0.570  26.921 -1.0381  1.1934 -1.2058
 6225TIP3    H240167   0.735   0.624  26.902  0.5572 -1.6376  1.5691
 6226TIP3   OH240168   0.500   2.425   3.039  0.0565  0.3231  0.4812
 6226TIP3    H140169   0.485   2.453   2.948  0.7277  2.6266  1.0109
 6226TIP3    H240170   0.595   2.415   3.045  0.0489  0.5368  1.0036
 6227TIP3   OH240171   0.424   0.397  17.040  0.3349 -0.2591 -0.1855
 6227TIP3    H140172   0.519   0.408  17.045  0.2428  0.4780  0.1479
 6227TIP3    H240173   0.393   0.480  17.003 -0.1675 -0.5520 -0.4201
 6228TIP3   OH240174   0.695   0.213  93.851 -0.3048  0.5958 -0.0340
 6228TIP3    H140175   0.769   0.266  93.881  0.5803 -0.3379 -0.5100
 6228TIP3    H240176   0.735   0.136  93.812 -1.5579 -0.3353  0.4420
 6229TIP3   OH240177   0.695   1.315  10.756  0.0151 -0.0930 -0.3679
 6229TIP3    H140178   0.739   1.375  10.697  0.0594 -0.7024 -0.9697
 6229TIP3    H240179   0.642   1.259  10.699  0.6236 -1.1711  0.0800
 6230TIP3   OH240180   1.311   2.189  33.761 -0.1762 -0.2971 -0.3713
 6230TIP3    H140181   1.359   2.107  33.755 -1.1490 -0.8422 -1.0228
 6230TIP3    H240182   1.264   2.196  33.678  1.2394  1.7915 -1.0708
 6231TIP3   OH240183   1.438   1.179  73.102 -0.2188 -0.3279 -0.0144
 6231TIP3    H140184   1.377   1.244  73.135 -1.2512 -0.3216 -1.7959
 6231TIP3    H240185   1.504   1.229  73.055 -0.4507 -0.4956 -0.5241
 6232TIP3   OH240186   2.685   2.655  21.158 -0.6612 -0.4855  0.2349
 6232TIP3    H140187   2.733   2.738  21.158 -1.1923 -0.1764  0.0438
 6232TIP3    H240188   2.645   2.650  21.072 -0.8026 -0.8460  0.3207
 6233TIP3   OH240189   1.301   1.740 100.828 -0.3208  0.1389  0.2095
 6233TIP3    H140190   1.364   1.797 100.874  0.5488 -0.2803 -0.4294
 6233TIP3    H240191   1.220   1.791 100.826 -0.0572  0.6301  1.1974
 6234TIP3   OH240192   0.973   0.362   7.496 -0.1478  0.1593  0.1234
 6234TIP3    H140193   1.027   0.399   7.426 -0.2520  0.6565  0.3016
 6234TIP3    H240194   1.026   0.292   7.533 -0.4316 -0.6791 -1.0091
 6235TIP3   OH240195   0.609   1.249  81.393  0.2044 -0.1490  0.4224
 6235TIP3    H140196   0.554   1.245  81.315  1.1654 -0.2083 -0.2611
 6235TIP3    H240197   0.612   1.342  81.415  1.4721  0.1053 -0.7452
 6236TIP3   OH240198   1.491   1.249   4.220 -0.2479  0.0390 -0.3781
 6236TIP3    H140199   1.469   1.274   4.310 -2.0548 -0.4071 -0.6621
 6236TIP3    H240200   1.527   1.329   4.182 -0.7027  0.6128  0.3585
 6237TIP3   OH240201   0.649   0.158 108.129 -0.3549 -0.2979  0.3005
 6237TIP3    H140202   0.652   0.215 108.206 -0.4871 -0.6580  0.5723
 6237TIP3    H240203   0.558   0.162 108.099 -0.1314  0.4572 -0.3119
 6238TIP3   OH240204   0.307   1.355  94.663 -0.3837  0.3297  0.1818
 6238TIP3    H140205   0.287   1.364  94.756 -1.0808  0.1402  0.0526
 6238TIP3    H240206   0.306   1.444  94.629 -0.4064  0.3740  0.2967
 6239TIP3   OH240207   1.146   2.229 109.163 -0.4249  0.5548 -0.2273
 6239TIP3    H140208   1.192   2.313 109.160 -1.6813  1.3072  0.6198
 6239TIP3    H240209   1.202   2.169 109.114  0.8179  1.7276 -0.2953
 6240TIP3   OH240210   0.383   2.091 107.487  0.0745  0.2876  0.2169
 6240TIP3    H140211   0.381   2.167 107.546 -0.2272  0.2076  0.3079
 6240TIP3    H240212   0.455   2.110 107.426 -0.1780  0.7773  0.0686
 6241TIP3   OH240213   2.595   1.702 107.105 -0.0105 -0.0475 -0.7645
 6241TIP3    H140214   2.512   1.721 107.061 -0.8729  0.7094  1.0852
 6241TIP3    H240215   2.618   1.784 107.149  0.8385 -0.7347  0.1128
 6242TIP3   OH240216   1.051   1.073 102.191  0.2624 -0.3683 -0.3819
 6242TIP3    H140217   1.007   1.158 102.189 -0.0567 -0.5511 -1.2795
 6242TIP3    H240218   0.981   1.010 102.208  0.5486 -0.4354  0.6315
 6243TIP3   OH240219   2.118   2.146  11.412  0.1080 -0.0884 -0.4784
 6243TIP3    H140220   2.174   2.105  11.478  0.2531  1.5612  0.4789
 6243TIP3    H240221   2.035   2.100  11.420  0.5308 -0.8093 -0.0842
 6244TIP3   OH240222   0.885   1.955  93.550  1.1731 -0.3026  0.5002
 6244TIP3    H140223   0.934   1.997  93.479  2.8050 -0.2144  1.6311
 6244TIP3    H240224   0.794   1.957  93.521  1.3531  2.6357 -0.1649
 6245TIP3   OH240225   0.242   1.715  69.637  1.0147  0.5953 -1.0244
 6245TIP3    H140226   0.325   1.729  69.591  1.5486  1.5077  0.1469
 6245TIP3    H240227   0.256   1.635  69.689  0.5767 -0.1658 -2.0485
 6246TIP3   OH240228   2.283   1.386  92.928  0.4315 -0.3621 -0.6093
 6246TIP3    H140229   2.330   1.306  92.902  0.0610 -0.3085 -1.4724
 6246TIP3    H240230   2.340   1.426  92.993 -0.0207 -2.0347  0.9180
 6247TIP3   OH240231   2.386   0.769  13.433 -0.4454 -0.0716 -0.0616
 6247TIP3    H140232   2.332   0.719  13.494 -0.8053  0.6610  0.2317
 6247TIP3    H240233   2.327   0.836  13.398  0.2300  0.6680  0.1705
 6248TIP3   OH240234   2.610   1.089  73.250  0.0912  0.1749 -0.7762
 6248TIP3    H140235   2.674   1.073  73.320 -1.0038  1.9601  0.7214
 6248TIP3    H240236   2.527   1.057  73.286  0.0374 -2.2866 -2.7710
 6249TIP3   OH240237   1.465   0.383  62.728  0.1607 -0.3867 -0.8999
 6249TIP3    H140238   1.392   0.345  62.679 -0.0644 -1.2458  0.0656
 6249TIP3    H240239   1.474   0.327  62.805  1.2638  0.2416 -0.5487
 6250TIP3   OH240240   0.668   0.091   3.755  0.1094 -0.0256  0.3784
 6250TIP3    H140241   0.608   0.142   3.810 -0.4274 -0.3265  0.0750
 6250TIP3    H240242   0.730   0.053   3.817 -1.1579 -1.2753  0.9237
 6251TIP3   OH240243   1.723   1.978  77.243 -0.1863 -0.1018 -0.7424
 6251TIP3    H140244   1.698   1.942  77.328  0.8801  0.7119 -0.0516
 6251TIP3    H240245   1.700   1.909  77.180 -0.3550 -1.0002  0.2692
 6252TIP3   OH240246   0.967   0.026  88.989 -0.6197  0.0333  0.0425
 6252TIP3    H140247   0.921  -0.048  88.950 -1.0833  1.1699 -1.6599
 6252TIP3    H240248   1.024   0.059  88.920  1.5168 -0.2547  1.5705
 6253TIP3   OH240249   1.421   2.300  23.532 -0.3468 -0.2875 -0.0688
 6253TIP3    H140250   1.441   2.243  23.458 -0.1621  0.2042 -0.3974
 6253TIP3    H240251   1.342   2.261  23.571 -0.6305 -0.3672 -0.7124
 6254TIP3   OH240252   1.874   0.700  11.073  0.0144 -0.2526 -0.3746
 6254TIP3    H140253   1.944   0.758  11.044 -0.6308 -0.5360 -2.6866
 6254TIP3    H240254   1.798   0.757  11.085 -0.2491 -0.3857 -1.2944
 6255TIP3   OH240255   1.996   2.658 108.233 -0.0360  0.4055 -0.4631
 6255TIP3    H140256   2.009   2.668 108.328  0.3843 -1.3657 -0.3039
 6255TIP3    H240257   1.998   2.564 108.219  1.8823  0.6849 -2.5311
 6256TIP3   OH240258   0.311   0.893 111.218 -0.4561 -0.5414  0.1278
 6256TIP3    H140259   0.300   0.977 111.172 -0.2011  0.4063  1.7287
 6256TIP3    H240260   0.403   0.891 111.241 -0.9200 -0.0860  2.2042
 6257TIP3   OH240261   1.776   2.242   0.544  0.6879 -0.4622  0.2625
 6257TIP3    H140262   1.744   2.153   0.531  1.4155 -0.9099  1.3767
 6257TIP3    H240263   1.816   2.266   0.461 -0.0253 -0.9520 -0.2302
 6258TIP3   OH240264   1.636   1.196  11.435  0.3754 -0.3986  0.1144
 6258TIP3    H140265   1.560   1.185  11.492 -0.4468 -1.0512 -1.0651
 6258TIP3    H240266   1.704   1.230  11.493 -0.0233 -2.2579  1.8008
 6259TIP3   OH240267   1.258   0.286  98.944 -0.0620 -0.2878  0.0650
 6259TIP3    H140268   1.311   0.297  98.865  1.2707 -0.2074  0.9251
 6259TIP3    H240269   1.318   0.307  99.016 -0.8059 -1.7235  1.1627
 6260TIP3   OH240270   1.813   0.458  14.110 -0.2182  0.0493  0.1658
 6260TIP3    H140271   1.871   0.396  14.064 -2.7928 -1.4290 -1.3571
 6260TIP3    H240272   1.801   0.530  14.048  0.5071  0.7045  0.7701
 6261TIP3   OH240273   2.440   2.206  87.637  0.2719 -0.3596 -0.2229
 6261TIP3    H140274   2.359   2.211  87.687  0.2434  1.5589 -0.3951
 6261TIP3    H240275   2.417   2.240  87.550  1.0019 -0.9048 -0.6443
 6262TIP3   OH240276   1.184   2.049  10.543 -0.2257 -0.1924  0.6158
 6262TIP3    H140277   1.252   2.116  10.536 -0.8420  0.2885 -1.4514
 6262TIP3    H240278   1.219   1.986  10.605  1.6873  0.5252  0.3320
 6263TIP3   OH240279   2.588   2.363  78.792  0.0913 -0.0205 -1.3711
 6263TIP3    H140280   2.613   2.452  78.765  0.6883 -0.3452 -1.8979
 6263TIP3    H240281   2.661   2.308  78.765  0.0090 -0.5901 -0.4819
 6264TIP3   OH240282   1.518   1.275  94.447  0.1183 -0.1569 -0.4119
 6264TIP3    H140283   1.462   1.199  94.431 -0.3471  0.4360 -1.6863
 6264TIP3    H240284   1.586   1.243  94.506 -1.0997 -1.0983  0.5193
 6265TIP3   OH240285   2.471   0.616   4.409  0.3665 -0.4694 -0.4861
 6265TIP3    H140286   2.404   0.562   4.369  1.4567 -1.7591 -0.6363
 6265TIP3    H240287   2.493   0.570   4.491  0.1674  0.6214  0.2034
 6266TIP3   OH240288   2.584   2.088  69.308 -0.1644 -1.0727  0.2714
 6266TIP3    H140289   2.600   2.011  69.254 -1.6831  0.5399 -2.7598
 6266TIP3    H240290   2.549   2.153  69.247  0.9559  2.0252  2.6480
 6267TIP3   OH240291   2.440   1.580  30.146  0.3853 -0.6994  0.2787
 6267TIP3    H140292   2.508   1.618  30.092 -0.0946  0.6626  0.6036
 6267TIP3    H240293   2.362   1.579  30.090 -0.3323  1.4866  1.1214
 6268TIP3   OH240294   0.488   1.189  20.409 -0.4547 -0.2025  0.3969
 6268TIP3    H140295   0.452   1.127  20.473  0.6173 -0.3526  0.8795
 6268TIP3    H240296   0.412   1.216  20.357 -1.2457 -0.5716  1.3121
 6269TIP3   OH240297   0.270   2.607  79.475 -0.2928 -0.7305 -0.2264
 6269TIP3    H140298   0.187   2.581  79.435 -0.2142 -1.4705  0.0870
 6269TIP3    H240299   0.337   2.579  79.412 -0.2215 -1.0399 -0.0076
 6270TIP3   OH240300   0.351   2.434  91.829 -0.2545 -0.0831  0.3591
 6270TIP3    H140301   0.333   2.357  91.775 -1.8908  0.0699  0.6381
 6270TIP3    H240302   0.370   2.399  91.916 -0.9524 -0.2009  0.4752
 6271TIP3   OH240303   0.845   2.194 103.949  0.2345 -0.3925 -0.2257
 6271TIP3    H140304   0.875   2.278 103.984  0.0978  0.1438 -1.3458
 6271TIP3    H240305   0.906   2.174 103.878  1.4796 -2.2661  1.3087
 6272TIP3   OH240306   2.472   2.648  90.481  0.2245 -1.0641 -0.0377
 6272TIP3    H140307   2.387   2.618  90.449  0.7473 -2.1740 -0.4526
 6272TIP3    H240308   2.527   2.650  90.402  0.6581 -0.6170  0.2746
 6273TIP3   OH240309   1.909   0.655  83.015  0.6504 -0.1094  0.2226
 6273TIP3    H140310   1.979   0.700  83.062  0.4050  0.1373  0.3518
 6273TIP3    H240311   1.840   0.645  83.081 -0.2085  1.3763 -0.4177
 6274TIP3   OH240312   0.161   2.542  20.333  0.0428 -0.4572  0.0658
 6274TIP3    H140313   0.251   2.557  20.305  0.2766 -2.2999 -0.2753
 6274TIP3    H240314   0.147   2.448  20.320 -2.7792  0.1548 -2.4144
 6275TIP3   OH240315   0.363   1.136  82.254 -0.1386 -0.0568  0.1252
 6275TIP3    H140316   0.409   1.059  82.222 -0.9998  0.0378 -1.3942
 6275TIP3    H240317   0.311   1.167  82.180 -0.2607  1.6571  0.8624
 6276TIP3   OH240318   1.146   0.080  30.453  0.4462 -0.1875 -0.0467
 6276TIP3    H140319   1.053   0.063  30.442  0.0854  1.9194 -0.8478
 6276TIP3    H240320   1.154   0.117  30.542  0.3176  0.6245 -0.3601
 6277TIP3   OH240321   1.254   1.191 109.335  0.2597 -0.0148 -0.1791
 6277TIP3    H140322   1.290   1.260 109.280  1.4461  1.4491  2.2237
 6277TIP3    H240323   1.179   1.232 109.379  0.9259 -0.2004  1.2125
 6278TIP3   OH240324   1.381   1.600   8.501  0.2459  0.0952  0.3714
 6278TIP3    H140325   1.435   1.608   8.579 -0.0461  0.7232  0.5079
 6278TIP3    H240326   1.384   1.687   8.460  1.3061 -0.4955 -0.9201
 6279TIP3   OH240327   0.134   0.232  14.948 -0.8219  0.0820 -0.2345
 6279TIP3    H140328   0.141   0.301  15.014 -1.1067 -1.6912  1.7479
 6279TIP3    H240329   0.042   0.231  14.924 -0.8604  0.2428 -0.0970
 6280TIP3   OH240330   2.289   1.410  74.904 -0.5726 -1.3027 -0.7442
 6280TIP3    H140331   2.231   1.412  74.827 -1.3287  0.8754 -0.1937
 6280TIP3    H240332   2.240   1.457  74.972  1.6277  0.1612 -0.0865
 6281TIP3   OH240333   1.531   0.899  88.319 -0.0984 -0.0509 -0.4953
 6281TIP3    H140334   1.592   0.972  88.324 -0.4563  0.2013  0.3726
 6281TIP3    H240335   1.481   0.903  88.401 -0.9049 -0.5838 -0.9449
 6282TIP3   OH240336   1.112   0.543  76.486 -0.4140  0.2381 -0.2290
 6282TIP3    H140337   1.057   0.597  76.543 -2.5828  1.0676 -2.8846
 6282TIP3    H240338   1.050   0.488  76.439  1.2571 -0.3888 -1.7972
 6283TIP3   OH240339   0.794   2.429  94.235 -1.0721  0.4253 -0.1498
 6283TIP3    H140340   0.812   2.522  94.223  0.4600 -0.0765 -2.2941
 6283TIP3    H240341   0.838   2.406  94.317 -0.1865  1.2916 -0.3727
 6284TIP3   OH240342   1.119   1.383  53.509  0.2254  0.7269  0.1793
 6284TIP3    H140343   1.128   1.332  53.589 -1.8323  1.0920  0.6871
 6284TIP3    H240344   1.200   1.366  53.461  0.9164 -0.5604  1.7100
 6285TIP3   OH240345   0.268   1.307  99.900  0.0943 -0.3865 -0.2399
 6285TIP3    H140346   0.300   1.242  99.837 -0.1067 -1.5333  0.8101
 6285TIP3    H240347   0.283   1.266  99.986 -0.3027  0.8426  0.4354
 6286TIP3   OH240348   0.113   1.047   6.051  0.3172 -0.1330 -0.2676
 6286TIP3    H140349   0.168   1.086   6.118  0.1954  0.7866 -0.6954
 6286TIP3    H240350   0.174   1.017   5.984  0.4195 -0.8204  0.1189
 6287TIP3   OH240351   1.080   1.734  19.684  0.2404 -0.3371 -0.0302
 6287TIP3    H140352   1.101   1.767  19.772  1.1493  0.3987 -0.5043
 6287TIP3    H240353   1.162   1.696  19.653 -0.0610 -0.5293 -0.5918
 6288TIP3   OH240354   1.009   0.766 107.979  0.1478  0.7617  0.2339
 6288TIP3    H140355   0.944   0.812 108.032 -0.6413  0.6889 -0.6465
 6288TIP3    H240356   0.958   0.710 107.921  1.0602 -0.4673  0.5816
 6289TIP3   OH240357   1.216   0.953  21.723 -0.5447  0.7888  0.3144
 6289TIP3    H140358   1.307   0.931  21.743 -0.6894  0.7251  0.9056
 6289TIP3    H240359   1.204   0.923  21.633 -0.3403 -0.3308  0.6411
 6290TIP3   OH240360   0.586   2.168 106.215  0.2121  0.0851 -0.0672
 6290TIP3    H140361   0.512   2.138 106.267  0.1820  0.8027  0.3103
 6290TIP3    H240362   0.647   2.207 106.278  0.8519 -0.3702 -0.3894
 6291TIP3   OH240363   2.653   1.313  85.261 -0.1402  0.3096 -0.2598
 6291TIP3    H140364   2.577   1.357  85.299 -0.3993 -1.4341  1.3924
 6291TIP3    H240365   2.649   1.224  85.295  2.3513 -0.0019 -0.5658
 6292TIP3   OH240366   1.351   1.096 110.542 -0.4356 -0.1644  0.1176
 6292TIP3    H140367   1.313   1.178 110.574  1.0125  0.3088  0.7067
 6292TIP3    H240368   1.444   1.114 110.535  0.0638 -2.0583  1.2007
 6293TIP3   OH240369   0.584   2.677  84.418 -0.0610 -0.7006  0.0799
 6293TIP3    H140370   0.675   2.660  84.441  0.5032  0.6815 -0.9854
 6293TIP3    H240371   0.555   2.743  84.481 -0.1745 -0.7805  0.1148
 6294TIP3   OH240372   2.310   2.046  73.280  0.2864  0.4235  0.1358
 6294TIP3    H140373   2.270   1.961  73.265  0.4932  0.5283 -1.0954
 6294TIP3    H240374   2.237   2.108  73.275  0.3864  0.4773 -0.6493
 6295TIP3   OH240375   1.205   1.104 106.642 -0.1741 -0.0485 -0.9281
 6295TIP3    H140376   1.193   1.009 106.633 -0.3570 -0.0057 -1.1512
 6295TIP3    H240377   1.118   1.140 106.625 -0.0039  0.1910 -1.3075
 6296TIP3   OH240378   0.424   2.422  83.664  0.0677  0.3708 -0.1306
 6296TIP3    H140379   0.362   2.464  83.724  1.0094  1.2211  0.2932
 6296TIP3    H240380   0.391   2.442  83.577  0.2048  1.5540  0.0783
 6297TIP3   OH240381   2.517   1.882  63.884  0.3952 -0.1500 -0.5163
 6297TIP3    H140382   2.533   1.910  63.973 -3.5670 -0.2975  0.4281
 6297TIP3    H240383   2.556   1.950  63.829  3.8064 -0.5573  1.1252
 6298TIP3   OH240384   1.159   2.073  30.643  0.1101 -0.1328 -0.0176
 6298TIP3    H140385   1.182   1.981  30.630 -1.0045 -0.2888 -1.0859
 6298TIP3    H240386   1.233   2.121  30.606  0.3640 -0.6007 -0.1325
 6299TIP3   OH240387   1.035   0.956  16.045  0.2645  0.3612 -0.3167
 6299TIP3    H140388   1.010   0.871  16.080  2.1883 -0.7341 -1.4720
 6299TIP3    H240389   0.960   0.983  15.992 -0.8646  0.0075  1.0433
 6300TIP3   OH240390   0.546   0.825  11.838 -0.2135  0.3511 -0.1211
 6300TIP3    H140391   0.634   0.793  11.857 -0.8107 -1.3965 -0.0712
 6300TIP3    H240392   0.517   0.773  11.763 -1.5431  0.1861  0.4743
 6301TIP3   OH240393   1.043   0.959  81.199 -0.6459  0.1658  0.4524
 6301TIP3    H140394   1.028   0.991  81.288 -1.3606  0.8422  0.1092
 6301TIP3    H240395   0.967   0.990  81.150 -0.2168 -0.1260 -0.4166
 6302TIP3   OH240396   0.624   1.859  97.805  0.2736  0.1607 -0.2684
 6302TIP3    H140397   0.693   1.794  97.794  0.9950  0.4342  2.0445
 6302TIP3    H240398   0.547   1.808  97.830 -0.7316 -0.2318 -3.6642
 6303TIP3   OH240399   2.070   1.926  92.425 -0.1655 -0.4354  0.0443
 6303TIP3    H140400   2.016   1.883  92.492  1.3941 -1.8901  0.4216
 6303TIP3    H240401   2.132   1.859  92.398  1.4239  1.1517 -0.4265
 6304TIP3   OH240402   0.729   2.184 109.156 -0.2299 -0.2849 -0.0944
 6304TIP3    H140403   0.689   2.116 109.210  2.0346 -1.8324 -0.2479
 6304TIP3    H240404   0.662   2.252 109.150 -1.3032 -0.8979  3.0339
 6305TIP3   OH240405   0.924   1.058  30.781 -0.4958  0.6956  0.2835
 6305TIP3    H140406   0.868   1.010  30.721 -0.8707  0.2781  0.9469
 6305TIP3    H240407   0.891   1.034  30.868  0.1071  1.1880  0.6548
 6306TIP3   OH240408   0.046   1.557  99.834 -0.0002 -0.0876  0.5502
 6306TIP3    H140409   0.083   1.609  99.763 -2.0582  1.8964  0.7981
 6306TIP3    H240410   0.098   1.477  99.835  3.1678  1.7835 -0.0845
 6307TIP3   OH240411   1.621   0.951  94.553 -0.2884  0.0930 -0.1860
 6307TIP3    H140412   1.603   1.002  94.474  0.5136  0.6937  0.0049
 6307TIP3    H240413   1.540   0.955  94.603 -1.2554 -1.3542 -1.5237
 6308TIP3   OH240414   1.055   1.115 105.528  0.1623 -0.0982  0.2630
 6308TIP3    H140415   1.047   1.064 105.609  0.8155 -0.0239  0.3757
 6308TIP3    H240416   1.016   1.059 105.461 -0.2959 -0.2020  0.6082
 6309TIP3   OH240417   1.058   1.016 109.656 -0.3017 -0.2127  0.3039
 6309TIP3    H140418   1.142   0.997 109.613 -0.1713 -0.4337  0.6435
 6309TIP3    H240419   1.005   1.056 109.588 -0.2924 -1.0599 -0.2277
 6310TIP3   OH240420   0.165   2.518  68.170 -0.4533  0.1177 -0.3414
 6310TIP3    H140421   0.108   2.460  68.121  0.0663 -0.0693 -0.7325
 6310TIP3    H240422   0.248   2.518  68.121 -0.2224  0.6329  0.0351
 6311TIP3   OH240423   2.276   1.716 106.660 -0.1363  0.1865  0.0259
 6311TIP3    H140424   2.271   1.713 106.564 -0.5326  1.0283  0.0087
 6311TIP3    H240425   2.313   1.632 106.684 -1.6525 -0.7640 -0.7696
 6312TIP3   OH240426   1.422   0.045  27.153 -0.1238  0.2355 -0.2148
 6312TIP3    H140427   1.497   0.104  27.166  0.6998 -0.8286 -0.0324
 6312TIP3    H240428   1.407   0.047  27.058  0.6385 -0.1338 -0.3512
 6313TIP3   OH240429   0.124   0.004 106.732 -0.4020  0.5649  0.3804
 6313TIP3    H140430   0.084   0.085 106.701  0.7913  0.4985 -1.4636
 6313TIP3    H240431   0.177   0.030 106.807  0.5472  1.6491 -0.6370
 6314TIP3   OH240432   0.782   2.047  17.008  0.0947 -0.0027  0.8087
 6314TIP3    H140433   0.740   1.975  17.055 -2.5021  1.1821  0.4708
 6314TIP3    H240434   0.814   2.105  17.077 -1.5858  0.5531  1.1713
 6315TIP3   OH240435   1.003   0.724  74.281 -0.7017  0.4689 -0.2886
 6315TIP3    H140436   1.022   0.645  74.333  1.3025  1.7234  1.0335
 6315TIP3    H240437   0.924   0.760  74.320 -1.7933 -0.9488 -1.0623
 6316TIP3   OH240438   1.121   2.509   2.739 -0.4634  0.3861 -0.0128
 6316TIP3    H140439   1.133   2.519   2.833 -2.1479 -0.1338  0.2999
 6316TIP3    H240440   1.027   2.494   2.728 -0.0820 -1.2126 -1.6276
 6317TIP3   OH240441   2.395   0.384  24.367 -0.3312 -0.3637  0.0965
 6317TIP3    H140442   2.422   0.293  24.351  0.2808 -0.1706 -0.0190
 6317TIP3    H240443   2.463   0.436  24.324 -1.1968  0.1548 -0.6667
 6318TIP3   OH240444   1.646   1.390  79.077  0.5209 -0.4214  0.0058
 6318TIP3    H140445   1.632   1.317  79.018 -1.3007 -0.4626  0.4133
 6318TIP3    H240446   1.586   1.458  79.046  1.4244  0.5234  0.2664
 6319TIP3   OH240447   1.950   0.487  35.871  0.4715 -0.0871  0.0398
 6319TIP3    H140448   1.908   0.404  35.850  0.0858  0.2503 -0.5401
 6319TIP3    H240449   1.886   0.533  35.926 -0.7842  1.1994 -2.3287
 6320TIP3   OH240450   0.449   1.091  85.923 -0.2243  0.4348 -0.6736
 6320TIP3    H140451   0.496   1.037  85.859  1.4348  0.2779  0.6034
 6320TIP3    H240452   0.364   1.106  85.883  1.4258  2.2246 -3.9590
 6321TIP3   OH240453   2.373   0.428 101.777 -0.3086  0.3720  0.5026
 6321TIP3    H140454   2.374   0.502 101.716 -2.5657 -0.2890 -0.4419
 6321TIP3    H240455   2.464   0.418 101.804  0.2519  2.7567 -0.2104
 6322TIP3   OH240456   2.523   1.929 107.793  0.1012  0.4865  0.0437
 6322TIP3    H140457   2.467   1.868 107.842 -0.3639  0.5363 -0.4246
 6322TIP3    H240458   2.600   1.939 107.848 -1.0340  1.7040  1.4918
 6323TIP3   OH240459   0.365   0.429  84.308 -0.0519 -0.1352  0.0801
 6323TIP3    H140460   0.336   0.520  84.302 -1.6944 -0.6318  0.0707
 6323TIP3    H240461   0.390   0.418  84.400  0.8790  0.5089 -0.0743
 6324TIP3   OH240462   1.906   0.306   5.312 -0.1652  0.0332  0.3136
 6324TIP3    H140463   1.881   0.215   5.333  1.4981 -0.5876 -0.2459
 6324TIP3    H240464   1.901   0.311   5.217  1.4621 -0.0477  0.1886
 6325TIP3   OH240465   2.578   1.487   4.663  0.2078 -0.3034  0.2624
 6325TIP3    H140466   2.629   1.512   4.586  0.7337 -0.2455  0.6193
 6325TIP3    H240467   2.638   1.432   4.715 -0.2819 -0.6981  0.4238
 6326TIP3   OH240468   1.362   2.263  76.408 -0.4050  0.8736  0.2303
 6326TIP3    H140469   1.398   2.293  76.491  2.5945  1.4175 -1.1296
 6326TIP3    H240470   1.436   2.222  76.363 -2.1266 -0.1809 -1.8574
 6327TIP3   OH240471   2.045   1.160  81.068  1.0804  0.7750 -0.2850
 6327TIP3    H140472   2.135   1.167  81.099  0.6402  1.6077  0.9323
 6327TIP3    H240473   2.041   1.077  81.021  2.3604  0.5114  0.0388
 6328TIP3   OH240474   0.400   1.528  35.477  0.5142  0.4942  0.3042
 6328TIP3    H140475   0.479   1.570  35.512  0.6335 -0.5556  1.3417
 6328TIP3    H240476   0.333   1.596  35.482  1.1806  1.1908  0.0329
 6329TIP3   OH240477   0.497   2.321  24.295  0.5252  0.4736 -0.4161
 6329TIP3    H140478   0.541   2.303  24.378 -0.0258 -0.0864 -0.2365
 6329TIP3    H240479   0.471   2.413  24.302 -1.1166 -0.0307  0.8168
 6330TIP3   OH240480   0.916   0.825  28.316  1.0182 -0.1482 -0.6351
 6330TIP3    H140481   0.993   0.837  28.372  0.6524 -1.7142  0.2607
 6330TIP3    H240482   0.948   0.772  28.243  1.3359  1.3256 -1.6168
 6331TIP3   OH240483   0.931   1.633  16.019  0.0314  0.1497  0.1496
 6331TIP3    H140484   0.923   1.617  15.925  0.1488  0.5881  0.0642
 6331TIP3    H240485   1.021   1.608  16.040  0.0587  0.2130  0.1114
 6332TIP3   OH240486   1.147   2.136 105.559  0.7617  0.0899  0.0689
 6332TIP3    H140487   1.093   2.104 105.631  0.3133 -0.1232 -0.3577
 6332TIP3    H240488   1.138   2.071 105.490  0.8659  0.4949 -0.3310
 6333TIP3   OH240489   2.288   0.584  28.034  0.1043  0.2452  0.7680
 6333TIP3    H140490   2.257   0.530  28.107 -0.4452 -2.6349 -1.4557
 6333TIP3    H240491   2.217   0.582  27.970  2.5498 -2.0340 -2.1925
 6334TIP3   OH240492   1.002   1.133  94.315  0.0389 -0.2079 -1.1549
 6334TIP3    H140493   0.970   1.223  94.318  0.1766 -0.1038 -2.4101
 6334TIP3    H240494   0.969   1.098  94.233 -0.6735 -1.5744 -0.3105
 6335TIP3   OH240495   1.701   1.347 109.625  0.2386  0.8922 -0.8578
 6335TIP3    H140496   1.654   1.408 109.681  0.3129  0.9007 -0.8033
 6335TIP3    H240497   1.712   1.394 109.542  0.8960  1.2043 -0.5949
 6336TIP3   OH240498   2.381   2.386  95.203 -0.0621  0.2125 -0.5960
 6336TIP3    H140499   2.437   2.446  95.153  1.5338 -0.8595 -0.1547
 6336TIP3    H240500   2.401   2.300  95.167  0.3051 -0.4580  1.1594
 6337TIP3   OH240501   0.560   2.539  21.277  0.0030 -0.2508 -0.2197
 6337TIP3    H140502   0.485   2.583  21.317  0.9023  1.0581  0.1080
 6337TIP3    H240503   0.627   2.540  21.345  0.0322 -2.3198 -0.1497
 6338TIP3   OH240504   1.763   2.175  93.134  0.5444  0.4887 -0.3210
 6338TIP3    H140505   1.856   2.154  93.132  0.7988  1.3113  1.0965
 6338TIP3    H240506   1.751   2.225  93.215 -1.5220 -1.4247  0.6665
 6339TIP3   OH240507   1.246   2.312 103.585 -0.2626 -0.4468  0.5751
 6339TIP3    H140508   1.321   2.253 103.596 -0.0461 -0.2589  0.1222
 6339TIP3    H240509   1.275   2.394 103.625 -0.0490 -0.2310 -0.0141
 6340TIP3   OH240510   1.743   2.049  99.710 -0.6612 -0.0691 -0.6726
 6340TIP3    H140511   1.838   2.060  99.722 -0.3681 -1.2244 -1.7979
 6340TIP3    H240512   1.728   1.955  99.719 -1.8304  0.1683  0.1691
 6341TIP3   OH240513   1.778   2.279  36.998 -0.1497  0.1001  0.8110
 6341TIP3    H140514   1.732   2.325  36.928  1.0755  0.5616  0.2874
 6341TIP3    H240515   1.796   2.346  37.064 -2.1095 -0.5067  2.0510
 6342TIP3   OH240516   2.460   2.335  34.250 -0.2550 -0.0688 -0.2542
 6342TIP3    H140517   2.495   2.327  34.339 -1.9729 -0.4993  0.4332
 6342TIP3    H240518   2.517   2.279  34.197  0.0175 -0.8665  0.8360
 6343TIP3   OH240519   0.298   1.969  13.316  0.2285 -0.0624  0.0860
 6343TIP3    H140520   0.325   2.061  13.322 -0.7218  0.1460  1.5104
 6343TIP3    H240521   0.210   1.973  13.278  0.5901 -0.4834 -0.8443
 6344TIP3   OH240522   2.182   2.227  45.846  0.3638  0.8698  0.6105
 6344TIP3    H140523   2.169   2.320  45.828 -0.6131  0.4467 -1.0877
 6344TIP3    H240524   2.277   2.217  45.855  0.4075  2.2133  2.1704
 6345TIP3   OH240525   2.039   0.602  76.883 -0.0564 -0.5965  0.3045
 6345TIP3    H140526   2.116   0.560  76.921  1.3097  2.7111  1.5141
 6345TIP3    H240527   1.985   0.626  76.959 -0.3788  0.5421 -0.2744
 6346TIP3   OH240528   2.553   0.704 107.733  0.1441 -0.0850  0.2568
 6346TIP3    H140529   2.477   0.674 107.684  0.3909  0.7681 -0.6748
 6346TIP3    H240530   2.609   0.627 107.740 -1.0531 -0.8927  1.4971
 6347TIP3   OH240531   2.532   0.581 105.535 -0.0446 -0.1806 -0.3655
 6347TIP3    H140532   2.518   0.580 105.440 -0.5598 -1.2308 -0.2861
 6347TIP3    H240533   2.454   0.624 105.570  0.5587  1.0299 -0.4642
 6348TIP3   OH240534   1.245   0.030  79.355  0.1588 -0.0899 -0.1677
 6348TIP3    H140535   1.308   0.053  79.287  0.2017 -0.3881 -0.2332
 6348TIP3    H240536   1.265  -0.061  79.377 -0.5714 -0.3522 -0.5500
 6349TIP3   OH240537   1.969   0.770   7.941 -0.2905  0.4695 -0.2731
 6349TIP3    H140538   1.984   0.679   7.966 -1.3224  0.1719 -0.6714
 6349TIP3    H240539   2.049   0.816   7.967  0.5599 -0.6835 -0.7701
 6350TIP3   OH240540   1.040   2.524  28.428  0.2025  0.2344 -0.3902
 6350TIP3    H140541   1.005   2.447  28.384 -0.0049  1.0091 -1.6378
 6350TIP3    H240542   1.041   2.501  28.520 -0.9396 -0.8345 -0.6249
 6351TIP3   OH240543   0.415   1.896   3.039 -0.3731  0.2602 -0.2955
 6351TIP3    H140544   0.439   1.973   3.090 -0.1735  0.2372 -0.3555
 6351TIP3    H240545   0.334   1.922   2.995 -0.2748  0.4582 -0.3641
 6352TIP3   OH240546   1.670   0.683  93.538  0.4417  0.0131  0.4867
 6352TIP3    H140547   1.746   0.643  93.582 -0.7636 -3.3402 -0.1653
 6352TIP3    H240548   1.596   0.661  93.595 -0.7411 -1.7966 -1.6097
 6353TIP3   OH240549   0.794   1.090  28.397 -0.1358  0.0871 -0.2844
 6353TIP3    H140550   0.827   1.021  28.340  0.4124 -0.8623  1.1247
 6353TIP3    H240551   0.845   1.081  28.477 -0.8969  1.3619  0.3721
 6354TIP3   OH240552   0.323   1.492   6.048  0.2884 -0.0976 -0.4351
 6354TIP3    H140553   0.310   1.564   6.110  0.9941 -0.6610  0.3999
 6354TIP3    H240554   0.247   1.495   5.991  0.5208  1.5833 -0.7093
 6355TIP3   OH240555   0.770   0.550  93.049  0.6990 -0.4056 -0.0913
 6355TIP3    H140556   0.848   0.605  93.047  0.0975  0.5535  1.1666
 6355TIP3    H240557   0.701   0.606  93.084 -0.4082 -1.4231 -0.5472
 6356TIP3   OH240558   0.190   0.211 105.442  0.2315  0.1198  0.1666
 6356TIP3    H140559   0.127   0.260 105.495  0.0870  0.8513 -0.6793
 6356TIP3    H240560   0.257   0.275 105.419  1.0690 -0.5456  0.6747
 6357TIP3   OH240561   0.033   1.982  21.730  0.2390  0.5041  0.7425
 6357TIP3    H140562   0.081   2.017  21.655 -0.6051  1.0532  0.4378
 6357TIP3    H240563   0.036   1.887  21.718  2.3645  0.4271  1.4572
 6358TIP3   OH240564   0.728   1.492   6.736 -0.4279  0.1236  0.4891
 6358TIP3    H140565   0.679   1.449   6.665 -0.2181 -0.3912  0.6555
 6358TIP3    H240566   0.795   1.542   6.691  0.0640 -0.6511  0.3378
 6359TIP3   OH240567   0.524   0.769  29.936 -0.2286 -0.1424 -0.3045
 6359TIP3    H140568   0.601   0.744  29.886 -0.2058 -1.4828  0.3790
 6359TIP3    H240569   0.500   0.691  29.985 -1.4168  0.5602  0.2819
 6360TIP3   OH240570   2.303   0.139  85.242  0.4335 -0.1908  0.3130
 6360TIP3    H140571   2.365   0.071  85.218 -0.6975 -0.5935 -1.6827
 6360TIP3    H240572   2.221   0.092  85.259 -0.3600  0.6084 -1.0956
 6361TIP3   OH240573   1.940   2.323  19.976  0.1210  0.0750 -0.1193
 6361TIP3    H140574   2.024   2.288  20.004  1.2980 -0.8840 -4.1099
 6361TIP3    H240575   1.891   2.246  19.945 -1.6049  0.8123  0.6279
 6362TIP3   OH240576   1.789   2.009   4.430  0.0781 -0.6613  0.6044
 6362TIP3    H140577   1.832   2.094   4.439  0.3206 -0.7338  0.1048
 6362TIP3    H240578   1.790   1.973   4.519  2.1386 -1.1952  0.4134
 6363TIP3   OH240579   0.976   0.384  75.877 -0.2705 -0.3814 -0.7594
 6363TIP3    H140580   0.958   0.291  75.859 -0.6675  0.1335 -3.5163
 6363TIP3    H240581   0.900   0.413  75.927  0.0347 -1.6123  0.4742
 6364TIP3   OH240582   0.395   1.903  82.796  0.3911  0.0701  0.1435
 6364TIP3    H140583   0.359   1.849  82.726  1.4581  0.4092 -0.7042
 6364TIP3    H240584   0.489   1.884  82.794  0.3346 -0.6712  2.1628
 6365TIP3   OH240585   0.768   0.743  36.021  0.0793 -0.2711  0.4135
 6365TIP3    H140586   0.687   0.744  36.072 -0.2961  1.1448 -0.1740
 6365TIP3    H240587   0.838   0.750  36.085 -0.2803 -0.9335  0.8879
 6366TIP3   OH240588   0.135   1.417  35.913 -0.7334 -0.7229  0.4105
 6366TIP3    H140589   0.140   1.322  35.909 -2.7002 -0.9987  2.5641
 6366TIP3    H240590   0.129   1.438  36.006 -0.0279  1.5620  0.0228
 6367TIP3   OH240591   0.846   0.232 108.577 -0.1417  0.2473 -0.0079
 6367TIP3    H140592   0.929   0.204 108.538  0.6343  0.5431  1.3524
 6367TIP3    H240593   0.838   0.180 108.657 -1.8384 -0.5640 -0.6553
 6368TIP3   OH240594   1.738   2.602  32.431 -0.5210  0.5436 -0.2603
 6368TIP3    H140595   1.804   2.553  32.480  1.2311  1.4361 -1.6535
 6368TIP3    H240596   1.655   2.560  32.455  0.6445 -1.4067  0.5854
 6369TIP3   OH240597   0.173   1.975  87.525  0.1319  0.3421 -0.6335
 6369TIP3    H140598   0.141   1.908  87.465  0.2940 -0.1413 -0.1884
 6369TIP3    H240599   0.251   2.010  87.483  0.7403 -0.5978 -0.3073
 6370TIP3   OH240600   0.391   0.705  52.501  0.1667  0.2551 -1.2168
 6370TIP3    H140601   0.407   0.788  52.547 -3.0726  0.2192  0.2385
 6370TIP3    H240602   0.446   0.711  52.423  1.0654  3.1969 -0.5066
 6371TIP3   OH240603   2.556   0.262  29.533 -0.2865 -0.1834 -0.4628
 6371TIP3    H140604   2.640   0.248  29.576 -0.3193  2.8806  0.8743
 6371TIP3    H240605   2.578   0.282  29.442  0.3574 -0.2529 -0.3248
 6372TIP3   OH240606   0.387   1.964  73.067 -0.6943  0.0753  0.2569
 6372TIP3    H140607   0.340   2.010  73.137 -0.1345  0.0691  0.6420
 6372TIP3    H240608   0.476   1.997  73.073 -0.7801  0.5409 -0.8577
 6373TIP3   OH240609   2.021   0.224 104.145  0.1379 -0.2372 -0.3218
 6373TIP3    H140610   1.980   0.169 104.212 -0.0465  1.1888  0.7790
 6373TIP3    H240611   2.107   0.184 104.131  0.0454 -0.7513  0.5300
 6374TIP3   OH240612   0.700   1.487 102.358  0.0265  0.1163  0.8572
 6374TIP3    H140613   0.721   1.560 102.300  0.8527 -0.4444  0.4344
 6374TIP3    H240614   0.780   1.436 102.363 -0.2855 -0.3030  1.8415
 6375TIP3   OH240615   0.997   2.512  23.106 -0.0400 -0.0438 -0.1790
 6375TIP3    H140616   1.049   2.432  23.095  1.6207  1.1438 -1.5866
 6375TIP3    H240617   0.969   2.535  23.017 -0.2981  1.0682  0.1674
 6376TIP3   OH240618   1.069   2.024   6.663  0.5812 -0.0865 -0.0476
 6376TIP3    H140619   1.103   2.099   6.711 -1.4034  1.2189 -0.5490
 6376TIP3    H240620   1.053   1.958   6.730  1.9802  0.0586  0.4622
 6377TIP3   OH240621   2.205   1.463 106.477 -0.3588 -0.1606  0.1398
 6377TIP3    H140622   2.268   1.452 106.405  0.6819  1.6933  0.7154
 6377TIP3    H240623   2.227   1.392 106.538  1.6608  0.8121  0.6345
 6378TIP3   OH240624   0.177   1.325  18.005 -0.4581 -0.3104 -0.2383
 6378TIP3    H140625   0.143   1.282  17.927  0.7419  0.5677 -1.2730
 6378TIP3    H240626   0.246   1.267  18.037 -0.0501 -0.0338 -0.6057
 6379TIP3   OH240627   2.324   1.767   2.602  0.4312  0.1432  0.2247
 6379TIP3    H140628   2.347   1.701   2.668  2.6006  0.5213 -0.1051
 6379TIP3    H240629   2.400   1.824   2.596 -0.4784  1.3008 -1.2201
 6380TIP3   OH240630   1.882   0.179  77.889  0.0809 -0.1137 -0.5671
 6380TIP3    H140631   1.903   0.102  77.941  0.1237 -0.5767 -1.2618
 6380TIP3    H240632   1.792   0.201  77.912 -0.4568 -1.2768 -1.4732
 6381TIP3   OH240633   1.742   2.483 100.540 -0.7663  0.0031 -0.3903
 6381TIP3    H140634   1.660   2.530 100.527 -1.0711  0.0236  1.3675
 6381TIP3    H240635   1.726   2.428 100.617  1.3919  1.2686  1.0427
 6382TIP3   OH240636   2.607   1.005  85.025 -0.1986 -0.0017  0.1755
 6382TIP3    H140637   2.599   0.987  84.931 -0.4799  1.4033 -0.0929
 6382TIP3    H240638   2.525   1.049  85.049 -0.4192 -0.9389  1.2417
 6383TIP3   OH240639   2.235   1.362 111.939 -0.1787 -0.0916  0.3080
 6383TIP3    H140640   2.268   1.410 112.016 -0.2177  0.8479 -0.2539
 6383TIP3    H240641   2.314   1.337 111.891 -0.1869  0.3057  0.0759
 6384TIP3   OH240642   2.116   0.001  81.529  0.2428  0.3912 -0.3406
 6384TIP3    H140643   2.199  -0.042  81.549 -0.0016 -1.1081 -2.2967
 6384TIP3    H240644   2.053  -0.038  81.589  0.5257 -0.1678 -0.3994
 6385TIP3   OH240645   2.284   2.252  88.015  0.2044  0.4416 -0.4602
 6385TIP3    H140646   2.243   2.259  88.101  1.9585  1.4072  0.3512
 6385TIP3    H240647   2.225   2.299  87.957 -0.8499  0.0453  0.2610
 6386TIP3   OH240648   2.466   1.038  20.402 -0.1412  0.2163  0.1802
 6386TIP3    H140649   2.447   0.960  20.455 -1.1233  0.0646 -0.3681
 6386TIP3    H240650   2.385   1.089  20.404  0.0927  0.6292 -0.4681
 6387TIP3   OH240651   1.909   0.108  88.777 -0.2336 -0.2735  0.1273
 6387TIP3    H140652   1.944   0.189  88.814 -1.8041  0.2308  0.5609
 6387TIP3    H240653   1.942   0.107  88.687 -1.6658  1.8151 -0.5027
 6388TIP3   OH240654   2.322   1.349  16.693  0.2618  0.1485  0.1484
 6388TIP3    H140655   2.344   1.371  16.783  2.5348  1.0232 -0.5597
 6388TIP3    H240656   2.321   1.253  16.691  1.8629  0.0911  0.7777
 6389TIP3   OH240657   2.440   1.408  21.843  0.0981  0.5207  0.3388
 6389TIP3    H140658   2.348   1.382  21.846  0.1182  0.4420  0.2758
 6389TIP3    H240659   2.465   1.416  21.935 -0.9069  3.8769  0.4320
 6390TIP3   OH240660   2.456   0.325  85.010 -0.2693  0.0449 -0.3331
 6390TIP3    H140661   2.534   0.355  84.963  0.3933  0.2106  0.8512
 6390TIP3    H240662   2.454   0.230  84.995  0.6564 -0.0885  0.3460
 6391TIP3   OH240663   1.814   0.516  27.826  0.2873 -0.3945 -0.4124
 6391TIP3    H140664   1.811   0.544  27.917 -1.2968 -2.1615  0.1547
 6391TIP3    H240665   1.778   0.591  27.777  1.5735  0.7447  0.3191
 6392TIP3   OH240666   0.951   2.193  95.768  0.2208  0.0880  0.0389
 6392TIP3    H140667   0.964   2.171  95.675  1.6779  0.0205  0.2271
 6392TIP3    H240668   0.945   2.288  95.769 -0.2892  0.0606 -0.1708
 6393TIP3   OH240669   1.974   0.305   1.756 -0.2983  0.1295 -0.6539
 6393TIP3    H140670   2.020   0.388   1.742  0.9850 -0.6906 -1.5357
 6393TIP3    H240671   1.889   0.317   1.713 -0.7141  1.4679  0.4852
 6394TIP3   OH240672   1.817   1.450  73.402 -0.2803 -0.0990  0.3033
 6394TIP3    H140673   1.800   1.531  73.450 -3.5937 -0.6149  0.2522
 6394TIP3    H240674   1.811   1.475  73.310  0.4788 -0.0925  0.2551
 6395TIP3   OH240675   1.930   1.614 105.816  0.1134  0.0314  0.3789
 6395TIP3    H140676   1.849   1.562 105.813  0.8489 -1.2032  0.9382
 6395TIP3    H240677   1.994   1.555 105.856  1.9550  0.0317 -2.2694
 6396TIP3   OH240678   2.453   2.501  24.239 -0.1279  0.2491 -0.3785
 6396TIP3    H140679   2.373   2.537  24.278 -0.0630  0.8444 -0.7813
 6396TIP3    H240680   2.439   2.508  24.145 -0.0055 -0.5691 -0.4670
 6397TIP3   OH240681   1.961   0.728  94.252 -0.3226 -0.5133 -0.3704
 6397TIP3    H140682   1.910   0.714  94.173  0.4232 -0.0063 -0.9547
 6397TIP3    H240683   2.049   0.749  94.220 -0.1715  0.3432  0.5753
 6398TIP3   OH240684   0.460   2.432  90.515  0.5021 -0.6119  0.2680
 6398TIP3    H140685   0.514   2.498  90.471  0.9920 -0.8463  0.5036
 6398TIP3    H240686   0.477   2.446  90.608 -1.5481  0.7668  0.5043
 6399TIP3   OH240687   0.417   1.481 110.886 -0.1121 -0.1810  0.1662
 6399TIP3    H140688   0.511   1.497 110.886 -0.1147 -0.1559  0.3774
 6399TIP3    H240689   0.380   1.561 110.924 -0.2578  0.0339 -0.4186
 6400TIP3   OH240690   1.972   0.027  90.402 -0.1975 -0.1614 -0.2454
 6400TIP3    H140691   1.911  -0.036  90.439 -0.6151  0.7596  0.6857
 6400TIP3    H240692   1.918   0.102  90.379  0.3660  0.0672 -0.8642
 6401TIP3   OH240693   1.353   1.317   5.787  0.1305  0.7535 -0.0565
 6401TIP3    H140694   1.446   1.317   5.765  0.3950  0.7748  0.9992
 6401TIP3    H240695   1.338   1.401   5.829 -0.4482  0.8959 -0.5522
 6402TIP3   OH240696   0.340   1.346  84.338  0.4515  0.1012 -0.6812
 6402TIP3    H140697   0.336   1.440  84.324 -0.2196  0.1670 -0.0942
 6402TIP3    H240698   0.372   1.310  84.255  1.7311  0.9292 -0.5688
 6403TIP3   OH240699   0.525   0.455  76.169  0.6669  0.1597  0.1125
 6403TIP3    H140700   0.446   0.471  76.117 -0.1085 -1.0393  0.8798
 6403TIP3    H240701   0.499   0.389  76.233  2.4526 -0.6706  0.0351
 6404TIP3   OH240702   2.270   1.069  82.754 -0.0623  0.8132 -0.0262
 6404TIP3    H140703   2.211   1.141  82.778  0.0127  0.5141  1.1152
 6404TIP3    H240704   2.310   1.097  82.672 -0.7420  1.6477 -0.0836
 6405TIP3   OH240705   0.156   2.159  89.850  0.0512 -0.1931  0.5832
 6405TIP3    H140706   0.206   2.091  89.805  0.1432 -0.7621  1.5115
 6405TIP3    H240707   0.217   2.193  89.916  0.5512  1.8923 -0.8552
 6406TIP3   OH240708   1.951   1.552  27.853 -0.2165 -0.2669  0.3224
 6406TIP3    H140709   2.011   1.613  27.896 -0.1430 -0.9548  1.2252
 6406TIP3    H240710   1.885   1.608  27.812  1.0857  0.5137 -0.7983
 6407TIP3   OH240711   0.986   1.349  19.606  0.1773  0.1821 -0.1675
 6407TIP3    H140712   0.997   1.273  19.550 -2.1076 -1.1247  1.0103
 6407TIP3    H240713   1.039   1.330  19.684  0.5675  0.3760 -0.3826
 6408TIP3   OH240714   2.247   0.028  11.085  0.0018  0.2254 -0.4360
 6408TIP3    H140715   2.185  -0.008  11.021 -1.1357 -0.6386  1.0727
 6408TIP3    H240716   2.193   0.084  11.141  0.6103 -0.3174  0.7409
 6409TIP3   OH240717   2.258   1.392  22.741  0.4058 -0.1958 -0.1937
 6409TIP3    H140718   2.353   1.385  22.748  0.3763  0.5316  1.3603
 6409TIP3    H240719   2.225   1.355  22.823 -0.6921 -0.7516 -0.8529
 6410TIP3   OH240720   0.544   0.547  23.903  0.0589 -0.1709  0.0467
 6410TIP3    H140721   0.554   0.452  23.901 -1.8665 -0.4421 -2.5401
 6410TIP3    H240722   0.486   0.566  23.829  0.4948  3.0459  0.4003
 6411TIP3   OH240723   0.303   1.465  93.011 -0.1889 -0.1113 -0.3947
 6411TIP3    H140724   0.250   1.407  92.956  1.7393 -0.9584 -1.4452
 6411TIP3    H240725   0.255   1.548  93.011 -0.4664 -0.1850 -3.0538
 6412TIP3   OH240726   1.873   2.320  91.998  0.3681  0.1735  0.3568
 6412TIP3    H140727   1.835   2.336  91.911  1.2358  0.1897 -0.0351
 6412TIP3    H240728   1.825   2.244  92.031 -0.8756  0.9604  0.4343
 6413TIP3   OH240729   1.803   2.517  36.129 -0.1122 -0.2989  0.2039
 6413TIP3    H140730   1.782   2.610  36.127 -0.4541 -0.3623  0.6957
 6413TIP3    H240731   1.892   2.513  36.166 -0.3388 -0.2043  0.7659
 6414TIP3   OH240732   0.735   1.572  30.586 -0.0974  0.5588  0.3789
 6414TIP3    H140733   0.639   1.568  30.581 -0.0675 -0.7515  0.5545
 6414TIP3    H240734   0.761   1.615  30.504 -0.7268 -1.3648 -0.8972
 6415TIP3   OH240735   1.646   0.488  15.599  0.6143 -0.3691  0.0180
 6415TIP3    H140736   1.557   0.485  15.633  0.5112  2.1253  0.2116
 6415TIP3    H240737   1.698   0.437  15.661 -0.5251 -1.1052  0.3947
 6416TIP3   OH240738   2.463   0.490  76.214 -0.5208  0.5234 -0.6647
 6416TIP3    H140739   2.505   0.416  76.170 -0.6621  1.3119 -2.2052
 6416TIP3    H240740   2.485   0.566  76.159 -3.1270  1.1138 -1.0247
 6417TIP3   OH240741   1.760   1.695  84.553  0.0165  0.0675  0.4098
 6417TIP3    H140742   1.830   1.728  84.610 -2.3400  1.0713  2.9988
 6417TIP3    H240743   1.711   1.773  84.527 -1.8092 -0.7661  1.1405
 6418TIP3   OH240744   2.343   0.807 108.730  0.2643  0.1428 -0.1306
 6418TIP3    H140745   2.405   0.863 108.684  1.7668 -0.2240  1.3385
 6418TIP3    H240746   2.258   0.851 108.720  0.9239  1.2034 -1.3184
 6419TIP3   OH240747   1.343   2.500  27.275  0.6418  0.1701 -0.4658
 6419TIP3    H140748   1.364   2.440  27.203 -0.2508 -0.7754  0.0374
 6419TIP3    H240749   1.379   2.585  27.247  3.0978 -0.8307 -0.6377
 6420TIP3   OH240750   2.007   2.050  85.777  0.0635 -0.3766 -0.0313
 6420TIP3    H140751   2.100   2.035  85.797  0.0335 -1.2853 -0.5391
 6420TIP3    H240752   1.965   2.052  85.863  0.1273 -3.0099  0.1414
 6421TIP3   OH240753   2.635   2.343  93.981 -0.1054  0.1467 -0.9226
 6421TIP3    H140754   2.728   2.342  93.956  0.2475  1.0306  0.2687
 6421TIP3    H240755   2.626   2.268  94.039 -0.3787 -0.4995 -1.7737
 6422TIP3   OH240756   1.047   0.977  15.033 -0.2869  0.0020  0.1316
 6422TIP3    H140757   1.112   1.045  15.012  0.0377  0.3887  2.2137
 6422TIP3    H240758   0.964   1.014  15.002 -0.0358  1.1221  0.7160
 6423TIP3   OH240759   1.773   1.568 107.395  0.3241 -0.4730  0.6540
 6423TIP3    H140760   1.725   1.486 107.386 -1.2897  0.6197 -1.8915
 6423TIP3    H240761   1.851   1.558 107.340 -1.8519  0.8785 -3.0719
 6424TIP3   OH240762   1.498   0.999   4.943  0.1936 -0.2701 -1.0799
 6424TIP3    H140763   1.580   1.029   4.981  0.7638 -3.6610  0.6876
 6424TIP3    H240764   1.525   0.948   4.866 -0.3312 -0.7114 -0.9723
 6425TIP3   OH240765   0.928   1.062  87.644 -0.0092  0.4810 -0.5172
 6425TIP3    H140766   0.872   1.013  87.705  0.2220 -1.2123 -1.5954
 6425TIP3    H240767   1.014   1.021  87.653  0.2814  0.9258 -1.2169
 6426TIP3   OH240768   1.657   0.055  27.739 -0.0022  0.0141  0.0948
 6426TIP3    H140769   1.643   0.128  27.799  1.1340  0.1940  0.1690
 6426TIP3    H240770   1.638  -0.023  27.792 -1.5954  0.2395 -0.0967
 6427TIP3   OH240771   1.530   0.625 109.719 -0.0529  0.2159  0.5556
 6427TIP3    H140772   1.512   0.704 109.668  0.0886  0.4910  0.9295
 6427TIP3    H240773   1.590   0.654 109.788  0.0072 -0.2164  0.6941
 6428TIP3   OH240774   0.457   1.833  31.434 -0.0454  0.3976  0.0147
 6428TIP3    H140775   0.377   1.781  31.448  0.3960 -0.4199 -0.4174
 6428TIP3    H240776   0.427   1.924  31.438 -1.1851  0.1017 -1.1667
 6429TIP3   OH240777   2.336   2.362 111.008  0.0707 -0.2926 -0.2568
 6429TIP3    H140778   2.380   2.446 111.001 -1.5976  0.6839  0.4775
 6429TIP3    H240779   2.280   2.370 111.086 -1.0248 -1.6418 -0.8555
 6430TIP3   OH240780   1.593   0.585  26.600  0.3100 -0.3161  0.2260
 6430TIP3    H140781   1.600   0.508  26.657  1.0407  0.4493  1.1797
 6430TIP3    H240782   1.638   0.559  26.520 -1.2443 -1.6187 -0.2844
 6431TIP3   OH240783   1.071   0.393  21.937 -0.7968  0.0447 -0.3150
 6431TIP3    H140784   0.979   0.414  21.950 -0.8573 -0.2915 -0.1768
 6431TIP3    H240785   1.105   0.464  21.883 -1.1888  0.0542 -0.5517
 6432TIP3   OH240786   0.685   1.059  25.946  0.0112 -0.2730  0.1915
 6432TIP3    H140787   0.737   1.139  25.948  1.8019 -1.2559 -1.9068
 6432TIP3    H240788   0.643   1.060  25.860  1.2234 -2.1864 -0.4964
 6433TIP3   OH240789   0.797   1.930   1.555  0.2122  0.5754  0.2146
 6433TIP3    H140790   0.839   1.982   1.623  1.9062  0.0458 -0.3711
 6433TIP3    H240791   0.846   1.952   1.475  0.0158 -0.8019 -0.3071
 6434TIP3   OH240792   0.409   0.806  97.626  0.0016  0.6645 -0.5678
 6434TIP3    H140793   0.407   0.887  97.574 -1.7260  0.5607 -0.7353
 6434TIP3    H240794   0.319   0.773  97.621  0.5398 -0.9620 -0.0130
 6435TIP3   OH240795   1.307   2.074  20.536 -0.2562 -0.4332 -0.2695
 6435TIP3    H140796   1.247   2.145  20.514 -1.0355 -1.1938 -0.6917
 6435TIP3    H240797   1.251   2.008  20.579  0.4355 -0.8060  0.0748
 6436TIP3   OH240798   0.271   1.454 107.112  0.3753 -0.0178 -0.0271
 6436TIP3    H140799   0.231   1.377 107.151  1.7632 -0.2624  1.0051
 6436TIP3    H240800   0.363   1.450 107.140  0.7093  1.4620 -0.7961
 6437TIP3   OH240801   2.149   1.285 108.314 -0.1372 -0.0878 -0.3569
 6437TIP3    H140802   2.133   1.343 108.239 -0.6732 -0.6068 -0.6548
 6437TIP3    H240803   2.220   1.327 108.362 -0.1640  0.5436 -0.8535
 6438TIP3   OH240804   2.184   1.371  13.321  0.5937 -0.3829 -0.2393
 6438TIP3    H140805   2.275   1.402  13.321  0.5716 -0.2885 -1.2075
 6438TIP3    H240806   2.132   1.451  13.323  0.5352 -0.2699 -2.9194
 6439TIP3   OH240807   0.892   1.797  10.507  0.2111  0.6038  0.5514
 6439TIP3    H140808   0.890   1.841  10.592  1.5230  1.5888  0.1070
 6439TIP3    H240809   0.915   1.707  10.527  1.6936  1.0888  1.1951
 6440TIP3   OH240810   0.549   0.861   1.100 -0.0808  0.1707 -0.0484
 6440TIP3    H140811   0.562   0.897   1.012 -0.1227  0.2964 -0.0039
 6440TIP3    H240812   0.630   0.880   1.146 -0.0998  0.2014 -0.0274
 6441TIP3   OH240813   2.189   1.177  21.030  0.2293  0.2477  0.7152
 6441TIP3    H140814   2.141   1.206  20.953 -0.3462  0.0659  1.0010
 6441TIP3    H240815   2.225   1.092  21.006  0.4024  0.3782  0.5055
 6442TIP3   OH240816   0.685   1.254  25.515 -0.4088 -0.1141 -0.1703
 6442TIP3    H140817   0.745   1.320  25.480 -0.3428  0.2738  0.6561
 6442TIP3    H240818   0.614   1.304  25.554  0.4835 -0.4161  2.0251
 6443TIP3   OH240819   2.590   1.188  75.110 -0.2175 -0.2237  0.1202
 6443TIP3    H140820   2.528   1.258  75.088 -0.2889 -0.7034 -1.3679
 6443TIP3    H240821   2.662   1.200  75.048 -0.5582 -1.8578 -0.6497
 6444TIP3   OH240822   2.649   0.397 102.522 -0.4423  0.2415  0.2889
 6444TIP3    H140823   2.660   0.318 102.468 -0.0612  0.0831  0.5986
 6444TIP3    H240824   2.655   0.469 102.459 -0.6941  0.0360  0.0189
 6445TIP3   OH240825   2.679   0.676 104.830  0.1516 -0.4604 -0.1729
 6445TIP3    H140826   2.605   0.622 104.801  0.5081 -0.8055 -0.4315
 6445TIP3    H240827   2.757   0.626 104.806  0.4963  0.3871 -0.8537
 6446TIP3   OH240828   1.607   1.418  21.867 -0.6941  0.7182 -0.3331
 6446TIP3    H140829   1.603   1.391  21.959 -1.1789 -0.2740 -0.6363
 6446TIP3    H240830   1.604   1.336  21.817  2.5541  0.9803 -1.2034
 6447TIP3   OH240831   1.735   0.034 104.914  0.3717 -0.0309  0.1224
 6447TIP3    H140832   1.784  -0.041 104.945  0.4501  0.7794  2.1093
 6447TIP3    H240833   1.660   0.041 104.974 -0.9862  0.0641 -1.4935
 6448TIP3   OH240834   0.320   1.500 108.878 -0.1800 -0.3546 -0.3949
 6448TIP3    H140835   0.228   1.503 108.906 -0.5010  2.1111 -1.4584
 6448TIP3    H240836   0.366   1.559 108.938  0.3438 -0.1289 -1.0063
 6449TIP3   OH240837   1.050   0.198  91.416  0.2513  0.1561 -0.2579
 6449TIP3    H140838   0.987   0.161  91.354 -1.6548  0.5194  1.3950
 6449TIP3    H240839   1.069   0.127  91.477  0.8663  0.2825 -0.2931
 6450TIP3   OH240840   1.381   0.907  19.401  0.7733 -0.0508  0.3522
 6450TIP3    H140841   1.374   0.850  19.477  0.2847 -1.2313 -0.5533
 6450TIP3    H240842   1.377   0.848  19.326  0.2043  1.1745 -0.6198
 6451TIP3   OH240843   1.233   0.332  81.350 -0.1925 -0.2854  0.2375
 6451TIP3    H140844   1.202   0.271  81.417  0.0846  1.2783  1.8934
 6451TIP3    H240845   1.220   0.418  81.389  1.7155  0.6239 -0.9649
 6452TIP3   OH240846   1.397   1.340  18.530  0.4278  0.8984 -0.1326
 6452TIP3    H140847   1.338   1.298  18.467  0.8997  0.9955 -0.6502
 6452TIP3    H240848   1.379   1.296  18.613 -1.1605  1.6740 -0.0265
 6453TIP3   OH240849   0.358   0.939   8.071 -0.5307 -0.3857 -0.1111
 6453TIP3    H140850   0.392   0.855   8.102  0.6363 -0.2966 -1.0854
 6453TIP3    H240851   0.309   0.918   7.992  0.0292 -0.1302 -0.5355
 6454TIP3   OH240852   0.577   0.904  81.841 -0.3205 -0.0917 -0.5319
 6454TIP3    H140853   0.570   0.919  81.747  2.0595 -0.2593 -0.8095
 6454TIP3    H240854   0.521   0.971  81.881  0.8304  1.8650 -2.0172
 6455TIP3   OH240855   1.240   1.129  27.981 -0.1912 -0.3608 -0.0373
 6455TIP3    H140856   1.162   1.078  27.960 -1.0986  1.1712 -0.5516
 6455TIP3    H240857   1.311   1.065  27.984 -1.3716 -1.7098 -0.1016
 6456TIP3   OH240858   1.924   0.454  18.652 -0.2182 -0.0051 -0.0543
 6456TIP3    H140859   1.939   0.485  18.563  0.6994 -1.8376 -0.5702
 6456TIP3    H240860   1.987   0.503  18.705 -0.9855  1.3265 -0.3244
 6457TIP3   OH240861   1.017   2.475  22.392  0.0820  0.6606 -0.4228
 6457TIP3    H140862   1.104   2.437  22.403  0.2688  1.3722  0.6766
 6457TIP3    H240863   0.957   2.401  22.399  0.5245  0.3423  0.0661
 6458TIP3   OH240864   2.421   2.568  32.130  0.4491 -0.0887 -0.1381
 6458TIP3    H140865   2.331   2.600  32.143  0.2061 -1.2791  1.3120
 6458TIP3    H240866   2.476   2.632  32.175  0.2458  0.0775 -0.1244
 6459TIP3   OH240867   0.682   1.805  89.623 -0.6312  0.4714  0.2809
 6459TIP3    H140868   0.637   1.763  89.549  0.4166  1.3768 -0.9345
 6459TIP3    H240869   0.728   1.879  89.583 -0.5738  1.3876  1.9730
 6460TIP3   OH240870   2.347   1.898  86.868  0.3566 -0.3346  0.3676
 6460TIP3    H140871   2.386   1.970  86.918  0.5929 -0.0645 -0.2000
 6460TIP3    H240872   2.411   1.878  86.800  0.4090 -1.2591  0.6720
 6461TIP3   OH240873   0.548   0.564  90.520  0.1201 -0.5837  0.0369
 6461TIP3    H140874   0.542   0.488  90.578  2.0995 -1.1261 -0.3840
 6461TIP3    H240875   0.635   0.557  90.481 -0.6968  0.4053 -2.1228
 6462TIP3   OH240876   1.740   1.663  33.754 -0.2357  0.0032  0.0759
 6462TIP3    H140877   1.744   1.759  33.748  0.1465 -0.0422 -0.4759
 6462TIP3    H240878   1.648   1.644  33.774 -0.7505  0.3975 -1.7559
 6463TIP3   OH240879   1.293   2.039 109.032 -0.3132 -0.0320 -0.2621
 6463TIP3    H140880   1.375   2.077 109.000  0.1621 -0.5433  0.3262
 6463TIP3    H240881   1.248   2.009 108.954  0.3775 -0.3745 -0.5409
 6464TIP3   OH240882   2.340   0.207  31.540 -0.3992 -0.5601 -0.0579
 6464TIP3    H140883   2.370   0.181  31.627 -0.2694  0.5779  0.2580
 6464TIP3    H240884   2.268   0.147  31.520 -0.4528 -0.8140  0.8466
 6465TIP3   OH240885   2.158   0.704  98.162 -0.3552 -0.0150  0.1418
 6465TIP3    H140886   2.153   0.624  98.214 -0.2605 -0.1711 -0.0943
 6465TIP3    H240887   2.105   0.767  98.211  0.1762 -0.0049  0.7287
 6466TIP3   OH240888   2.600   2.557  14.523  0.0231 -0.3610  0.2486
 6466TIP3    H140889   2.693   2.573  14.540  0.2498  0.0809 -1.2420
 6466TIP3    H240890   2.554   2.611  14.588  0.8250  2.3819 -1.2967
 6467TIP3   OH240891   2.531   1.797  74.395 -0.0238 -0.2145 -0.0101
 6467TIP3    H140892   2.497   1.738  74.328  0.8443  0.0013 -0.6666
 6467TIP3    H240893   2.480   1.877  74.384 -0.1976 -0.3363 -0.1080
 6468TIP3   OH240894   2.516   1.919   6.894  0.0275  0.3155 -0.2816
 6468TIP3    H140895   2.574   1.993   6.911 -0.3638  0.5970 -0.1367
 6468TIP3    H240896   2.492   1.888   6.982 -1.4765  1.3520 -0.2860
 6469TIP3   OH240897   1.597   0.943  34.175 -0.2174  0.4036 -0.2494
 6469TIP3    H140898   1.670   0.936  34.113 -1.0726  1.3621 -1.4114
 6469TIP3    H240899   1.624   0.888  34.249  0.4928 -1.4723 -1.7810
 6470TIP3   OH240900   2.393   1.537  30.774 -0.5594 -0.1506  0.5680
 6470TIP3    H140901   2.349   1.612  30.734 -0.4575 -1.1325 -1.5431
 6470TIP3    H240902   2.486   1.557  30.767 -0.4429 -1.0960 -1.5441
 6471TIP3   OH240903   0.559   1.251  75.853 -0.7487  0.5490  0.0894
 6471TIP3    H140904   0.546   1.156  75.844  0.6366  0.4044 -0.7819
 6471TIP3    H240905   0.642   1.267  75.808 -0.6632  2.0936  0.7548
 6472TIP3   OH240906   1.169   2.006 110.247  0.1277 -0.2753  0.6025
 6472TIP3    H140907   1.230   1.983 110.178  0.5867  0.6654  0.6808
 6472TIP3    H240908   1.145   1.923 110.287  0.0120 -0.8070 -0.5486
 6473TIP3   OH240909   0.373   1.502  75.852  0.1490  0.1262 -0.2478
 6473TIP3    H140910   0.342   1.575  75.905  0.9476 -0.8406  1.6516
 6473TIP3    H240911   0.463   1.487  75.881 -0.0441 -1.6982 -0.4310
 6474TIP3   OH240912   0.681   2.618  76.640  0.1829 -0.4023  0.1005
 6474TIP3    H140913   0.658   2.600  76.730 -0.3910 -0.7471 -0.1098
 6474TIP3    H240914   0.776   2.629  76.642 -0.0763  2.4049  1.2219
 6475TIP3   OH240915   1.562   0.389 109.277  0.2854  0.1880  0.4613
 6475TIP3    H140916   1.495   0.454 109.296  0.4360  0.1902  0.9950
 6475TIP3    H240917   1.513   0.308 109.260  0.1734 -0.1757  2.2887
 6476TIP3   OH240918   0.685   1.552 105.346  0.2288  0.1275 -0.0534
 6476TIP3    H140919   0.695   1.462 105.375 -1.5273 -0.3621 -0.8142
 6476TIP3    H240920   0.752   1.564 105.279  0.0794 -0.8373 -0.3882
 6477TIP3   OH240921   0.583   0.682  75.597 -0.1060  0.3520  0.4992
 6477TIP3    H140922   0.512   0.716  75.652  0.2437  1.9207  0.0154
 6477TIP3    H240923   0.544   0.675  75.510  0.1850  0.7018  0.3434
 6478TIP3   OH240924   1.189   1.280  21.832  0.0981  0.2037 -0.2971
 6478TIP3    H140925   1.249   1.309  21.763  1.6680 -0.6298  0.6475
 6478TIP3    H240926   1.165   1.191  21.807  2.2100 -0.8465  1.1081
 6479TIP3   OH240927   1.371   0.299  95.460  0.5224  0.2114  0.3492
 6479TIP3    H140928   1.351   0.380  95.507  0.2730  0.4489 -0.1606
 6479TIP3    H240929   1.363   0.322  95.368 -0.5265 -0.6427  0.2193
 6480TIP3   OH240930   1.330   2.139 108.650  0.1798  0.1665 -0.5829
 6480TIP3    H140931   1.278   2.059 108.640  0.8097 -0.4515  0.7668
 6480TIP3    H240932   1.404   2.112 108.705 -0.2492  1.9244  0.9613
 6481TIP3   OH240933   1.105   0.558  32.301  0.2413 -0.2581  0.1068
 6481TIP3    H140934   1.086   0.536  32.209 -0.4563  1.9528 -0.3468
 6481TIP3    H240935   1.200   0.562  32.306  0.3214 -1.4998 -0.2239
 6482TIP3   OH240936   0.872   2.039  96.158 -0.4001 -0.0198 -0.1973
 6482TIP3    H140937   0.801   2.101  96.140 -0.1090  0.2364 -0.4618
 6482TIP3    H240938   0.846   1.997  96.241 -0.1034  1.1753  0.5233
 6483TIP3   OH240939   2.013   0.037  33.043 -0.0897  0.2484  0.4807
 6483TIP3    H140940   1.995  -0.026  33.112 -0.2159  1.0014  1.1507
 6483TIP3    H240941   1.992   0.122  33.082 -1.1694  0.6154 -0.8157
 6484TIP3   OH240942   0.687   0.172  17.746  0.7914 -0.2371 -0.0003
 6484TIP3    H140943   0.701   0.125  17.664 -2.3701  0.0213 -0.8171
 6484TIP3    H240944   0.708   0.263  17.725 -1.1513  0.0363 -0.9633
 6485TIP3   OH240945   0.855   0.589  82.398  0.6006  0.0439  0.0467
 6485TIP3    H140946   0.887   0.664  82.449 -0.1082  1.1653 -1.1030
 6485TIP3    H240947   0.761   0.589  82.414 -0.0275  1.8608 -2.9882
 6486TIP3   OH240948   0.808   1.331  84.868  0.0282  0.8393  0.2873
 6486TIP3    H140949   0.734   1.347  84.809  0.4052  2.1158  0.1322
 6486TIP3    H240950   0.860   1.412  84.864  0.9145  0.3333  1.1394
 6487TIP3   OH240951   1.320   1.094  74.597 -0.2768  0.3987 -0.0055
 6487TIP3    H140952   1.415   1.087  74.605 -0.2942  1.3924  1.7404
 6487TIP3    H240953   1.305   1.130  74.510  0.8229 -1.1799 -0.8915
 6488TIP3   OH240954   0.387   2.065  44.957 -0.1435  0.0014  0.4281
 6488TIP3    H140955   0.393   2.110  44.873 -1.6661  1.0729  0.8502
 6488TIP3    H240956   0.362   2.133  45.019 -3.0123 -1.4180  0.9936
 6489TIP3   OH240957   1.366   0.786  31.016 -0.1178 -0.1824  0.0656
 6489TIP3    H140958   1.384   0.818  31.105  1.3685 -1.8747  0.4288
 6489TIP3    H240959   1.275   0.756  31.020 -0.0594 -0.2854  1.0474
 6490TIP3   OH240960   0.526   1.851  78.704  0.0054 -0.8781  0.1958
 6490TIP3    H140961   0.602   1.890  78.662 -0.2829 -0.8913 -0.3511
 6490TIP3    H240962   0.537   1.870  78.797 -0.4154  1.0244 -0.1012
 6491TIP3   OH240963   0.017   0.567  57.869  0.1952 -0.6211 -0.4496
 6491TIP3    H140964   0.067   0.578  57.950  1.2639 -0.7628 -1.0866
 6491TIP3    H240965   0.005   0.656  57.836 -2.1403 -0.3156  0.9429
 6492TIP3   OH240966   1.457   0.078  96.970 -0.1057 -0.1835 -0.3396
 6492TIP3    H140967   1.501   0.074  97.054 -1.4785  1.4857  0.5243
 6492TIP3    H240968   1.385   0.016  96.978  0.4223 -0.8632 -0.7261
 6493TIP3   OH240969   2.071   1.038 104.005  0.0472  0.0102 -0.4498
 6493TIP3    H140970   2.058   1.129 103.977  1.5716  0.1624 -0.7742
 6493TIP3    H240971   2.078   1.043 104.100  0.7474  0.3301 -0.5141
 6494TIP3   OH240972   0.618   0.892 100.243 -0.9244  0.2106 -0.3547
 6494TIP3    H140973   0.667   0.823 100.287  0.4046  0.3684 -1.5059
 6494TIP3    H240974   0.567   0.933 100.313 -0.9143 -1.2212  0.5349
 6495TIP3   OH240975   2.458   1.709  21.838  0.3441  0.3538 -0.2708
 6495TIP3    H140976   2.402   1.749  21.905 -0.0084  0.4080 -0.5953
 6495TIP3    H240977   2.453   1.615  21.856 -0.8871  0.2431 -1.0781
 6496TIP3   OH240978   1.482   0.536   4.344 -0.5335  0.1429 -0.0786
 6496TIP3    H140979   1.465   0.493   4.261  1.7429 -0.5447 -0.2653
 6496TIP3    H240980   1.548   0.602   4.324 -1.1866  1.1266  0.8960
 6497TIP3   OH240981   2.076   0.204  58.607  0.2737  0.0219  0.0138
 6497TIP3    H140982   2.147   0.139  58.601  0.0982 -0.2693  0.9094
 6497TIP3    H240983   2.091   0.247  58.691  0.0174  0.7087 -0.2895
 6498TIP3   OH240984   0.641   1.297 105.163  0.6669 -0.0424  0.4057
 6498TIP3    H140985   0.737   1.290 105.166  0.5615 -2.1831 -0.0917
 6498TIP3    H240986   0.622   1.312 105.070  0.4043 -3.0136 -0.1043
 6499TIP3   OH240987   0.150   1.882  80.755 -0.1793 -0.2121 -0.3694
 6499TIP3    H140988   0.103   1.942  80.697  0.7698 -0.6796 -1.6623
 6499TIP3    H240989   0.134   1.796  80.717  0.7183 -0.4981 -0.1153
 6500TIP3   OH240990   0.673   2.564  29.818 -0.2655 -0.3923 -0.2922
 6500TIP3    H140991   0.764   2.552  29.789  0.3881 -0.9758  1.8016
 6500TIP3    H240992   0.640   2.475  29.831  0.0267 -0.2293  2.1154
 6501TIP3   OH240993   2.009   1.204  96.804  0.1001  0.1142  0.2213
 6501TIP3    H140994   2.100   1.232  96.805 -0.1829  1.1114 -0.3072
 6501TIP3    H240995   1.978   1.226  96.716 -1.0760  1.2618  0.8834
 6502TIP3   OH240996   1.737   0.294   1.006  0.2302  0.4240  0.2797
 6502TIP3    H140997   1.691   0.308   1.088  1.3253 -0.7058  1.1254
 6502TIP3    H240998   1.682   0.234   0.957  1.1473 -1.6664  1.6691
 6503TIP3   OH240999   0.893   1.257  17.292 -0.0640 -0.4569  0.4929
 6503TIP3    H141000   0.874   1.318  17.220 -2.6999 -0.6539  0.8951
 6503TIP3    H241001   0.845   1.293  17.366 -2.0180 -3.1073  0.6657
 6504TIP3   OH241002   0.011   1.918  99.606 -0.3569 -0.3143 -0.4705
 6504TIP3    H141003  -0.033   1.835  99.589  0.9053 -1.1888  0.3257
 6504TIP3    H241004  -0.056   1.972  99.648 -0.6828 -1.6206  0.7805
 6505TIP3   OH241005   1.496   1.825  81.289  0.7052  0.1504 -0.5406
 6505TIP3    H141006   1.511   1.782  81.205  0.2348 -2.7014  0.7375
 6505TIP3    H241007   1.401   1.839  81.292  0.4342 -1.6133  0.2881
 6506TIP3   OH241008   1.695   0.750  96.487 -0.1258 -0.2508  0.9835
 6506TIP3    H141009   1.735   0.772  96.571 -0.4801 -0.5253  1.2312
 6506TIP3    H241010   1.761   0.698  96.441 -0.1084 -0.4935  1.2835
 6507TIP3   OH241011   1.714   0.765  23.891  0.1448  0.0105  0.0791
 6507TIP3    H141012   1.720   0.829  23.820 -1.9128  0.6972  0.4357
 6507TIP3    H241013   1.664   0.692  23.853 -1.8518  0.8099  1.0159
 6508TIP3   OH241014   0.452   1.195   9.111  0.5053 -0.2715 -0.3181
 6508TIP3    H141015   0.381   1.164   9.167  1.1436 -1.2610 -0.0182
 6508TIP3    H241016   0.409   1.219   9.028 -0.3223  0.3132  0.2654
 6509TIP3   OH241017   1.364   1.883 110.465 -0.3160  0.2130 -0.3208
 6509TIP3    H141018   1.303   1.932 110.521 -0.7363 -0.2935 -0.3375
 6509TIP3    H241019   1.448   1.929 110.476 -0.3836  0.1161  0.7372
 6510TIP3   OH241020   2.649   0.193  33.699 -0.5298  0.4005  0.2576
 6510TIP3    H141021   2.622   0.201  33.790  1.2047  1.6080  0.7132
 6510TIP3    H241022   2.658   0.099  33.684 -1.4669  0.1650  1.1228
 6511TIP3   OH241023   1.446   1.944  14.649 -0.4690 -0.2789 -0.2580
 6511TIP3    H141024   1.424   2.026  14.693 -0.8163  0.4803 -1.7761
 6511TIP3    H241025   1.368   1.889  14.659  0.4660 -1.2587  2.4806
 6512TIP3   OH241026   0.910   2.175  53.475 -0.5556 -0.9261  0.2187
 6512TIP3    H141027   0.955   2.093  53.498 -1.6808 -2.0217 -1.2769
 6512TIP3    H241028   0.977   2.226  53.429  0.7651 -0.0621  2.9046
 6513TIP3   OH241029   1.609   0.891  77.609 -0.4815 -0.2679  0.1824
 6513TIP3    H141030   1.552   0.919  77.680 -1.0267  1.0974 -0.7638
 6513TIP3    H241031   1.583   0.800  77.592 -1.9982  0.1495  0.1458
 6514TIP3   OH241032   2.232   1.018   2.845  0.3188 -0.0830  0.5963
 6514TIP3    H141033   2.311   1.053   2.804 -0.9395  0.5139 -1.4064
 6514TIP3    H241034   2.224   0.929   2.811 -1.0438  0.6076 -1.0038
 6515TIP3   OH241035   2.472   2.614  86.580 -0.4400 -0.0706  0.0816
 6515TIP3    H141036   2.396   2.668  86.600 -1.0185 -1.1772  0.9310
 6515TIP3    H241037   2.544   2.677  86.570 -1.5093  1.0356 -1.1528
 6516TIP3   OH241038   1.167   2.067   0.466 -0.7661  0.5845  0.5798
 6516TIP3    H141039   1.248   2.105   0.499  0.0078  1.3401 -1.9340
 6516TIP3    H241040   1.105   2.141   0.462 -0.4732  0.7896 -0.6695
 6517TIP3   OH241041   1.206   1.280  34.064 -0.4356  0.4738  0.2315
 6517TIP3    H141042   1.111   1.284  34.059 -0.3798  0.7699 -0.9734
 6517TIP3    H241043   1.226   1.186  34.072 -0.7796  0.1795 -1.7582
 6518TIP3   OH241044   2.290   0.874  15.635 -0.1379 -0.2796  0.1509
 6518TIP3    H141045   2.271   0.868  15.729 -0.1954 -1.0971  0.0980
 6518TIP3    H241046   2.216   0.831  15.593  0.4997 -1.0792 -0.1957
 6519TIP3   OH241047   1.646   2.057  97.854 -0.0097 -0.0929  0.0330
 6519TIP3    H141048   1.573   2.062  97.792 -0.7064  0.6121  0.8904
 6519TIP3    H241049   1.609   2.015  97.932 -0.0605  1.9863  1.2042
 6520TIP3   OH241050   0.293   0.148   8.517  0.0706  0.0724 -0.5834
 6520TIP3    H141051   0.322   0.237   8.533 -0.0600  0.3527 -1.8021
 6520TIP3    H241052   0.199   0.149   8.537  0.1707  0.0568 -0.0831
 6521TIP3   OH241053   0.641   1.122   4.406 -0.0555 -0.0411 -0.1024
 6521TIP3    H141054   0.656   1.203   4.455  1.3398  0.2680 -1.0169
 6521TIP3    H241055   0.600   1.150   4.324 -0.8018 -0.4061  0.1284
 6522TIP3   OH241056   0.746   0.608  85.414 -0.4279  0.3928 -0.1610
 6522TIP3    H141057   0.759   0.566  85.329  0.2790 -1.3500  0.7588
 6522TIP3    H241058   0.824   0.661  85.427  0.0656 -0.3433 -0.0544
 6523TIP3   OH241059   0.235   1.382  16.724 -0.0784  0.1588  0.3572
 6523TIP3    H141060   0.275   1.444  16.784 -0.8623  0.8038  0.2220
 6523TIP3    H241061   0.147   1.368  16.759 -0.4087  0.2496 -0.4306
 6524TIP3   OH241062   2.140   1.762   6.572 -0.0968 -0.4258 -0.3623
 6524TIP3    H141063   2.222   1.793   6.535 -0.4657  1.2421  0.1280
 6524TIP3    H241064   2.077   1.831   6.552 -0.9064 -0.7130  1.0152
 6525TIP3   OH241065   1.886   0.141  28.109  0.4440  0.3633  0.5706
 6525TIP3    H141066   1.807   0.186  28.138  0.7251  1.1083  0.2232
 6525TIP3    H241067   1.952   0.211  28.102  0.6481  0.0550 -0.8894
 6526TIP3   OH241068   0.708   2.395  30.413  0.1040 -0.7001 -0.0616
 6526TIP3    H141069   0.769   2.468  30.406 -1.7347  0.7424 -2.2942
 6526TIP3    H241070   0.752   2.333  30.472  2.5125  1.3753  0.4942
 6527TIP3   OH241071   2.256   1.311  86.765  0.8151 -0.4454  0.6346
 6527TIP3    H141072   2.302   1.370  86.826 -0.3653 -0.2218  1.3450
 6527TIP3    H241073   2.175   1.288  86.811 -0.8421  0.9084 -1.4155
 6528TIP3   OH241074   2.558   0.883 101.546 -0.2876  0.4444  0.1633
 6528TIP3    H141075   2.488   0.940 101.516 -0.8841 -1.2508 -1.9430
 6528TIP3    H241076   2.638   0.934 101.533 -0.9305  1.4918  0.2275
 6529TIP3   OH241077   2.505   2.464  25.347 -0.0679 -0.0135 -0.3604
 6529TIP3    H141078   2.509   2.500  25.258 -0.2018 -0.6620 -0.6352
 6529TIP3    H241079   2.412   2.467  25.369 -0.0143  0.2993 -0.1780
 6530TIP3   OH241080   1.629   1.579  98.859  0.6330 -0.5679 -0.0636
 6530TIP3    H141081   1.611   1.652  98.918  0.2091 -0.4376 -0.3421
 6530TIP3    H241082   1.719   1.554  98.878  1.0975  0.6304 -0.6074
 6531TIP3   OH241083   0.504   2.664  85.388 -0.1471  0.2903  0.1898
 6531TIP3    H141084   0.417   2.626  85.377 -0.1373 -0.0210  1.0549
 6531TIP3    H241085   0.509   2.685  85.481  0.4582  0.9189  0.0208
 6532TIP3   OH241086   0.321   1.789  66.322  0.1846  0.1565 -0.1361
 6532TIP3    H141087   0.349   1.841  66.247  1.4065 -0.8266 -0.4084
 6532TIP3    H241088   0.302   1.853  66.390  1.1529  0.9741 -0.6170
 6533TIP3   OH241089   1.057   2.353  94.063  0.1267  0.0980 -0.0064
 6533TIP3    H141090   0.975   2.394  94.088  0.2530  0.6112 -0.4112
 6533TIP3    H241091   1.125   2.410  94.099  0.3084  0.6063 -1.0914
 6534TIP3   OH241092   2.248   0.015  93.844  0.0508 -0.2763 -0.1129
 6534TIP3    H141093   2.256  -0.077  93.868 -1.4841 -0.2382  0.7075
 6534TIP3    H241094   2.247   0.016  93.748  1.1496 -0.9842 -0.1384
 6535TIP3   OH241095   1.700   1.391  37.890  0.0803 -0.1898  0.0369
 6535TIP3    H141096   1.782   1.394  37.939  1.3513  1.0863 -2.0314
 6535TIP3    H241097   1.661   1.477  37.901 -0.7857 -0.6424  0.6388
 6536TIP3   OH241098   0.407   2.092 104.451  0.2352 -0.0423  0.5067
 6536TIP3    H141099   0.408   2.148 104.373  0.1480 -1.3321 -0.4595
 6536TIP3    H241100   0.326   2.114 104.496  0.5463  1.1073  0.5434
 6537TIP3   OH241101   0.650   2.597  20.793 -0.4903  0.2982  0.2933
 6537TIP3    H141102   0.599   2.517  20.808 -1.4007  0.8396  0.1576
 6537TIP3    H241103   0.634   2.651  20.870 -1.4497  1.1400 -0.4531
 6538TIP3   OH241104   1.300   2.674   5.044  0.0508 -0.1114 -0.1481
 6538TIP3    H141105   1.321   2.606   4.980 -0.2934 -0.9177  0.5915
 6538TIP3    H241106   1.236   2.634   5.102 -0.4195  0.9605  0.0983
 6539TIP3   OH241107   1.610   0.916  13.476 -0.5013  0.8315 -0.1270
 6539TIP3    H141108   1.565   0.837  13.445 -0.2991  0.8981 -0.5891
 6539TIP3    H241109   1.667   0.941  13.404 -1.2720  1.9580 -0.3607
 6540TIP3   OH241110   1.998   1.656   2.145 -0.2735  0.0682 -0.8003
 6540TIP3    H141111   2.018   1.568   2.178 -1.4902 -0.4248 -1.3110
 6540TIP3    H241112   1.954   1.700   2.217  0.0821  0.1674 -0.6408
 6541TIP3   OH241113   0.917   0.337  12.148  0.2712 -0.1570  0.0686
 6541TIP3    H141114   0.928   0.319  12.054  0.8686 -0.0915  0.1225
 6541TIP3    H241115   0.874   0.259  12.182  0.0961 -0.2037 -0.2482
 6542TIP3   OH241116   0.656   0.705  21.311 -0.2203  0.1475 -0.6017
 6542TIP3    H141117   0.718   0.778  21.305 -0.3478  0.2855 -0.2443
 6542TIP3    H241118   0.706   0.635  21.353 -0.1811  0.1199 -0.6932
 6543TIP3   OH241119   1.021   0.388   3.360 -0.1172  0.0657  0.0131
 6543TIP3    H141120   1.023   0.323   3.291 -0.1395  0.5556 -0.4541
 6543TIP3    H241121   1.113   0.415   3.370  0.0873 -0.9633  1.1034
 6544TIP3   OH241122   0.016   2.536  79.418  0.2593 -0.4916 -0.2150
 6544TIP3    H141123  -0.011   2.466  79.358  1.9823 -0.9899 -0.4707
 6544TIP3    H241124   0.002   2.617  79.369 -0.5418 -0.7395 -0.4030
 6545TIP3   OH241125   2.257   2.681 111.152  0.1091  0.1293 -0.1478
 6545TIP3    H141126   2.337   2.671 111.100  0.2092 -3.4245  0.4680
 6545TIP3    H241127   2.190   2.707 111.088  0.8781 -1.0559 -1.4807
 6546TIP3   OH241128   0.836   2.560  23.893 -0.2515  0.0008  0.7441
 6546TIP3    H141129   0.836   2.618  23.817  2.8460 -0.2431  0.4189
 6546TIP3    H241130   0.792   2.481  23.862  0.2523  0.1991 -0.5697
 6547TIP3   OH241131   1.914   0.319  82.875  0.2014  0.3899  0.3823
 6547TIP3    H141132   2.002   0.280  82.869  0.1732  0.1944  1.1176
 6547TIP3    H241133   1.880   0.287  82.959 -1.0639 -0.5361 -0.4590
 6548TIP3   OH241134   0.383   0.718  76.714 -0.1085  0.0225  0.2066
 6548TIP3    H141135   0.472   0.731  76.681 -0.8443  1.7494 -1.2481
 6548TIP3    H241136   0.395   0.690  76.805  1.9241  1.1576  0.3416
 6549TIP3   OH241137   1.645   2.445   4.566 -0.2192  0.4167 -0.3528
 6549TIP3    H141138   1.600   2.505   4.625 -0.8162  0.4743 -0.8557
 6549TIP3    H241139   1.666   2.369   4.620  1.3033  1.3968  0.5132
 6550TIP3   OH241140   1.477   1.503  14.386  0.6202  0.3904 -0.4407
 6550TIP3    H141141   1.499   1.411  14.374 -2.3323 -0.4657 -0.0605
 6550TIP3    H241142   1.448   1.532  14.299 -2.3251 -0.3185  0.1691
 6551TIP3   OH241143   0.424   0.795  34.751 -0.1095  0.0588 -0.2106
 6551TIP3    H141144   0.362   0.728  34.781  0.4223 -0.7964 -0.9579
 6551TIP3    H241145   0.376   0.845  34.686  0.2246 -1.1578 -1.4302
 6552TIP3   OH241146   1.883   2.533 105.059  0.3065 -0.3233  0.1461
 6552TIP3    H141147   1.875   2.448 105.016 -0.5087  0.6742 -1.7976
 6552TIP3    H241148   1.975   2.540 105.083  0.0013 -2.7211  2.6029
 6553TIP3   OH241149   2.447   0.274   9.984 -0.4862 -0.4734  0.2631
 6553TIP3    H141150   2.508   0.220   9.935 -0.2988  0.1598 -0.2203
 6553TIP3    H241151   2.493   0.357   9.998 -1.5102  0.3247 -0.8367
 6554TIP3   OH241152   1.596   0.710 107.794  0.1693 -0.6838  0.0214
 6554TIP3    H141153   1.591   0.740 107.885 -0.3469 -1.0799  0.1309
 6554TIP3    H241154   1.573   0.787 107.742  2.9915  0.3056  0.0715
 6555TIP3   OH241155   0.864   1.750  52.206  0.0083 -0.9069  0.1016
 6555TIP3    H141156   0.883   1.829  52.256 -0.5575 -0.7223  0.0359
 6555TIP3    H241157   0.832   1.782  52.121 -0.5318 -1.2032  0.1908
 6556TIP3   OH241158   0.719   1.841 105.286  0.0710 -0.3082 -0.7377
 6556TIP3    H141159   0.697   1.757 105.325 -0.9299  0.3825  0.2385
 6556TIP3    H241160   0.725   1.823 105.192  1.8726 -1.8545 -0.3841
 6557TIP3   OH241161   1.602   2.485 111.946 -0.2262 -0.6891  0.3917
 6557TIP3    H141162   1.608   2.428 111.869  0.8774 -0.3736  0.2263
 6557TIP3    H241163   1.693   2.508 111.965 -0.6908  2.4604 -0.6439
 6558TIP3   OH241164   0.253   1.524  19.199 -0.1433 -0.2941 -0.3249
 6558TIP3    H141165   0.226   1.484  19.117  1.3095  0.3171 -1.1354
 6558TIP3    H241166   0.348   1.522  19.196 -0.0269 -1.3715  1.9133
 6559TIP3   OH241167   1.041   0.804  82.829  0.2295  0.2326 -0.7696
 6559TIP3    H141168   1.026   0.895  82.855  1.2232 -0.3113  2.0347
 6559TIP3    H241169   0.954   0.764  82.828  0.0781  0.2335  2.4203
 6560TIP3   OH241170   1.415   2.434 104.234 -0.4219  0.3271 -0.1583
 6560TIP3    H141171   1.507   2.421 104.212 -0.4146  0.3015 -0.1117
 6560TIP3    H241172   1.382   2.347 104.256  0.2339  0.6529  2.4327
 6561TIP3   OH241173   1.447   1.008 103.657 -0.0127  0.0559 -0.0752
 6561TIP3    H141174   1.496   0.946 103.712  0.4038  0.9249  0.5456
 6561TIP3    H241175   1.358   1.006 103.691 -0.3198 -1.1181 -0.8642
 6562TIP3   OH241176   0.161   0.352  82.074 -0.3084 -0.1947  0.1729
 6562TIP3    H141177   0.197   0.324  81.990 -0.1218  0.0405  0.1747
 6562TIP3    H241178   0.226   0.324  82.139 -1.8958 -3.3261  0.6321
 6563TIP3   OH241179   1.785   2.181  94.653 -0.3532  0.6261 -0.1086
 6563TIP3    H141180   1.874   2.153  94.634 -0.0535  0.0658  1.8984
 6563TIP3    H241181   1.777   2.267  94.611  0.9397  0.4544 -0.7484
 6564TIP3   OH241182   0.645   2.331   7.189  0.0525  0.0751  0.1889
 6564TIP3    H141183   0.697   2.411   7.181 -1.9742  1.3648 -1.0233
 6564TIP3    H241184   0.691   2.267   7.134  0.6827  0.9779 -0.3636
 6565TIP3   OH241185   2.478   2.629  92.681  0.3379  0.0117 -0.0891
 6565TIP3    H141186   2.548   2.596  92.625 -0.9589 -3.2201  0.0124
 6565TIP3    H241187   2.502   2.601  92.769 -0.2236  0.4463  0.2147
 6566TIP3   OH241188   1.646   2.311  87.967  0.3938 -0.3501  0.5092
 6566TIP3    H141189   1.725   2.337  87.921  1.1418 -0.0620  1.9075
 6566TIP3    H241190   1.575   2.332  87.907  1.2786  0.7994 -0.1691
 6567TIP3   OH241191   1.254   0.883  31.815  0.1356  0.0638  0.1534
 6567TIP3    H141192   1.254   0.974  31.844 -0.7763  0.1010  0.0788
 6567TIP3    H241193   1.345   0.865  31.792  0.7890  0.2120  2.3884
 6568TIP3   OH241194   0.223   1.937 103.294 -0.1978  0.0729  0.0035
 6568TIP3    H141195   0.269   2.020 103.287 -1.2246  0.7465  0.8871
 6568TIP3    H241196   0.192   1.919 103.205  1.6664 -0.3912 -0.6064
 6569TIP3   OH241197   0.000   2.350  75.425 -0.2702  0.3830 -0.3378
 6569TIP3    H141198   0.018   2.304  75.507 -0.2569  0.3164 -0.3798
 6569TIP3    H241199   0.070   2.416  75.419 -1.8080  2.2841  1.0978
 6570TIP3   OH241200   2.431   1.128  74.000  0.4467  0.5691 -0.5078
 6570TIP3    H141201   2.436   1.223  74.007  1.8649  0.6378 -1.8214
 6570TIP3    H241202   2.416   1.111  73.906 -0.4892 -0.5033 -0.1936
 6571TIP3   OH241203   1.806   1.333  38.546 -0.0866  0.1051 -0.0800
 6571TIP3    H141204   1.720   1.319  38.506  0.3188 -0.8351 -0.6401
 6571TIP3    H241205   1.867   1.287  38.488  0.9097  1.4623 -0.1673
 6572TIP3   OH241206   2.099   2.332  90.318 -0.1239  0.0447  0.1665
 6572TIP3    H141207   2.020   2.385  90.313 -1.0920 -1.3491  0.1526
 6572TIP3    H241208   2.067   2.243  90.333  1.2745 -1.1169 -3.0197
 6573TIP3   OH241209   0.397   0.766   7.243  0.3563  0.1852  0.4559
 6573TIP3    H141210   0.451   0.691   7.267 -1.3606 -1.1308  0.4534
 6573TIP3    H241211   0.351   0.737   7.163  1.3212  2.1167 -0.8793
 6574TIP3   OH241212   1.928   2.429 111.682 -0.3728 -0.8172  0.2048
 6574TIP3    H141213   2.021   2.449 111.675 -1.0230  2.2746 -1.8083
 6574TIP3    H241214   1.898   2.479 111.758 -0.8128  0.4648 -0.7769
 6575TIP3   OH241215   1.754   0.982 100.719  0.2281  0.8528 -0.4542
 6575TIP3    H141216   1.721   0.990 100.809  0.2984  1.8661 -0.5074
 6575TIP3    H241217   1.678   0.956 100.667 -0.2695  2.1576 -0.4083
 6576TIP3   OH241218   1.833   1.448  74.139  0.0436  0.8964 -0.2690
 6576TIP3    H141219   1.743   1.478  74.154  0.3637  2.9767 -2.0404
 6576TIP3    H241220   1.823   1.354  74.119 -1.5545  0.7720  0.9294
 6577TIP3   OH241221   2.358   1.710  90.870  0.5477  0.0474  0.1901
 6577TIP3    H141222   2.432   1.747  90.920  0.0359  0.9798  0.2830
 6577TIP3    H241223   2.397   1.685  90.786  1.0913 -0.0338  0.4560
 6578TIP3   OH241224   1.090   0.451  29.369 -0.0470  0.4595  0.0288
 6578TIP3    H141225   1.062   0.375  29.421 -0.3222 -0.5141 -1.4977
 6578TIP3    H241226   1.113   0.517  29.435 -1.1322 -0.4479  1.3781
 6579TIP3   OH241227   2.070   1.210  95.798  0.0488 -0.8689 -0.0418
 6579TIP3    H141228   1.986   1.209  95.751 -0.6464 -0.1951  1.1193
 6579TIP3    H241229   2.052   1.164  95.880  0.0911  1.3690  1.3108
 6580TIP3   OH241230   0.792   1.906 107.179 -0.8008 -0.2652  0.0832
 6580TIP3    H141231   0.843   1.888 107.100 -1.0472 -0.8324  0.0480
 6580TIP3    H241232   0.814   1.834 107.238 -1.1571 -0.2248  0.2634
 6581TIP3   OH241233   2.013   0.812  77.643 -0.1880  0.4386 -0.3230
 6581TIP3    H141234   2.053   0.833  77.728 -0.8018 -0.1596  0.1250
 6581TIP3    H241235   2.050   0.876  77.583  3.1243 -1.3107 -0.4168
 6582TIP3   OH241236   1.829   1.412  17.073  0.3540  0.0735 -0.3275
 6582TIP3    H141237   1.861   1.464  17.147 -1.9893  1.1560  0.0008
 6582TIP3    H241238   1.907   1.399  17.018  1.6424  1.3267  1.0844
 6583TIP3   OH241239   1.309   2.522  29.110  0.9935 -0.5167  0.0512
 6583TIP3    H141240   1.363   2.444  29.100 -0.1182 -1.0874 -2.0558
 6583TIP3    H241241   1.222   2.489  29.131  0.4031  0.0844 -1.3259
 6584TIP3   OH241242   1.309   1.328   6.976 -0.4602 -0.3614  0.0470
 6584TIP3    H141243   1.231   1.276   6.994 -1.7279  1.1199 -0.8692
 6584TIP3    H241244   1.292   1.412   7.018  0.4609  0.1132 -0.4963
 6585TIP3   OH241245   0.884   1.457  81.746 -0.2021 -0.3987 -0.4116
 6585TIP3    H141246   0.852   1.374  81.782 -0.9179 -1.1480 -2.6343
 6585TIP3    H241247   0.971   1.467  81.784  0.6206 -3.0593 -1.3775
 6586TIP3   OH241248   1.666   0.898  73.834 -0.2000 -0.3463 -0.2593
 6586TIP3    H141249   1.579   0.866  73.857  0.0121 -0.6905  0.0774
 6586TIP3    H241250   1.663   0.909  73.739 -0.6109 -0.3614 -0.2513
 6587TIP3   OH241251   0.879   1.460   0.487  0.2375 -0.0250  0.0146
 6587TIP3    H141252   0.860   1.552   0.507 -0.2749  0.0512 -0.8053
 6587TIP3    H241253   0.887   1.418   0.573 -1.5500  0.3684  0.4165
 6588TIP3   OH241254   1.879   1.850 105.057 -0.3142 -0.1293  0.1343
 6588TIP3    H141255   1.900   1.788 105.128 -0.2982 -0.1383  0.1216
 6588TIP3    H241256   1.852   1.794 104.984 -1.6825 -0.0716  0.5690
 6589TIP3   OH241257   1.303   0.250  32.479  0.7006 -0.1936 -0.2450
 6589TIP3    H141258   1.286   0.201  32.398 -0.7580 -0.9225  0.4668
 6589TIP3    H241259   1.386   0.296  32.462 -0.4905  1.2408 -2.8871
 6590TIP3   OH241260   0.016   2.091  36.978 -0.2446  0.2572  0.1784
 6590TIP3    H141261   0.071   2.028  37.025  0.4176  0.1355 -0.7402
 6590TIP3    H241262   0.057   2.176  36.993  0.1350  0.1819 -0.4051
 6591TIP3   OH241263   0.212   1.633  13.882 -0.0340  0.5490  0.0134
 6591TIP3    H141264   0.142   1.686  13.920  0.4121  1.5797 -0.5847
 6591TIP3    H241265   0.239   1.575  13.953 -1.9916 -0.4049  0.0413
 6592TIP3   OH241266   1.616   2.670  99.278 -0.1635  0.7435 -0.1498
 6592TIP3    H141267   1.621   2.691  99.185 -2.1730  2.1250  0.0141
 6592TIP3    H241268   1.581   2.581  99.281 -1.8345  1.3426 -0.7395
 6593TIP3   OH241269   1.943   1.843  13.240  0.0625 -0.1962 -0.1705
 6593TIP3    H141270   1.875   1.896  13.199 -1.1096 -0.9920  0.6355
 6593TIP3    H241271   1.973   1.896  13.314  1.1414  0.6252 -1.1706
 6594TIP3   OH241272   2.080   0.931  27.652  0.0719 -0.2779  0.3745
 6594TIP3    H141273   2.023   0.885  27.589 -0.7468 -0.7412  1.4163
 6594TIP3    H241274   2.160   0.879  27.654 -0.2366 -0.7648  0.3583
 6595TIP3   OH241275   0.253   0.269  12.219 -0.3874  0.2658 -0.1862
 6595TIP3    H141276   0.259   0.180  12.183 -1.2705  0.1027  0.0350
 6595TIP3    H241277   0.326   0.275  12.281  0.2822  0.0517 -0.9417
 6596TIP3   OH241278   1.672   2.660   2.911  0.0042  0.2573  0.6865
 6596TIP3    H141279   1.586   2.638   2.946 -0.5848  0.3322 -0.6315
 6596TIP3    H241280   1.674   2.621   2.824  1.0013  0.9194  0.3798
 6597TIP3   OH241281   1.530   0.248  34.445  0.0451 -0.3170 -0.0835
 6597TIP3    H141282   1.452   0.197  34.424 -0.0335 -0.4300  0.4523
 6597TIP3    H241283   1.562   0.211  34.527  0.6371 -0.2364 -0.2695
 6598TIP3   OH241284   0.766   1.698  82.017  0.9437 -0.1546  0.1047
 6598TIP3    H141285   0.728   1.621  81.974  0.3080 -0.5509  1.3429
 6598TIP3    H241286   0.766   1.765  81.949 -1.4761 -0.3005 -0.1193
 6599TIP3   OH241287   0.878   1.480   0.949  0.0522  0.0314  0.2386
 6599TIP3    H141288   0.911   1.471   1.039  1.3998 -0.0604 -0.2437
 6599TIP3    H241289   0.915   1.562   0.918  0.8154 -0.6611 -0.7240
 6600TIP3   OH241290   0.841   2.679  23.634  0.9303 -0.0802 -0.1659
 6600TIP3    H141291   0.917   2.659  23.579  0.6587 -1.7745  0.0276
 6600TIP3    H241292   0.822   2.771  23.615  2.0337 -0.0743 -1.4247
 6601TIP3   OH241293   0.734   2.454  69.292  0.5600 -0.2590 -0.3487
 6601TIP3    H141294   0.696   2.540  69.312  2.1962  0.4387 -0.0903
 6601TIP3    H241295   0.671   2.391  69.328 -0.8690  0.8029 -0.8991
 6602TIP3   OH241296   0.873   0.588  29.274 -0.2380 -0.4986  0.2230
 6602TIP3    H141297   0.827   0.519  29.226 -0.1000 -0.5642  0.1838
 6602TIP3    H241298   0.954   0.547  29.304 -0.8763 -0.8249  1.5917
 6603TIP3   OH241299   2.307   1.777  99.011 -0.3256 -0.2345 -0.0087
 6603TIP3    H141300   2.331   1.796  98.921 -0.1083  0.5157  0.1965
 6603TIP3    H241301   2.297   1.864  99.052 -2.2486 -0.5225  0.2022
 6604TIP3   OH241302   1.225   1.032  30.875  0.1140  0.0157 -0.2664
 6604TIP3    H141303   1.244   1.016  30.968 -0.2613  1.3355  0.0725
 6604TIP3    H241304   1.307   1.014  30.830 -0.2867 -2.9046 -0.0230
 6605TIP3   OH241305   0.300   1.139 101.340 -0.0304 -0.6408 -0.3979
 6605TIP3    H141306   0.324   1.046 101.345  0.6417 -0.4499  0.3304
 6605TIP3    H241307   0.380   1.185 101.366 -0.4901  0.1249 -0.3114
 6606TIP3   OH241308   1.259   1.957  17.488  0.1675  0.1277  0.0856
 6606TIP3    H141309   1.321   2.010  17.438 -1.5358  1.8698 -0.3049
 6606TIP3    H241310   1.199   2.021  17.527 -1.4086 -1.4632  0.3996
 6607TIP3   OH241311   0.574   1.163 106.966  0.2905 -0.2375 -0.3009
 6607TIP3    H141312   0.500   1.105 106.949 -0.5405  1.0474 -1.1526
 6607TIP3    H241313   0.612   1.180 106.879 -0.9901  2.4452 -0.4061
 6608TIP3   OH241314   0.732   2.136  90.869  0.0866  0.1649  0.0523
 6608TIP3    H141315   0.722   2.044  90.845 -1.1702  0.1991  0.3640
 6608TIP3    H241316   0.730   2.182  90.785  1.7784 -0.1537 -0.1913
 6609TIP3   OH241317   1.760   1.915  91.826 -0.1786  0.1772 -0.5738
 6609TIP3    H141318   1.752   1.884  91.735 -2.8619  1.5764 -0.9317
 6609TIP3    H241319   1.807   1.998  91.819  1.7479 -0.8439 -0.3299
 6610TIP3   OH241320   0.467   0.441  27.387  0.3362  0.0897 -1.0190
 6610TIP3    H141321   0.437   0.506  27.324  0.5272  1.0923 -0.1224
 6610TIP3    H241322   0.391   0.423  27.442  0.9976  1.8442  0.5975
 6611TIP3   OH241323   0.875   1.206  96.462 -0.1000 -0.4375 -0.1320
 6611TIP3    H141324   0.880   1.194  96.368  1.8960  1.3647 -0.3217
 6611TIP3    H241325   0.909   1.124  96.498  2.8969  0.2506 -1.1235
 6612TIP3   OH241326   0.009   1.183  81.073  0.5272  0.4873 -0.0622
 6612TIP3    H141327   0.055   1.125  81.012  0.3879  1.4835 -1.1444
 6612TIP3    H241328   0.066   1.259  81.081  0.2322  0.6521  0.5621
 6613TIP3   OH241329   2.639   2.254  21.514 -0.2438  0.2685 -0.0471
 6613TIP3    H141330   2.706   2.298  21.565  0.4279 -1.3271  0.4999
 6613TIP3    H241331   2.626   2.311  21.438  1.9987  0.4363 -0.3639
 6614TIP3   OH241332   1.444   2.239 111.143  0.0554 -0.2531  0.3398
 6614TIP3    H141333   1.490   2.156 111.154 -2.3137 -1.5986  0.7742
 6614TIP3    H241334   1.387   2.226 111.068  1.2000  1.8125 -1.0024
 6615TIP3   OH241335   0.617   2.437  86.957 -0.1027  0.0159  0.4308
 6615TIP3    H141336   0.526   2.456  86.981 -0.2370  0.5625 -0.4514
 6615TIP3    H241337   0.665   2.516  86.982 -0.0284  0.0853  0.0754
 6616TIP3   OH241338   1.394   0.914  78.879 -0.0645  0.2795 -0.7299
 6616TIP3    H141339   1.327   0.880  78.820 -1.7281  0.4710  0.9490
 6616TIP3    H241340   1.442   0.837  78.908 -0.5914 -0.0641 -0.7477
 6617TIP3   OH241341   1.309   2.592  33.818  0.0418 -0.0185  0.0328
 6617TIP3    H141342   1.315   2.591  33.723 -0.0508  1.8328 -0.0321
 6617TIP3    H241343   1.216   2.576  33.836  0.1955 -1.1852 -0.1232
 6618TIP3   OH241344   1.894   1.352  34.924 -0.2928 -0.3614  0.0265
 6618TIP3    H141345   1.956   1.319  34.989  0.3164 -0.0048 -0.3613
 6618TIP3    H241346   1.868   1.438  34.956  2.0221  0.9864 -1.4577
 6619TIP3   OH241347   1.149   2.248  52.993  0.1403  0.5359  0.4227
 6619TIP3    H141348   1.225   2.190  52.995  0.2897  0.6799 -0.4536
 6619TIP3    H241349   1.073   2.189  52.996  0.2801  0.2036 -1.1920
 6620TIP3   OH241350   1.660   0.256  85.380  0.1995  0.5822  0.2631
 6620TIP3    H141351   1.580   0.205  85.389  0.7036 -0.5130 -1.0247
 6620TIP3    H241352   1.684   0.246  85.287  1.1170  1.9669  0.3095
 6621TIP3   OH241353   0.358   1.818   1.006  1.2764  0.2173  0.0352
 6621TIP3    H141354   0.338   1.879   0.935  0.4080  1.4454  1.3049
 6621TIP3    H241355   0.330   1.862   1.086  1.8466 -1.3019  1.1331
 6622TIP3   OH241356   2.218   1.547  99.998  0.2500  0.1797  0.1503
 6622TIP3    H141357   2.297   1.600  99.986 -0.4852  1.2257 -0.1576
 6622TIP3    H241358   2.146   1.605  99.972 -0.7298 -0.3185  1.6692
 6623TIP3   OH241359   1.860   0.099  96.723  0.1810  0.5612 -0.2557
 6623TIP3    H141360   1.860   0.014  96.767 -0.3437  0.8778  0.3841
 6623TIP3    H241361   1.938   0.098  96.668  0.6756  0.0100  0.4339
 6624TIP3   OH241362   0.765   0.207  90.008 -0.1358  0.0614  0.2388
 6624TIP3    H141363   0.781   0.247  89.922 -1.8383  0.8655  0.2557
 6624TIP3    H241364   0.851   0.205  90.049  0.5979  0.3241 -1.2080
 6625TIP3   OH241365   0.928   2.401  67.028  0.1787 -0.8781 -0.0970
 6625TIP3    H141366   0.948   2.332  67.092  0.3796  0.4380  1.3116
 6625TIP3    H241367   0.859   2.363  66.973 -0.2723 -1.9408  1.1435
 6626TIP3   OH241368   0.018   2.646  90.308  0.0599 -0.2733 -0.3202
 6626TIP3    H141369   0.064   2.562  90.316 -0.1851 -0.4520 -0.7172
 6626TIP3    H241370   0.084   2.712  90.327  0.5470 -0.5161 -1.0972
 6627TIP3   OH241371   0.825   0.526  36.862 -0.2029 -1.0169  0.0589
 6627TIP3    H141372   0.753   0.556  36.918  0.3600 -1.5972  1.1250
 6627TIP3    H241373   0.781   0.480  36.790 -0.9373 -0.3776  0.0809
 6628TIP3   OH241374   1.945   0.593 110.056 -0.4409  0.1024  0.1014
 6628TIP3    H141375   1.861   0.627 110.026 -0.6334  0.8949  1.4517
 6628TIP3    H241376   1.963   0.642 110.136  1.2405 -0.1659 -0.0865
 6629TIP3   OH241377   2.106   2.473  30.857 -0.3572  0.0402  0.4282
 6629TIP3    H141378   2.096   2.526  30.936  0.2401  0.6230  0.1218
 6629TIP3    H241379   2.181   2.511  30.812 -0.9605 -0.0013 -0.6441
 6630TIP3   OH241380   1.232   0.225 103.352  0.0706  0.2435  0.6594
 6630TIP3    H141381   1.232   0.149 103.410  0.9214  0.2215  0.6392
 6630TIP3    H241382   1.271   0.194 103.270 -1.0080  0.3051  0.0980
 6631TIP3   OH241383   0.531   1.467  17.966  0.0388  0.3338 -0.1613
 6631TIP3    H141384   0.477   1.491  18.041  0.1786 -0.0611  0.0745
 6631TIP3    H241385   0.495   1.382  17.937 -0.3347  0.7206 -0.8557
 6632TIP3   OH241386   0.652   0.583  88.240  0.2124 -0.5010  0.0217
 6632TIP3    H141387   0.672   0.605  88.331  0.0029 -2.1311  0.4925
 6632TIP3    H241388   0.737   0.578  88.197  0.2496  1.6715 -0.2595
 6633TIP3   OH241389   2.198   2.135  95.357 -0.0219 -0.1968  0.0914
 6633TIP3    H141390   2.243   2.120  95.274  0.1108 -2.4688  0.5091
 6633TIP3    H241391   2.263   2.112  95.424 -0.1038  1.6593  0.8566
 6634TIP3   OH241392   2.337   0.351  16.836 -0.4390 -0.1544  0.0839
 6634TIP3    H141393   2.295   0.336  16.921  0.0586  1.1166  0.5754
 6634TIP3    H241394   2.322   0.444  16.819 -0.4695 -0.3847 -1.1978
 6635TIP3   OH241395   0.579   0.456   6.056  0.2881  0.4807  0.2237
 6635TIP3    H141396   0.493   0.414   6.065 -0.4396  1.3558 -1.9140
 6635TIP3    H241397   0.631   0.391   6.008  1.0866 -0.3058  2.0527
 6636TIP3   OH241398   0.569   0.567  80.951 -0.0644 -0.3738 -0.1044
 6636TIP3    H141399   0.547   0.560  80.858  0.6876 -1.5277 -0.2261
 6636TIP3    H241400   0.485   0.559  80.996 -0.3244 -0.8453 -0.6640
 6637TIP3   OH241401   2.681   0.609  78.069 -0.0799  0.3166  0.6876
 6637TIP3    H141402   2.744   0.652  78.126  0.5358  1.2762 -0.6519
 6637TIP3    H241403   2.630   0.680  78.031  1.1565 -0.0084 -1.7993
 6638TIP3   OH241404   0.705   2.106  92.438  0.6190  0.3759  0.7735
 6638TIP3    H141405   0.659   2.039  92.488 -0.0036  0.2403  0.0349
 6638TIP3    H241406   0.797   2.080  92.443  0.5193  0.1215  1.4656
 6639TIP3   OH241407   2.521   2.230  26.956 -0.3728 -0.2212 -0.2083
 6639TIP3    H141408   2.470   2.272  26.886 -0.4410  1.8267  0.9976
 6639TIP3    H241409   2.455   2.185  27.009 -0.4852 -0.6223 -0.6844
 6640TIP3   OH241410   1.660   2.071  16.532  0.0263 -0.1496 -0.0343
 6640TIP3    H141411   1.614   1.990  16.556  0.9747 -0.6586  0.1420
 6640TIP3    H241412   1.747   2.041  16.507  0.5437  0.8755  0.5102
 6641TIP3   OH241413   1.837   0.265  15.334  0.3143  0.3867  0.2669
 6641TIP3    H141414   1.904   0.253  15.402  0.8671 -0.5183 -0.4168
 6641TIP3    H241415   1.763   0.214  15.366  0.4087  0.3342  0.4080
 6642TIP3   OH241416   2.200   0.025  14.691 -0.2063  0.0738 -0.0053
 6642TIP3    H141417   2.167  -0.061  14.666  0.4930 -0.0080 -0.6986
 6642TIP3    H241418   2.175   0.035  14.783  0.5694 -1.2995  0.3771
 6643TIP3   OH241419   2.613   2.363   9.133 -0.3685 -0.0623 -0.4168
 6643TIP3    H141420   2.688   2.315   9.168 -0.6717  0.4389  0.9868
 6643TIP3    H241421   2.636   2.379   9.041  1.0396 -0.3032 -0.1363
 6644TIP3   OH241422   0.979   1.122  80.698  0.1936 -0.1713 -0.2208
 6644TIP3    H141423   0.983   1.028  80.684  2.0856 -0.3607  1.1681
 6644TIP3    H241424   0.962   1.159  80.612  0.7312 -1.7209 -1.0270
 6645TIP3   OH241425   0.348   2.273  34.511 -0.8712  0.4100 -0.0597
 6645TIP3    H141426   0.368   2.196  34.458 -1.9787 -0.3081  0.5249
 6645TIP3    H241427   0.430   2.295  34.555 -0.7374 -0.9791  0.4292
 6646TIP3   OH241428   1.790   0.908  21.807 -0.2631  0.0658  0.1995
 6646TIP3    H141429   1.778   0.819  21.839 -0.4387  0.0612  0.1198
 6646TIP3    H241430   1.760   0.964  21.880 -0.2601  0.0600  0.2046
 6647TIP3   OH241431   1.468   2.650  37.452  0.9265  0.3664  0.4150
 6647TIP3    H141432   1.512   2.614  37.529  0.0088  0.8262  1.1707
 6647TIP3    H241433   1.460   2.743  37.470  0.5682  0.4548 -0.1827
 6648TIP3   OH241434   0.938   0.751 100.134 -0.2299 -0.5188  1.2150
 6648TIP3    H141435   0.868   0.753 100.069  1.7048 -1.3194 -1.0713
 6648TIP3    H241436   0.927   0.667 100.179 -0.3087 -0.9824  0.3446
 6649TIP3   OH241437   2.453   2.590 108.999  0.1126  0.4022 -0.2134
 6649TIP3    H141438   2.463   2.659 108.934 -0.6056  1.3550  0.6598
 6649TIP3    H241439   2.471   2.633 109.083  0.4109 -0.6562  0.2869
 6650TIP3   OH241440   1.518   0.809  18.127  0.3788  0.4570 -0.3603
 6650TIP3    H141441   1.567   0.884  18.161 -1.6682  0.8427  2.0337
 6650TIP3    H241442   1.448   0.847  18.075 -0.8377  0.2584  1.0937
 6651TIP3   OH241443   2.377   2.133  83.161 -0.2003 -0.1449 -0.3500
 6651TIP3    H141444   2.435   2.056  83.162  1.3527  0.9427 -1.3366
 6651TIP3    H241445   2.332   2.128  83.077 -0.4869 -0.2519 -0.1939
 6652TIP3   OH241446   0.820   0.963  94.138 -0.0075 -0.6211  0.2705
 6652TIP3    H141447   0.747   1.012  94.176 -0.3224  0.1052 -1.1898
 6652TIP3    H241448   0.780   0.883  94.106 -0.6841  0.6949 -2.4731
 6653TIP3   OH241449   1.001   2.053 107.912  0.1739  0.0640 -0.1729
 6653TIP3    H141450   1.009   2.047 107.817 -0.5633 -0.7675 -0.1921
 6653TIP3    H241451   0.992   1.962 107.942 -2.3170  0.4201  0.4196
 6654TIP3   OH241452   2.601   0.937 110.118  0.3509 -0.3120  0.4134
 6654TIP3    H141453   2.625   1.025 110.147 -0.6816 -0.0692  0.5865
 6654TIP3    H241454   2.683   0.888 110.116  0.9411  0.6672  0.2846
 6655TIP3   OH241455   2.613   1.824  14.565 -0.1559 -0.3856  0.2382
 6655TIP3    H141456   2.622   1.912  14.529  1.4325  0.3846  2.3055
 6655TIP3    H241457   2.613   1.767  14.488  0.5620  1.2911 -1.0852
 6656TIP3   OH241458   1.079   0.071  92.507  0.1706  0.7251 -0.0146
 6656TIP3    H141459   1.126   0.035  92.432 -0.4610  0.8524 -0.4682
 6656TIP3    H241460   1.060  -0.005  92.562 -0.3964  0.4819 -0.5508
 6657TIP3   OH241461   1.885   2.370  98.035  0.2033  0.0009  0.2128
 6657TIP3    H141462   1.796   2.345  98.058  0.1829  1.2303  1.6112
 6657TIP3    H241463   1.903   2.322  97.954 -1.7810 -0.1388 -0.2010
 6658TIP3   OH241464   0.710   1.672  91.783  0.1590  0.2675 -0.8080
 6658TIP3    H141465   0.793   1.624  91.780 -0.2233 -0.3908 -0.8927
 6658TIP3    H241466   0.651   1.614  91.831 -0.0821  1.0030 -0.1961
 6659TIP3   OH241467   1.127   1.074   0.149  0.2659 -0.1087  0.3238
 6659TIP3    H141468   1.044   1.082   0.196 -0.3038 -1.3799 -0.3842
 6659TIP3    H241469   1.193   1.063   0.217 -0.3749 -0.6718  0.8687
 6660TIP3   OH241470   1.758   1.889 111.627 -0.2993  0.0023  0.5426
 6660TIP3    H141471   1.836   1.851 111.668 -1.6772 -1.9904  1.4949
 6660TIP3    H241472   1.694   1.894 111.699 -2.1414 -1.6532 -0.8827
 6661TIP3   OH241473   2.135   1.282  32.183 -0.2219 -0.3037  0.6497
 6661TIP3    H141474   2.229   1.291  32.168 -0.4825  1.7051 -0.1940
 6661TIP3    H241475   2.116   1.190  32.167  1.2288 -0.2736 -1.6486
 6662TIP3   OH241476   0.954   1.854  33.285  0.1861 -0.1901 -0.2365
 6662TIP3    H141477   1.049   1.862  33.289  0.2444 -0.5799 -0.6861
 6662TIP3    H241478   0.932   1.870  33.193 -0.1854 -0.0818 -0.1304
 6663TIP3   OH241479   0.940   0.504  20.143 -0.4859  0.0300 -0.6012
 6663TIP3    H141480   0.888   0.445  20.088  1.1571 -0.8900 -1.2412
 6663TIP3    H241481   1.012   0.532  20.086  0.5942  0.0305  0.7205
 6664TIP3   OH241482   0.347   2.514  79.973  0.4565  0.2115 -0.3360
 6664TIP3    H141483   0.442   2.506  79.964  0.7192  1.8394  0.5468
 6664TIP3    H241484   0.321   2.567  79.897  0.5371  1.2784  0.3572
 6665TIP3   OH241485   1.943   1.920  98.269  0.0020 -0.0760 -0.1799
 6665TIP3    H141486   1.868   1.977  98.290  0.2817  0.7659 -1.3945
 6665TIP3    H241487   1.914   1.871  98.192  0.1924 -0.7686  0.1814
 6666TIP3   OH241488   0.924   2.217  22.078 -0.0837  0.2825 -0.2294
 6666TIP3    H141489   0.856   2.173  22.028 -0.2949  0.1173  0.1964
 6666TIP3    H241490   0.967   2.275  22.015 -1.3443  1.2338 -0.2551
 6667TIP3   OH241491   2.630   2.198  29.236 -1.0389  0.2735 -0.2096
 6667TIP3    H141492   2.714   2.163  29.265 -1.0247  1.0539  0.7355
 6667TIP3    H241493   2.614   2.155  29.151  0.2277 -0.0010 -0.3307
 6668TIP3   OH241494   2.239   1.169 109.738  0.2975 -0.6742 -0.3131
 6668TIP3    H141495   2.207   1.093 109.787 -0.8470 -0.9431 -1.4242
 6668TIP3    H241496   2.161   1.225 109.728  0.8284  0.0161 -0.6451
 6669TIP3   OH241497   0.628   0.299 103.898 -0.3900 -0.0732  0.3302
 6669TIP3    H141498   0.548   0.351 103.890  0.4070  1.0594 -0.5451
 6669TIP3    H241499   0.690   0.341 103.838  1.0265 -0.6162  1.3701
 6670TIP3   OH241500   1.979   2.592  91.595  0.0828  0.3232 -0.2504
 6670TIP3    H141501   1.899   2.607  91.645 -0.8626 -1.1401 -1.2475
 6670TIP3    H241502   2.049   2.627  91.651 -1.2201  1.5670  0.6794
 6671TIP3   OH241503   0.943   0.286   4.747 -0.1076  0.5685  0.1560
 6671TIP3    H141504   1.018   0.300   4.691  0.3938  0.1896  0.7141
 6671TIP3    H241505   0.906   0.373   4.762 -0.8891  0.5902 -1.5875
 6672TIP3   OH241506   0.596   1.580  84.418  0.1993 -0.1289  0.4880
 6672TIP3    H141507   0.652   1.641  84.370 -1.0442  2.1838  1.7600
 6672TIP3    H241508   0.515   1.578  84.367  0.0421 -0.3038  0.7428
 6673TIP3   OH241509   1.950   1.925   8.262 -0.1708 -0.4576  0.2273
 6673TIP3    H141510   1.910   1.839   8.272 -0.4047 -0.2511  1.2090
 6673TIP3    H241511   1.952   1.961   8.351 -1.8064  1.3111 -0.3744
 6674TIP3   OH241512   1.080   0.527   1.495 -0.9159 -0.3472  0.0945
 6674TIP3    H141513   1.148   0.537   1.561 -1.3536 -0.5792  0.5894
 6674TIP3    H241514   1.127   0.530   1.411 -0.3978  0.2485  0.4031
 6675TIP3   OH241515   0.900   2.475  99.160  0.0521 -0.0104 -0.2279
 6675TIP3    H141516   0.963   2.439  99.223  1.1167 -0.6999 -1.6434
 6675TIP3    H241517   0.901   2.413  99.087 -0.7776  1.0453 -1.1589
 6676TIP3   OH241518   1.950   0.914  26.660  0.2091  0.6052 -0.0675
 6676TIP3    H141519   1.949   0.989  26.601 -1.8568  0.8320  0.1836
 6676TIP3    H241520   2.040   0.912  26.694  0.2301  3.2463  0.2804
 6677TIP3   OH241521   1.551   1.759  77.412  0.1275  0.1481  0.1083
 6677TIP3    H141522   1.585   1.675  77.443 -0.2791  0.7048  2.2121
 6677TIP3    H241523   1.526   1.806  77.492  1.9805  3.0254 -0.8488
 6678TIP3   OH241524   2.060   1.291 103.844  0.5389 -0.1644  0.4809
 6678TIP3    H141525   1.989   1.355 103.840  0.8452  0.1557 -0.0183
 6678TIP3    H241526   2.060   1.249 103.758  0.1482 -1.0604  0.9014
 6679TIP3   OH241527   1.317   2.336 111.371 -0.3159 -0.2678  0.3757
 6679TIP3    H141528   1.324   2.259 111.428 -1.5141  1.4506  3.0789
 6679TIP3    H241529   1.354   2.308 111.288  1.4842 -3.0195  1.9410
 6680TIP3   OH241530   1.971   1.167  21.820  0.1209  0.1083 -0.4976
 6680TIP3    H141531   2.047   1.190  21.874  0.3764  0.1799 -0.8903
 6680TIP3    H241532   1.912   1.122  21.881  0.1473  0.7198 -0.0132
 6681TIP3   OH241533   0.598   1.234  21.700 -0.6745  0.5789 -0.2034
 6681TIP3    H141534   0.510   1.260  21.727  0.0822  2.6552  0.4971
 6681TIP3    H241535   0.618   1.290  21.625 -0.0627 -0.0864 -0.5491
 6682TIP3   OH241536   0.113   0.606   4.220 -0.0841 -0.1385  0.3064
 6682TIP3    H141537   0.034   0.659   4.230 -0.1148 -0.2151  0.4763
 6682TIP3    H241538   0.089   0.520   4.253 -0.3131 -0.5284 -0.8257
 6683TIP3   OH241539   2.628   1.333  17.292  0.5501  0.3709 -0.0494
 6683TIP3    H141540   2.537   1.349  17.318  0.4797 -0.3503  0.1789
 6683TIP3    H241541   2.679   1.352  17.370  0.6484  1.2901 -0.3367
 6684TIP3   OH241542   1.389   2.423  99.100  0.0787 -0.1038 -0.1597
 6684TIP3    H141543   1.334   2.496  99.128 -0.6023  0.6077 -3.0225
 6684TIP3    H241544   1.466   2.428  99.156  1.1728  4.3135 -1.6859
 6685TIP3   OH241545   1.077   2.538  20.607 -0.2175  0.0532  0.3673
 6685TIP3    H141546   1.145   2.581  20.659 -0.1770  0.6708 -0.1765
 6685TIP3    H241547   1.124   2.472  20.556 -0.2526 -0.5295  1.0742
 6686TIP3   OH241548   2.669   0.473  82.522  0.0571  0.1963 -0.3975
 6686TIP3    H141549   2.730   0.408  82.487 -2.6395 -2.2829 -0.7831
 6686TIP3    H241550   2.613   0.497  82.448 -1.6941 -0.3190  0.6921
 6687TIP3   OH241551   2.302   2.445   3.883  0.0605 -0.4095  0.1475
 6687TIP3    H141552   2.346   2.375   3.834  1.9382  0.1213  0.9596
 6687TIP3    H241553   2.280   2.510   3.817 -2.3301 -1.9827 -0.7238
 6688TIP3   OH241554   0.418   0.458  18.942  0.2020  0.1377 -0.3242
 6688TIP3    H141555   0.461   0.496  19.018 -0.1645 -2.2942  1.2372
 6688TIP3    H241556   0.334   0.426  18.975  0.5575 -2.1321 -1.3837
 6689TIP3   OH241557   0.655   2.425  95.262  0.1454 -0.1620 -0.2742
 6689TIP3    H141558   0.577   2.471  95.292 -0.5600 -1.0542 -0.6792
 6689TIP3    H241559   0.727   2.464  95.312 -0.6726  0.0711  0.7575
 6690TIP3   OH241560   0.112   0.684  90.465  0.7042  0.6072 -0.2741
 6690TIP3    H141561   0.199   0.725  90.472  1.2992 -0.5860 -0.3311
 6690TIP3    H241562   0.129   0.591  90.481 -0.6140  0.3938 -0.0471
 6691TIP3   OH241563   2.275   2.419  18.039  0.7158 -0.1019 -0.3464
 6691TIP3    H141564   2.312   2.483  17.979  0.0415  0.9957  0.3565
 6691TIP3    H241565   2.285   2.459  18.126 -3.3192  0.9738 -0.1995
 6692TIP3   OH241566   1.706   1.990  81.483  0.0351 -0.1580 -0.0183
 6692TIP3    H141567   1.773   2.008  81.417  0.5262  2.2297  1.0225
 6692TIP3    H241568   1.740   1.915  81.532  1.7798  0.7140  0.1989
 6693TIP3   OH241569   0.341   2.249  92.832 -0.2613  0.1627  0.4396
 6693TIP3    H141570   0.246   2.247  92.842 -0.2575 -0.8745  0.3533
 6693TIP3    H241571   0.355   2.252  92.738 -0.2102  1.0322  0.4694
 6694TIP3   OH241572   1.637   1.909  20.193 -0.4076 -0.3916 -0.3834
 6694TIP3    H141573   1.583   1.835  20.224 -1.4862  0.8427  0.8238
 6694TIP3    H241574   1.721   1.897  20.236 -0.7812 -0.5832  0.3130
 6695TIP3   OH241575   2.139   0.644 109.636 -0.3545  0.2364 -0.4701
 6695TIP3    H141576   2.166   0.703 109.565 -1.1938 -0.3727 -1.3019
 6695TIP3    H241577   2.181   0.561 109.615  0.1779  0.3061  0.2857
 6696TIP3   OH241578   1.950   0.516  80.009 -0.1058 -0.0095 -0.5729
 6696TIP3    H141579   1.898   0.460  80.067  0.9320  0.5960  1.0381
 6696TIP3    H241580   2.000   0.455  79.955  0.6776 -0.6599  0.8461
 6697TIP3   OH241581   1.120   1.812  87.915 -0.5768 -0.4527 -0.0690
 6697TIP3    H141582   1.139   1.774  87.830 -1.3826 -1.2737  0.0957
 6697TIP3    H241583   1.089   1.901  87.895 -1.4718 -0.8893 -0.7032
 6698TIP3   OH241584   0.872   1.803 110.134 -0.4406 -0.3242  0.5275
 6698TIP3    H141585   0.839   1.893 110.141  0.9047  0.1905  0.6804
 6698TIP3    H241586   0.963   1.809 110.165  0.0457 -1.5152 -0.6010
 6699TIP3   OH241587   1.806   0.928  88.825  0.6402  0.0162 -0.3978
 6699TIP3    H141588   1.880   0.876  88.857 -0.3153 -0.0277  1.9039
 6699TIP3    H241589   1.735   0.864  88.815 -0.5797  0.7548  2.5597
 6700TIP3   OH241590   0.832   0.669  11.606 -0.1991  0.2362  0.3766
 6700TIP3    H141591   0.863   0.727  11.537  1.6778  0.0649  1.0138
 6700TIP3    H241592   0.759   0.622  11.567  0.4806  0.5224 -1.3157
 6701TIP3   OH241593   0.993   2.566  32.032 -0.0134  0.2460 -0.3568
 6701TIP3    H141594   0.928   2.563  31.961 -1.0094  2.0885  0.4078
 6701TIP3    H241595   0.943   2.594  32.109  1.3412 -0.1852  0.7213
 6702TIP3   OH241596   1.356   1.649 100.287  0.0088 -0.3438 -0.0927
 6702TIP3    H141597   1.445   1.676 100.308  0.0917 -0.6618 -0.0253
 6702TIP3    H241598   1.346   1.563 100.330 -0.0945 -0.6272 -0.6791
 6703TIP3   OH241599   1.635   1.706  83.082  0.3807  0.0183  0.1396
 6703TIP3    H141600   1.588   1.709  83.165 -0.7512  3.0211 -0.4896
 6703TIP3    H241601   1.727   1.710  83.106  0.0576  1.5641  1.3012
 6704TIP3   OH241602   1.038   0.835  92.584 -0.2298  0.0302 -0.1478
 6704TIP3    H141603   1.085   0.896  92.527  0.2952 -2.4926 -2.6100
 6704TIP3    H241604   1.070   0.856  92.672  3.6557  0.2237 -1.3942
 6705TIP3   OH241605   2.601   1.665   7.564 -0.5139 -0.6655 -0.2772
 6705TIP3    H141606   2.622   1.573   7.580  0.2558 -0.4244  0.1497
 6705TIP3    H241607   2.681   1.701   7.526 -0.6526 -0.0680 -0.0072
 6706TIP3   OH241608   0.567   0.395   5.484 -0.1874  0.1867 -0.0333
 6706TIP3    H141609   0.499   0.409   5.418  0.1583 -1.0525 -0.6903
 6706TIP3    H241610   0.527   0.336   5.548 -0.3076  0.8773  0.5428
 6707TIP3   OH241611   1.875   1.573 104.553 -0.4300  0.2197  0.0238
 6707TIP3    H141612   1.819   1.497 104.543 -0.9643  0.8191 -2.1588
 6707TIP3    H241613   1.953   1.552 104.501 -0.5707  1.1002 -0.5740
 6708TIP3   OH241614   2.005   2.626 110.420 -0.1117  0.0849  0.0636
 6708TIP3    H141615   2.009   2.621 110.325 -0.0731 -0.3643  0.0855
 6708TIP3    H241616   1.958   2.707 110.438 -0.1952  0.1264 -0.3381
 6709TIP3   OH241617   2.546   1.098  28.899 -0.5452  0.0523  0.3783
 6709TIP3    H141618   2.639   1.100  28.876 -0.5026 -1.7833  0.2155
 6709TIP3    H241619   2.501   1.127  28.820 -0.1887 -1.4094 -0.4014
 6710TIP3   OH241620   1.548   2.652 100.407 -0.3390 -0.1769 -0.3365
 6710TIP3    H141621   1.535   2.577 100.349 -1.3207 -1.9918  2.0550
 6710TIP3    H241622   1.467   2.658 100.457  0.4521  1.2819  0.8525
 6711TIP3   OH241623   0.269   2.572  87.309 -0.1563  0.1318 -0.3299
 6711TIP3    H141624   0.261   2.596  87.217  1.4367 -0.1481 -0.5777
 6711TIP3    H241625   0.179   2.561  87.340 -0.7098  0.3737 -1.8063
 6712TIP3   OH241626   2.248   1.450  11.974 -0.0976  0.3654 -0.1580
 6712TIP3    H141627   2.276   1.523  12.029 -0.1768 -0.0254  0.4055
 6712TIP3    H241628   2.274   1.371  12.022 -0.8691  0.0094 -0.3012
 6713TIP3   OH241629   1.687   1.859  10.850 -0.1575 -0.0775  0.2225
 6713TIP3    H141630   1.612   1.824  10.802 -0.0121  0.6153 -0.5265
 6713TIP3    H241631   1.729   1.781  10.887  0.0654 -0.7213 -1.2872
 6714TIP3   OH241632   1.933   0.880  12.916 -0.2518  0.1752 -0.0373
 6714TIP3    H141633   2.022   0.908  12.935 -0.1873  0.1280 -0.2675
 6714TIP3    H241634   1.878   0.934  12.973 -0.0587  0.0161  0.2980
 6715TIP3   OH241635   1.527   1.286 111.127  0.4703  0.4111 -0.1689
 6715TIP3    H141636   1.494   1.290 111.037  1.3030 -1.2867 -0.6077
 6715TIP3    H241637   1.618   1.255 111.117  0.4713 -0.1003  1.2591
 6716TIP3   OH241638   2.377   1.580  49.131  0.0534  0.3955 -0.4301
 6716TIP3    H141639   2.451   1.545  49.081 -1.4035  0.9329 -3.1998
 6716TIP3    H241640   2.300   1.540  49.090 -1.3026  1.7365  0.7004
 6717TIP3   OH241641   1.214   1.706  81.023 -0.2989  0.5483  0.2442
 6717TIP3    H141642   1.254   1.777  80.973 -0.6246  1.7302  1.5998
 6717TIP3    H241643   1.272   1.694  81.098 -0.4356 -0.4053  0.2172
 6718TIP3   OH241644   0.267   1.324  28.986  0.2517 -0.4977 -0.0716
 6718TIP3    H141645   0.205   1.316  28.913  0.5286 -1.9205 -0.1820
 6718TIP3    H241646   0.319   1.244  28.982  1.7866  0.4418  0.3199
 6719TIP3   OH241647   0.898   2.517  83.058 -0.0777 -0.3371  0.3941
 6719TIP3    H141648   0.926   2.450  83.120 -0.2045 -0.9554 -0.2065
 6719TIP3    H241649   0.890   2.597  83.111  0.7065 -0.6399  0.9846
 6720TIP3   OH241650   0.310   1.119   7.448 -0.1615 -0.0777 -0.0915
 6720TIP3    H141651   0.393   1.072   7.445  0.2498  0.5366  0.9772
 6720TIP3    H241652   0.263   1.081   7.522 -0.6972 -0.1984 -0.4887
 6721TIP3   OH241653   0.422   1.933   0.614 -0.2430  0.3011  0.0480
 6721TIP3    H141654   0.404   1.969   0.701  1.5045  0.6903  0.2953
 6721TIP3    H241655   0.406   1.839   0.623  0.6564  0.2159  1.0482
 6722TIP3   OH241656   0.339   0.696  84.239  0.0870  0.6861  0.8066
 6722TIP3    H141657   0.361   0.682  84.147 -1.0435 -1.4310  0.8198
 6722TIP3    H241658   0.294   0.781  84.240  1.7263  1.6275 -0.2635
 6723TIP3   OH241659   1.869   2.216   1.511 -0.0342  0.0701  0.1227
 6723TIP3    H141660   1.825   2.147   1.561 -1.9557  2.7386  2.4514
 6723TIP3    H241661   1.962   2.203   1.529 -0.3877 -1.5457  0.9707
 6724TIP3   OH241662   1.103   0.676   3.025 -0.3397  0.2172 -0.3370
 6724TIP3    H141663   1.142   0.588   3.024  0.8659  0.7355 -1.4604
 6724TIP3    H241664   1.162   0.727   3.080 -0.6724  0.4766 -0.2236
 6725TIP3   OH241665   2.482   2.586  75.724 -0.0639  0.1484 -0.1875
 6725TIP3    H141666   2.413   2.578  75.659 -0.2302 -1.2131  0.1257
 6725TIP3    H241667   2.481   2.503  75.771  0.8742  0.6309  0.7368
 6726TIP3   OH241668   2.345   2.390   6.037 -0.1373  0.5143  0.4587
 6726TIP3    H141669   2.359   2.479   6.068  1.0702  0.2291  0.7941
 6726TIP3    H241670   2.318   2.400   5.946 -0.4059  1.2340  0.6135
 6727TIP3   OH241671   2.403   2.651 106.667  0.0685 -0.0105  0.1541
 6727TIP3    H141672   2.468   2.612 106.725  2.7474  0.2877 -2.3861
 6727TIP3    H241673   2.386   2.583 106.601 -1.4204  0.2991  0.1987
 6728TIP3   OH241674   0.791   1.369   6.977  0.2278  0.1051  0.1228
 6728TIP3    H141675   0.766   1.424   6.902 -0.4566  0.2586  0.4537
 6728TIP3    H241676   0.736   1.291   6.968 -1.1007  0.8563  1.3854
 6729TIP3   OH241677   0.777   0.403  84.328  0.8372 -0.5705  0.3608
 6729TIP3    H141678   0.735   0.410  84.242 -0.4618  2.9533  1.1118
 6729TIP3    H241679   0.866   0.436  84.314  0.7482 -0.3648  0.2656
 6730TIP3   OH241680   1.937   1.187  27.686 -1.0993 -0.5211 -0.3391
 6730TIP3    H141681   1.974   1.103  27.714 -0.4487 -0.4691 -1.0058
 6730TIP3    H241682   2.013   1.243  27.670 -1.4948 -0.1280 -0.8813
 6731TIP3   OH241683   1.252   0.890  90.088  0.2039 -0.0128 -0.0090
 6731TIP3    H141684   1.170   0.934  90.066  0.3438 -0.1366 -0.8343
 6731TIP3    H241685   1.247   0.806  90.041  0.3476 -0.4817  0.7933
 6732TIP3   OH241686   0.311   2.102  76.053 -0.2741 -0.0187  0.6493
 6732TIP3    H141687   0.403   2.120  76.070 -0.5284  0.6160  1.3868
 6732TIP3    H241688   0.263   2.154  76.118 -1.1664 -0.0800  0.0616
 6733TIP3   OH241689   0.466   2.407  94.397 -0.5187  0.0208  0.6843
 6733TIP3    H141690   0.455   2.484  94.342  1.8227 -0.9193 -1.2936
 6733TIP3    H241691   0.550   2.419  94.440  0.1360 -1.5631 -0.0387
 6734TIP3   OH241692   1.534   2.494  76.561  0.1036 -0.5445 -0.4795
 6734TIP3    H141693   1.544   2.587  76.541  3.1620 -0.0360  2.4912
 6734TIP3    H241694   1.601   2.451  76.508 -0.4444 -0.8858 -0.9005
 6735TIP3   OH241695   1.567   0.275  93.870 -0.3788  0.6000  0.2625
 6735TIP3    H141696   1.529   0.189  93.890  0.7213 -0.2450 -1.0422
 6735TIP3    H241697   1.584   0.271  93.776  1.9368  1.2992  0.5961
 6736TIP3   OH241698   2.392   2.106   2.025 -0.0293 -0.1307 -0.0962
 6736TIP3    H141699   2.323   2.140   1.968 -0.6048 -0.2385  0.5150
 6736TIP3    H241700   2.415   2.180   2.081 -0.5373 -0.4324  0.5287
 6737TIP3   OH241701   0.960   0.686  77.955  0.2715 -0.2092 -0.5662
 6737TIP3    H141702   0.871   0.652  77.964  0.4952 -0.3993  1.3596
 6737TIP3    H241703   0.949   0.776  77.925 -0.7260  0.4211  1.4922
 6738TIP3   OH241704   2.242   1.891  98.288  0.0383  0.0388  0.0997
 6738TIP3    H141705   2.291   1.918  98.211  1.6706 -0.7938  0.8048
 6738TIP3    H241706   2.150   1.902  98.263  0.5359  2.4121 -0.9831
 6739TIP3   OH241707   2.069   2.195  32.643  0.1457  0.2624 -0.1128
 6739TIP3    H141708   2.087   2.118  32.590  0.4704  0.8728 -0.9029
 6739TIP3    H241709   2.140   2.197  32.707  0.5723  0.3428 -0.5871
 6740TIP3   OH241710   0.329   1.173  80.499 -0.4673  0.0782 -0.0260
 6740TIP3    H141711   0.386   1.207  80.568  1.5994  2.3100 -2.6118
 6740TIP3    H241712   0.254   1.233  80.499 -0.9502 -0.4985  0.8214
 6741TIP3   OH241713   0.136   0.359  33.209 -0.0870  0.2954  0.5382
 6741TIP3    H141714   0.061   0.418  33.217  1.5354  2.5063  0.7509
 6741TIP3    H241715   0.207   0.416  33.177  0.9686 -2.1561 -1.8303
 6742TIP3   OH241716   0.381   0.849  80.041 -0.6208  0.4638  0.0045
 6742TIP3    H141717   0.367   0.916  80.108  0.4405  1.1698 -0.4484
 6742TIP3    H241718   0.462   0.876  79.997  0.1997 -1.4726  0.2294
 6743TIP3   OH241719   1.230   1.114  32.662  0.1881 -0.0644  0.2163
 6743TIP3    H141720   1.319   1.099  32.692  0.3306 -0.3641 -0.3447
 6743TIP3    H241721   1.184   1.148  32.739  0.2063 -2.0177  1.1438
 6744TIP3   OH241722   0.814   2.114  97.632  0.5787 -0.1466  0.7338
 6744TIP3    H141723   0.889   2.056  97.639 -0.4707 -1.6468  0.1682
 6744TIP3    H241724   0.759   2.093  97.707  1.0112  1.4453  1.5482
 6745TIP3   OH241725   2.653   0.632 104.049 -0.0169 -0.2224  0.0856
 6745TIP3    H141726   2.592   0.658 103.980 -0.1546 -0.6733  0.0343
 6745TIP3    H241727   2.696   0.553 104.015  1.5567  0.8129 -0.4438
 6746TIP3   OH241728   1.132   0.106  97.946 -0.0450 -0.1891 -0.0538
 6746TIP3    H141729   1.082   0.031  97.913  1.3541 -1.0255 -0.3555
 6746TIP3    H241730   1.191   0.068  98.012  1.8867  0.3066 -1.4052
 6747TIP3   OH241731   2.511   1.148  30.259 -0.5628  0.1537  0.0310
 6747TIP3    H141732   2.560   1.230  30.251  2.2573 -1.3621  0.6007
 6747TIP3    H241733   2.522   1.106  30.173 -1.7702  0.2190 -0.1694
 6748TIP3   OH241734   2.665   0.411  18.035  0.4744 -0.2616  0.5900
 6748TIP3    H141735   2.637   0.500  18.012  0.6392 -0.5431 -0.8122
 6748TIP3    H241736   2.593   0.376  18.088 -0.6127 -0.0332 -0.6764
 6749TIP3   OH241737   2.501   0.165   4.424  0.2111 -0.1676  0.2479
 6749TIP3    H141738   2.552   0.193   4.348  0.1608  0.8205  0.5616
 6749TIP3    H241739   2.566   0.148   4.492  0.1989 -0.1986  0.2520
 6750TIP3   OH241740   2.367   0.112  22.760 -0.4265 -0.3900 -0.2381
 6750TIP3    H141741   2.329   0.029  22.731  0.1293 -0.9013  0.4833
 6750TIP3    H241742   2.452   0.116  22.716 -0.9416  0.3931 -1.2362
 6751TIP3   OH241743   0.166   0.011  96.550  0.1065  0.2937  0.2933
 6751TIP3    H141744   0.158   0.106  96.536 -2.2843  0.3489  1.4940
 6751TIP3    H241745   0.188   0.002  96.642  1.6615 -0.3381 -0.1083
 6752TIP3   OH241746   1.917   0.373 104.696  0.0020  0.4524  0.1065
 6752TIP3    H141747   1.845   0.390 104.756  0.3515  0.5075  0.5165
 6752TIP3    H241748   1.883   0.307 104.636 -0.7736  1.2988 -0.4123
 6753TIP3   OH241749   1.863   1.919  84.189 -0.3220 -0.0707 -0.1711
 6753TIP3    H141750   1.867   1.935  84.283  1.5327  0.0389 -0.2288
 6753TIP3    H241751   1.770   1.912  84.170 -0.7046 -1.9612  1.9699
 6754TIP3   OH241752   1.244   1.052   0.770  0.0478 -0.2715 -0.3538
 6754TIP3    H141753   1.154   1.069   0.798 -0.4064 -2.5978 -0.1800
 6754TIP3    H241754   1.256   1.109   0.694 -1.1807  0.8733  0.2557
 6755TIP3   OH241755   1.081   0.518 108.207 -0.2917 -0.3361  0.1578
 6755TIP3    H141756   1.095   0.591 108.267 -2.0100  0.6252 -0.5180
 6755TIP3    H241757   0.986   0.504 108.208 -0.0208 -2.5684  0.2499
 6756TIP3   OH241758   1.113   2.260  33.941 -0.3408  0.1127 -0.2720
 6756TIP3    H141759   1.076   2.181  33.981 -0.0344  0.1099  0.0083
 6756TIP3    H241760   1.189   2.229  33.892  0.9026  0.4477  1.3390
 6757TIP3   OH241761   1.489   1.509  82.955  0.0584 -0.8142  0.7313
 6757TIP3    H141762   1.556   1.575  82.968  0.3987 -0.4136 -2.2369
 6757TIP3    H241763   1.408   1.549  82.986  0.3035  0.9622 -0.7846
 6758TIP3   OH241764   1.427   0.362  10.622 -0.4083 -0.1163  0.4353
 6758TIP3    H141765   1.435   0.283  10.676  0.7600  0.2131  0.7703
 6758TIP3    H241766   1.394   0.429  10.682 -1.2506 -0.3073  0.1883
 6759TIP3   OH241767   0.797   1.896  23.760  0.2493  0.2067 -0.8961
 6759TIP3    H141768   0.743   1.819  23.776  1.6843 -0.8511 -0.9694
 6759TIP3    H241769   0.765   1.931  23.677 -0.0980 -0.5930 -1.1087
 6760TIP3   OH241770   0.177   0.901  13.231 -0.0633  0.6060 -0.3508
 6760TIP3    H141771   0.132   0.972  13.278  0.1633 -0.0820  0.9417
 6760TIP3    H241772   0.106   0.852  13.190 -0.3553  0.6534  0.0836
 6761TIP3   OH241773   1.748   2.255  22.351 -0.2175  0.4926 -0.8963
 6761TIP3    H141774   1.758   2.248  22.256  2.1923 -0.5596 -0.6380
 6761TIP3    H241775   1.726   2.167  22.380 -1.5634  0.9342 -0.5009
 6762TIP3   OH241776   2.222   2.226  33.442 -0.0588 -0.2318  0.2729
 6762TIP3    H141777   2.312   2.233  33.411  0.1280  0.5710  0.9677
 6762TIP3    H241778   2.222   2.149  33.499 -0.2611 -1.3374 -1.1738
 6763TIP3   OH241779   1.217   0.701 104.602  0.5680 -0.1983  0.0044
 6763TIP3    H141780   1.229   0.724 104.694  1.8104 -1.3370  0.1496
 6763TIP3    H241781   1.123   0.711 104.587  0.3555  0.0338  1.3804
 6764TIP3   OH241782   0.389   0.700  25.518  0.5254  0.4150  0.2412
 6764TIP3    H141783   0.307   0.707  25.568  0.0730  0.9809 -0.5532
 6764TIP3    H241784   0.441   0.636  25.566 -0.2454  0.3046  0.9549
 6765TIP3   OH241785   2.349   1.253  98.134  0.0789  0.5344  0.3321
 6765TIP3    H141786   2.302   1.204  98.201 -1.0932  1.3280  0.1109
 6765TIP3    H241787   2.300   1.236  98.053  0.5400  0.8800 -0.0236
 6766TIP3   OH241788   2.186   2.540  11.790  0.5488 -0.6829 -0.2017
 6766TIP3    H141789   2.280   2.522  11.801  0.9149  1.0097 -0.3800
 6766TIP3    H241790   2.143   2.466  11.833  1.9573 -0.6634  1.3433
 6767TIP3   OH241791   0.553   0.824 111.989 -0.1375  0.2303 -0.2185
 6767TIP3    H141792   0.603   0.781 112.058  1.2924 -0.2367 -1.5096
 6767TIP3    H241793   0.462   0.822 112.020  0.4724  0.0467  1.6387
 6768TIP3   OH241794   2.325   0.570  24.562 -0.4653  0.1770 -0.2809
 6768TIP3    H141795   2.410   0.562  24.604  0.3290  0.3981 -1.7607
 6768TIP3    H241796   2.299   0.480  24.542 -0.3152  0.1427 -0.3220
 6769TIP3   OH241797   2.025   1.641   3.160 -0.5644 -0.1203  0.7020
 6769TIP3    H141798   2.102   1.691   3.131 -0.3772  0.2514  1.8003
 6769TIP3    H241799   2.021   1.655   3.254 -1.3847 -0.9851  0.8150
 6770TIP3   OH241800   0.733   2.202  78.184 -0.4762  0.4487 -0.1498
 6770TIP3    H141801   0.739   2.281  78.237  1.5714 -0.7582  1.5440
 6770TIP3    H241802   0.673   2.145  78.232 -0.1796  0.1195 -0.1668
 6771TIP3   OH241803   2.615   1.705  26.804 -0.1305 -0.4475  0.2914
 6771TIP3    H141804   2.524   1.681  26.787  0.4511 -0.5993 -3.5245
 6771TIP3    H241805   2.610   1.784  26.857 -2.4965 -0.1851 -0.2346
 6772TIP3   OH241806   0.374   1.946  89.522 -0.6684 -0.2403  0.2885
 6772TIP3    H141807   0.386   1.854  89.502 -3.5059 -0.5674 -0.3860
 6772TIP3    H241808   0.429   1.962  89.599  0.8864 -2.1043 -0.3698
 6773TIP3   OH241809   0.126   0.264   3.730 -0.4221  0.1153  0.1214
 6773TIP3    H141810   0.073   0.323   3.782  0.5070  0.1700  1.0367
 6773TIP3    H241811   0.200   0.317   3.701 -0.7027 -0.0308 -0.9049
 6774TIP3   OH241812   1.972   0.338  36.706  0.1454  0.5556 -0.4281
 6774TIP3    H141813   1.951   0.334  36.612 -0.3947  1.5293 -0.3627
 6774TIP3    H241814   1.944   0.425  36.733 -0.4998 -0.0109  0.8362
 6775TIP3   OH241815   2.038   1.754  29.513 -0.1222  0.3719 -0.0103
 6775TIP3    H141816   1.946   1.743  29.493 -0.8739  1.2861  2.5343
 6775TIP3    H241817   2.069   1.820  29.451 -1.0874 -0.1641 -1.0834
 6776TIP3   OH241818   2.034   1.785  16.527  0.1078  0.1825  0.4016
 6776TIP3    H141819   2.097   1.781  16.455 -1.9401 -0.7399 -1.4590
 6776TIP3    H241820   2.065   1.719  16.590  1.1494 -0.0315 -0.3025
 6777TIP3   OH241821   2.295   1.360  79.643  0.1398  0.1014 -0.8638
 6777TIP3    H141822   2.277   1.435  79.586  1.7953 -0.3290 -2.0520
 6777TIP3    H241823   2.292   1.284  79.585 -1.0653 -0.7318  0.2368
 6778TIP3   OH241824   1.597   1.687  78.869  0.1157 -0.2436  0.3072
 6778TIP3    H141825   1.514   1.717  78.831 -1.2933  0.3356  3.4754
 6778TIP3    H241826   1.623   1.613  78.815 -1.4827  0.6710 -1.8800
 6779TIP3   OH241827   2.405   0.238  67.892 -0.2830 -0.3823  0.0670
 6779TIP3    H141828   2.427   0.149  67.864  3.0320  0.2305  0.3362
 6779TIP3    H241829   2.399   0.288  67.811  0.1959 -0.3916  0.0251
 6780TIP3   OH241830   0.177   1.637   5.646 -0.5640 -0.3095  0.4376
 6780TIP3    H141831   0.105   1.691   5.613 -1.1510 -1.8614 -0.9353
 6780TIP3    H241832   0.228   1.616   5.568  1.5277  0.8813  1.4004
 6781TIP3   OH241833   0.678   0.105 100.834 -0.0252 -0.2253  0.7372
 6781TIP3    H141834   0.696   0.026 100.885  0.3374  0.2821  1.4073
 6781TIP3    H241835   0.650   0.170 100.899  1.0661  0.6262  0.3988
 6782TIP3   OH241836   0.153   1.099 107.859 -0.1164 -0.0226  0.0990
 6782TIP3    H141837   0.238   1.058 107.841 -0.2468 -0.6378  0.8081
 6782TIP3    H241838   0.093   1.054 107.800  0.2210  1.2083 -1.2247
 6783TIP3   OH241839   2.252   2.332 104.202  0.1831  0.0545 -0.1288
 6783TIP3    H141840   2.219   2.252 104.242  0.2799 -0.0309 -0.2176
 6783TIP3    H241841   2.200   2.341 104.122  0.8323 -0.4442 -0.6199
 6784TIP3   OH241842   0.393   2.192  97.900  0.0174 -0.1420 -0.3675
 6784TIP3    H141843   0.324   2.166  97.960  0.1720  0.7803  0.2199
 6784TIP3    H241844   0.357   2.172  97.813 -0.6444 -0.4652 -0.0286
 6785TIP3   OH241845   0.501   0.983  17.952  0.0334  0.0856 -0.3577
 6785TIP3    H141846   0.542   0.901  17.981  0.0859 -0.1864 -1.1744
 6785TIP3    H241847   0.504   0.978  17.856  0.7670  1.3972 -0.4256
 6786TIP3   OH241848   0.705   1.091  19.013  0.5265  0.1281 -0.1296
 6786TIP3    H141849   0.793   1.091  19.052  0.9200 -1.0957 -0.9408
 6786TIP3    H241850   0.693   1.180  18.981  1.0769  0.5652  0.8222
 6787TIP3   OH241851   0.495   2.452  78.552  0.2008 -0.2682 -0.1109
 6787TIP3    H141852   0.399   2.458  78.552  0.0971 -1.5764  0.6876
 6787TIP3    H241853   0.525   2.538  78.584 -0.6467  0.5304 -1.3510
 6788TIP3   OH241854   2.442   0.027  99.098  0.2848 -0.3357  0.1142
 6788TIP3    H141855   2.471  -0.051  99.144  0.8603  0.3463  0.9381
 6788TIP3    H241856   2.455   0.007  99.006 -0.9168 -1.7429  0.2116
 6789TIP3   OH241857   0.502   1.306   3.753 -0.1192  0.0042 -0.2839
 6789TIP3    H141858   0.597   1.305   3.740  0.2129 -0.6808  1.7639
 6789TIP3    H241859   0.479   1.214   3.765 -0.8928  0.2564  0.2361
 6790TIP3   OH241860   0.518   2.374 103.129  0.0880  0.1490 -0.0028
 6790TIP3    H141861   0.454   2.399 103.062 -0.9686  0.4218  1.0662
 6790TIP3    H241862   0.579   2.316 103.084 -0.9825 -0.2097 -1.0333
 6791TIP3   OH241863   0.545   0.937  78.805 -0.3242  0.0634 -0.6634
 6791TIP3    H141864   0.507   0.873  78.865  2.8093  0.7086  2.3548
 6791TIP3    H241865   0.524   1.022  78.844  0.5982  0.5713 -1.2334
 6792TIP3   OH241866   2.101   1.242  23.612 -0.5419  0.3188  0.0088
 6792TIP3    H141867   2.153   1.262  23.690  0.4259  3.3562 -1.2467
 6792TIP3    H241868   2.120   1.150  23.593  1.5901  0.3355  1.6253
 6793TIP3   OH241869   2.342   1.686 101.537  0.1897  0.1368  0.4201
 6793TIP3    H141870   2.304   1.735 101.610 -0.3976  1.1769 -0.5434
 6793TIP3    H241871   2.272   1.682 101.472  0.8641 -0.3169 -0.2984
 6794TIP3   OH241872   1.431   1.727  94.531  0.2335  0.2890 -0.2205
 6794TIP3    H141873   1.517   1.744  94.571  0.2320 -1.1854  0.4532
 6794TIP3    H241874   1.419   1.633  94.540 -1.7649  0.5561  0.3019
 6795TIP3   OH241875   0.699   0.351  31.175  0.2590  0.6887  0.3656
 6795TIP3    H141876   0.703   0.293  31.251 -0.3016 -0.2061 -0.2575
 6795TIP3    H241877   0.784   0.339  31.132  0.7291  1.4930  1.0391
 6796TIP3   OH241878   0.622   1.819  25.756  0.3666 -0.0038 -0.1619
 6796TIP3    H141879   0.706   1.829  25.800  1.0027 -1.9776 -0.8516
 6796TIP3    H241880   0.567   1.772  25.819  0.1945  0.1095 -0.2251
 6797TIP3   OH241881   2.400   0.037   1.160 -0.1741 -0.1791  0.6845
 6797TIP3    H141882   2.473   0.023   1.100 -1.6386  0.5771 -1.4369
 6797TIP3    H241883   2.323   0.037   1.103 -1.6040  1.4819  2.4848
 6798TIP3   OH241884   0.956   0.605 105.471  0.2768 -0.6576  0.0912
 6798TIP3    H141885   0.922   0.518 105.449  2.0416 -0.8080 -2.5496
 6798TIP3    H241886   0.967   0.648 105.386  2.9405  0.7513  1.0428
 6799TIP3   OH241887   2.110   2.626 103.223 -0.3573 -0.1334  0.0391
 6799TIP3    H141888   2.143   2.546 103.266 -1.1740  0.5405  2.0316
 6799TIP3    H241889   2.100   2.601 103.131  1.2157 -1.7532  0.2378
 6800TIP3   OH241890   2.014   0.060  36.479 -0.0094  0.0143  0.0067
 6800TIP3    H141891   1.936   0.114  36.466  0.3723  0.2162 -1.5742
 6800TIP3    H241892   1.991   0.003  36.553 -0.8818  1.4575  0.8873
 6801TIP3   OH241893   1.541   2.460  18.705  0.2065 -0.2638 -0.2342
 6801TIP3    H141894   1.467   2.415  18.747  0.7979 -1.0048  0.0389
 6801TIP3    H241895   1.615   2.402  18.719  0.8703  0.5213 -0.4229
 6802TIP3   OH241896   2.599   0.784  81.230  0.1634  0.0954  0.0994
 6802TIP3    H141897   2.585   0.876  81.253 -1.1628 -0.3216  1.0774
 6802TIP3    H241898   2.548   0.772  81.150 -1.3136 -0.2431  1.0532
 6803TIP3   OH241899   2.319   2.614  43.503 -0.2867 -0.0407 -0.6972
 6803TIP3    H141900   2.283   2.567  43.578  0.5871 -1.6253 -1.2071
 6803TIP3    H241901   2.394   2.560  43.475  1.4440  2.2327 -0.6956
 6804TIP3   OH241902   2.529   1.057  31.189  0.1787 -0.0245  0.1174
 6804TIP3    H141903   2.474   0.986  31.223 -1.7518  0.6161 -1.4480
 6804TIP3    H241904   2.515   1.054  31.094  1.3397  1.4328 -0.1278
 6805TIP3   OH241905   2.075   2.340 110.398  0.3638  0.0751 -0.0517
 6805TIP3    H141906   2.065   2.433 110.417 -1.2207 -0.3094  1.2420
 6805TIP3    H241907   1.986   2.308 110.384  0.7468 -1.4856  0.8132
 6806TIP3   OH241908   1.189   0.509  80.081  0.5196 -0.6094 -0.0341
 6806TIP3    H141909   1.152   0.497  79.993 -0.4570  1.4805  0.0083
 6806TIP3    H241910   1.156   0.435  80.131 -0.1745 -1.0268 -1.0652
 6807TIP3   OH241911   2.493   1.734  80.711 -0.4352  0.8761  0.2135
 6807TIP3    H141912   2.490   1.707  80.803 -0.7420 -0.5689 -0.2020
 6807TIP3    H241913   2.425   1.800  80.704 -1.8093 -0.4331  0.6053
 6808TIP3   OH241914   1.862   1.621  36.583  0.2261  0.3658  0.4345
 6808TIP3    H141915   1.891   1.647  36.671 -1.3270  3.2521  0.2348
 6808TIP3    H241916   1.768   1.604  36.593  0.0445  0.6744 -0.6228
 6809TIP3   OH241917   1.152   2.169  19.844 -0.0486  0.5913  0.7681
 6809TIP3    H141918   1.080   2.106  19.836 -0.5010  1.1032  0.7005
 6809TIP3    H241919   1.147   2.200  19.934  0.5681  0.0705  0.9840
 6810TIP3   OH241920   2.356   1.366  22.450  0.1983  0.2884  0.3812
 6810TIP3    H141921   2.296   1.373  22.525 -1.7325  0.6794 -1.0957
 6810TIP3    H241922   2.373   1.457  22.425 -0.5715  0.1697 -0.6484
 6811TIP3   OH241923   1.089   1.113  37.827  0.2265 -0.2490 -0.0790
 6811TIP3    H141924   1.143   1.056  37.773  0.5878 -0.7461  0.8021
 6811TIP3    H241925   1.134   1.117  37.911 -0.5102  0.2450  0.3015
 6812TIP3   OH241926   1.546   0.888 105.056  0.3112  0.5104 -0.1216
 6812TIP3    H141927   1.591   0.809 105.088 -1.0481 -0.0493  0.4666
 6812TIP3    H241928   1.591   0.909 104.974  0.7748 -0.8273 -0.2379
 6813TIP3   OH241929   2.032   1.315  16.540  0.1822 -0.7343 -0.6055
 6813TIP3    H141930   2.047   1.265  16.621  1.9080  2.1759  1.0711
 6813TIP3    H241931   1.942   1.348  16.549  0.5314 -0.0113  0.4343
 6814TIP3   OH241932   2.080   0.369  26.265 -0.1279  0.2048 -0.6165
 6814TIP3    H141933   2.172   0.362  26.290 -0.3554  0.0521  0.2134
 6814TIP3    H241934   2.048   0.444  26.315 -1.1502 -1.4401  1.3641
 6815TIP3   OH241935   1.866   0.564  30.658 -0.1906 -0.1272 -0.4483
 6815TIP3    H141936   1.890   0.488  30.605  0.1842 -0.8036  0.6483
 6815TIP3    H241937   1.808   0.529  30.726 -1.1017  0.8074 -0.7196
 6816TIP3   OH241938   0.161   2.613  14.603  0.1886  0.1158 -0.2790
 6816TIP3    H141939   0.153   2.701  14.638 -1.9915  0.6949 -2.0158
 6816TIP3    H241940   0.239   2.616  14.547 -0.0909  1.0697 -0.6344
 6817TIP3   OH241941   1.315   1.229  36.618  0.2891 -0.3078  0.3227
 6817TIP3    H141942   1.368   1.253  36.542 -0.3624  0.8770  0.2178
 6817TIP3    H241943   1.361   1.269  36.692 -1.3999  2.4684  0.0275
 6818TIP3   OH241944   0.194   2.211  25.164  0.0745  0.2801 -0.0462
 6818TIP3    H141945   0.138   2.173  25.096  0.0658  2.8444 -1.6104
 6818TIP3    H241946   0.268   2.150  25.170 -1.8864 -2.2094  0.7536
 6819TIP3   OH241947   1.704   2.475  97.054 -0.3784 -0.4327  0.6105
 6819TIP3    H141948   1.684   2.539  97.123  0.4565  0.1940  0.2796
 6819TIP3    H241949   1.666   2.393  97.087 -2.9829  0.5518  0.2750
 6820TIP3   OH241950   1.960   0.389  33.438 -0.1638 -0.1450 -0.1260
 6820TIP3    H141951   2.010   0.461  33.476  0.9597 -1.5878  1.2704
 6820TIP3    H241952   2.018   0.352  33.372  0.5201 -1.5292  1.1752
 6821TIP3   OH241953   0.944   1.689  81.056  0.0063 -0.6444  0.1310
 6821TIP3    H141954   0.968   1.635  81.132  1.7391 -0.3221 -0.1591
 6821TIP3    H241955   1.027   1.716  81.018 -0.8269 -0.5051 -1.7025
 6822TIP3   OH241956   2.663   2.673 100.574 -0.0967 -0.4225 -0.3837
 6822TIP3    H141957   2.619   2.716 100.500 -0.6816 -0.7745 -0.2506
 6822TIP3    H241958   2.672   2.582 100.546 -1.8943 -0.9535  0.6465
 6823TIP3   OH241959   1.440   2.427  16.591 -0.0498 -0.6219  0.0144
 6823TIP3    H141960   1.522   2.463  16.560 -0.4580  1.3776  1.1214
 6823TIP3    H241961   1.464   2.347  16.638  1.1038 -0.7141 -0.7139
 6824TIP3   OH241962   1.945   1.465  63.461  0.3590  0.6127 -0.7793
 6824TIP3    H141963   2.020   1.434  63.512 -0.0832  1.1161  0.2073
 6824TIP3    H241964   1.921   1.391  63.405  0.1679 -0.3579  0.5479
 6825TIP3   OH241965   2.471   1.164  78.412 -0.3211  0.5194  0.1995
 6825TIP3    H141966   2.413   1.234  78.381 -0.2945  0.2945 -0.3529
 6825TIP3    H241967   2.416   1.086  78.412  0.4816 -0.1306 -2.2760
 6826TIP3   OH241968   0.638   0.761  30.495 -0.0753  0.4100  0.1791
 6826TIP3    H141969   0.556   0.742  30.541  0.6304 -2.5113  0.4724
 6826TIP3    H241970   0.639   0.699  30.422  0.9355  1.8464 -1.0899
 6827TIP3   OH241971   2.159   0.114  92.119 -0.1445 -0.4310  0.3419
 6827TIP3    H141972   2.213   0.088  92.044 -0.1806 -1.5908  0.6968
 6827TIP3    H241973   2.075   0.070  92.105 -0.1364 -0.7034  1.0670
 6828TIP3   OH241974   1.715   2.578 101.939 -0.4183 -0.1705  0.1792
 6828TIP3    H141975   1.762   2.648 101.984  0.3669 -0.7554  0.2816
 6828TIP3    H241976   1.756   2.573 101.853 -1.0020  0.0086 -0.1202
 6829TIP3   OH241977   1.314   2.413  75.978  0.2084 -0.5563  0.4314
 6829TIP3    H141978   1.243   2.383  76.034  2.4121 -2.3002  2.5263
 6829TIP3    H241979   1.357   2.482  76.028  0.4593 -0.0330 -0.4720
 6830TIP3   OH241980   0.596   0.325  94.484 -0.4832  0.3166  0.5386
 6830TIP3    H141981   0.506   0.355  94.472 -0.3715  0.4771  0.0819
 6830TIP3    H241982   0.596   0.280  94.568 -0.6306  1.6766  1.2865
 6831TIP3   OH241983   1.906   1.206 104.253 -0.1551  0.2516 -0.6016
 6831TIP3    H141984   1.843   1.133 104.255 -0.3506  0.4437  0.2096
 6831TIP3    H241985   1.852   1.285 104.255  0.0450  0.4466 -1.7392
 6832TIP3   OH241986   1.261   1.160  87.964 -0.1816  0.2030  0.2412
 6832TIP3    H141987   1.347   1.200  87.981 -0.7074  0.3894  2.8238
 6832TIP3    H241988   1.227   1.208  87.889  1.1106  1.5576  0.4717
 6833TIP3   OH241989   0.507   1.785 104.707  0.1366 -0.1738 -0.0024
 6833TIP3    H141990   0.537   1.733 104.632 -2.2025 -0.5990 -0.7152
 6833TIP3    H241991   0.534   1.734 104.783  1.5092 -0.3229 -0.5468
 6834TIP3   OH241992   0.635   1.152  36.566  0.2693 -0.0093 -0.0865
 6834TIP3    H141993   0.710   1.124  36.618  0.0436 -1.3860 -0.4760
 6834TIP3    H241994   0.623   1.244  36.589  2.5934  0.4906 -0.6281
 6835TIP3   OH241995   2.266   0.711  94.590  0.3059  0.1117 -0.0272
 6835TIP3    H141996   2.332   0.722  94.659 -0.4228 -2.3320  1.1571
 6835TIP3    H241997   2.261   0.617  94.576 -1.4601  0.3773 -1.5954
 6836TIP3   OH241998   0.950   1.929 104.596 -0.7690  0.0679 -0.2933
 6836TIP3    H141999   0.888   1.945 104.525  0.0600  1.0591 -0.8353
 6836TIP3    H242000   0.966   2.016 104.633  0.0843 -0.2017 -0.0110
 6837TIP3   OH242001   1.875   1.936 100.559  0.1266  0.4433  0.3187
 6837TIP3    H142002   1.793   1.919 100.514 -0.6890  0.5050  1.7076
 6837TIP3    H242003   1.878   1.871 100.629  1.1932  0.5385  0.3769
 6838TIP3   OH242004   2.651   2.464   3.766  0.1247  0.2639 -0.2507
 6838TIP3    H142005   2.616   2.429   3.684 -0.6070 -2.5419  1.1296
 6838TIP3    H242006   2.626   2.557   3.765 -1.1159 -0.0143 -2.5300
 6839TIP3   OH242007   0.453   1.142   9.539  0.1949 -0.4824 -0.3759
 6839TIP3    H142008   0.467   1.122   9.632  1.8056 -0.5368 -0.5962
 6839TIP3    H242009   0.541   1.164   9.506 -0.3702 -0.3459 -1.8583
 6840TIP3   OH242010   0.327   0.383  98.825 -0.3872  0.1438 -0.2015
 6840TIP3    H142011   0.340   0.362  98.918 -1.4850 -1.5471 -0.3868
 6840TIP3    H242012   0.264   0.455  98.825 -0.6518 -0.0781  0.3766
 6841TIP3   OH242013   1.824   0.999  96.183 -0.1338  0.1186  0.1609
 6841TIP3    H142014   1.828   1.087  96.218  0.0614  0.2546 -0.1966
 6841TIP3    H242015   1.731   0.977  96.183 -0.1452  0.1634  0.6399
 6842TIP3   OH242016   0.976   0.106  83.547  0.5268 -0.0873 -0.6758
 6842TIP3    H142017   1.067   0.132  83.532  0.9860 -1.5099 -0.4987
 6842TIP3    H242018   0.925   0.183  83.522  1.8288  1.1953  0.4135
 6843TIP3   OH242019   1.400   1.327  93.821  0.0545  0.2257 -0.2985
 6843TIP3    H142020   1.388   1.399  93.759 -3.2676 -0.0928 -0.1870
 6843TIP3    H242021   1.353   1.253  93.782 -0.1923 -0.6461  1.5470
 6844TIP3   OH242022   1.705   1.106  17.330  0.6965  0.6231 -0.2302
 6844TIP3    H142023   1.654   1.174  17.375  0.0955 -0.0271  0.0762
 6844TIP3    H242024   1.789   1.106  17.376 -0.1741 -0.5745  1.4551
 6845TIP3   OH242025   0.059   1.638   7.843 -0.2506 -0.0375 -0.0115
 6845TIP3    H142026   0.101   1.604   7.922  0.1452 -0.3249 -0.3425
 6845TIP3    H242027  -0.034   1.620   7.855 -0.3542  1.0472  0.9564
 6846TIP3   OH242028   0.989   0.296  90.765  0.2771  0.2525  0.2845
 6846TIP3    H142029   0.902   0.298  90.803  0.5574  0.5599  0.9258
 6846TIP3    H242030   1.039   0.239  90.824  0.3556 -0.4351 -0.4317
 6847TIP3   OH242031   2.545   0.568  85.470 -0.0475 -0.0755 -0.3651
 6847TIP3    H142032   2.522   0.479  85.443  1.3353 -1.5264  2.7299
 6847TIP3    H242033   2.638   0.576  85.448 -0.2336  0.7474 -0.8909
 6848TIP3   OH242034   1.203   2.157  21.756  0.0481  0.1087 -0.4340
 6848TIP3    H142035   1.162   2.086  21.806  0.5022  0.2786  0.1867
 6848TIP3    H242036   1.168   2.147  21.667 -2.7087  1.2370  0.3947
 6849TIP3   OH242037   2.138   1.621  27.096  0.1668 -0.2652 -0.2606
 6849TIP3    H142038   2.101   1.685  27.157 -0.1335  0.0637 -0.7770
 6849TIP3    H242039   2.162   1.546  27.150 -1.7335 -0.6980  0.0290
 6850TIP3   OH242040   2.013   1.234  87.579 -0.0511 -0.0693 -0.0048
 6850TIP3    H142041   2.036   1.156  87.630  0.9399  0.5536  0.5193
 6850TIP3    H242042   2.084   1.243  87.516 -0.9294 -0.4457 -1.0752
 6851TIP3   OH242043   0.808   2.000  21.224 -0.3393 -0.1804 -0.4151
 6851TIP3    H142044   0.822   1.954  21.307 -1.1465 -1.0155 -0.7251
 6851TIP3    H242045   0.714   2.019  21.222 -0.9153 -2.6960 -2.3683
 6852TIP3   OH242046   0.635   1.691 108.742 -0.5853 -0.2125 -0.4992
 6852TIP3    H142047   0.557   1.636 108.729 -0.1081 -1.0351 -0.0056
 6852TIP3    H242048   0.668   1.663 108.827 -0.9383  1.6264  0.2771
 6853TIP3   OH242049   2.375   1.239  23.248  0.2033  0.2704  0.4293
 6853TIP3    H142050   2.425   1.221  23.327  1.0502 -0.0782 -0.1757
 6853TIP3    H242051   2.397   1.329  23.226  1.1686 -0.1187 -0.2519
 6854TIP3   OH242052   1.848   0.865  17.024 -0.0902  0.3253  0.3459
 6854TIP3    H142053   1.771   0.857  16.969  0.4500  3.8746 -1.2647
 6854TIP3    H242054   1.922   0.858  16.963  0.7518 -0.2251  1.3909
 6855TIP3   OH242055   0.663   0.203  37.577  0.2784  0.5226 -0.0105
 6855TIP3    H142056   0.722   0.242  37.643  0.0287 -0.3988  0.7811
 6855TIP3    H242057   0.581   0.190  37.624  0.2449 -0.5929 -0.3711
 6856TIP3   OH242058   1.263   1.724  22.375  0.2681 -0.0033  0.6300
 6856TIP3    H142059   1.262   1.750  22.467  0.8720  0.0757  0.6197
 6856TIP3    H242060   1.238   1.631  22.376  0.3307 -0.0180  0.8767
 6857TIP3   OH242061   1.821   1.204   8.966  0.0852  0.3070  0.0051
 6857TIP3    H142062   1.881   1.157   9.025  1.3209 -1.6836 -2.5921
 6857TIP3    H242063   1.749   1.142   8.952 -0.7368  1.1966  0.2162
 6858TIP3   OH242064   0.193   0.472  28.226  0.1408 -0.4685 -0.1922
 6858TIP3    H142065   0.274   0.519  28.205  0.7888 -2.3587 -2.2178
 6858TIP3    H242066   0.210   0.432  28.310  0.7397  0.3403  0.0919
 6859TIP3   OH242067   2.310   0.359  86.689  1.1410 -0.1964 -0.1405
 6859TIP3    H142068   2.268   0.282  86.728  2.7470 -1.6786 -1.1861
 6859TIP3    H242069   2.245   0.428  86.697 -0.9908 -2.0405 -0.5415
 6860TIP3   OH242070   2.488   1.629  94.166 -0.2892  0.3453 -0.2503
 6860TIP3    H142071   2.523   1.546  94.135 -0.1659 -0.6360  2.2694
 6860TIP3    H242072   2.395   1.626  94.146  0.0048  0.4121 -1.7447
 6861TIP3   OH242073   0.224   0.993 104.228  0.0443 -0.0342 -0.5067
 6861TIP3    H142074   0.298   0.998 104.288 -0.4158 -0.3588  0.0963
 6861TIP3    H242075   0.259   0.948 104.151  0.4369 -0.3257 -0.1641
 6862TIP3   OH242076   1.534   2.671  25.086  0.1701  0.1677 -0.3931
 6862TIP3    H142077   1.478   2.654  25.162  0.7256  1.8080  0.4370
 6862TIP3    H242078   1.475   2.704  25.019 -0.3086 -1.1713 -0.6599
 6863TIP3   OH242079   2.672   1.808   5.559  0.1515 -0.1501 -0.0811
 6863TIP3    H142080   2.621   1.808   5.478  0.6279  0.3858 -0.3855
 6863TIP3    H242081   2.719   1.891   5.558 -0.3637  0.1733  1.0829
 6864TIP3   OH242082   0.996   0.660  96.191  0.2650 -0.2400 -0.1885
 6864TIP3    H142083   0.977   0.727  96.257  0.2790  0.6159 -1.0215
 6864TIP3    H242084   0.910   0.629  96.163  0.2168  0.2035 -0.5515
 6865TIP3   OH242085   1.204   0.616  10.583  0.0884  0.0807 -0.0952
 6865TIP3    H142086   1.204   0.571  10.668 -2.6007 -0.5147 -0.3017
 6865TIP3    H242087   1.129   0.579  10.537  0.4127  1.6781 -2.0411
 6866TIP3   OH242088   2.096   1.528  74.121 -0.4373  0.3542 -0.3834
 6866TIP3    H142089   2.001   1.524  74.106 -0.1697 -0.0411 -2.2319
 6866TIP3    H242090   2.133   1.482  74.046  1.2059 -0.1669  0.7062
 6867TIP3   OH242091   1.758   0.234   6.161 -0.3723  0.0342 -0.0571
 6867TIP3    H142092   1.834   0.288   6.138 -0.2913 -0.1264 -0.1673
 6867TIP3    H242093   1.795   0.158   6.205 -0.5364  0.3867  0.6996
 6868TIP3   OH242094   1.960   1.458   0.154  0.3643  0.1954  0.0033
 6868TIP3    H142095   1.985   1.527   0.091  0.1555  0.7047  0.4676
 6868TIP3    H242096   1.878   1.490   0.192 -0.8808 -1.3150 -1.2867
 6869TIP3   OH242097   2.165   1.399  96.136  0.0494 -0.4976  0.3920
 6869TIP3    H142098   2.155   1.305  96.125 -1.9795 -0.2957  0.1488
 6869TIP3    H242099   2.245   1.421  96.089  0.8108 -2.1517  0.8575
 6870TIP3   OH242100   1.931   1.060  81.948  0.0696  0.3245  0.0993
 6870TIP3    H142101   1.944   1.129  82.014 -0.4437 -0.3054  0.8748
 6870TIP3    H242102   1.895   0.986  81.997  1.2230 -0.7429 -0.5939
 6871TIP3   OH242103   0.062   0.770  16.244 -0.1713 -0.0675 -0.2846
 6871TIP3    H142104   0.044   0.691  16.296 -2.8669 -0.5458 -1.7676
 6871TIP3    H242105  -0.014   0.827  16.261  0.4716  1.1071 -1.2455
 6872TIP3   OH242106   1.699   0.796  99.347 -0.0188 -0.3053 -0.2098
 6872TIP3    H142107   1.637   0.759  99.409  1.2110 -0.9074  0.7196
 6872TIP3    H242108   1.731   0.720  99.298  0.0740 -0.0200 -0.5904
 6873TIP3   OH242109   1.212   0.585   1.264 -0.3720  0.3199  0.6783
 6873TIP3    H142110   1.158   0.576   1.186 -1.8195  1.3042  1.5111
 6873TIP3    H242111   1.298   0.552   1.239 -1.0366 -0.1510 -1.0626
 6874TIP3   OH242112   2.571   0.148 100.796  0.3535 -0.4875  0.7321
 6874TIP3    H142113   2.574   0.089 100.721  1.0147  0.8445 -0.3382
 6874TIP3    H242114   2.518   0.102 100.861 -3.7976 -0.0616 -1.9734
 6875TIP3   OH242115   2.371   1.635  36.320 -0.3908 -0.3583 -0.6547
 6875TIP3    H142116   2.347   1.556  36.273 -0.8063  0.2856 -1.5597
 6875TIP3    H242117   2.462   1.653  36.294 -0.0839 -0.8690  0.0409
 6876TIP3   OH242118   0.840   2.579  21.437 -0.0680 -0.1345  0.2483
 6876TIP3    H142119   0.837   2.502  21.381 -2.0768 -0.0415  0.1385
 6876TIP3    H242120   0.907   2.560  21.502 -0.0620 -1.6755 -0.1809
 6877TIP3   OH242121   1.727   2.479   2.275  0.2417 -0.1652  0.2407
 6877TIP3    H142122   1.730   2.387   2.301  0.6448 -0.2826 -0.2070
 6877TIP3    H242123   1.814   2.513   2.295 -0.0782  0.2664  0.9206
 6878TIP3   OH242124   0.307   1.950  92.334  0.5776 -0.3234  0.1723
 6878TIP3    H142125   0.307   1.905  92.419  0.1183 -0.8033 -0.0735
 6878TIP3    H242126   0.221   1.930  92.297  0.0951  1.2912  0.3297
 6879TIP3   OH242127   2.656   2.491  37.185 -0.3341 -0.7900 -0.3496
 6879TIP3    H142128   2.712   2.547  37.239  1.0756 -0.7614 -1.7489
 6879TIP3    H242129   2.661   2.405  37.225 -1.3924 -0.2586  1.0175
 6880TIP3   OH242130   1.149   0.275  34.001 -0.1267 -0.4052  0.0004
 6880TIP3    H142131   1.231   0.257  34.045  0.9212  0.8442 -1.3395
 6880TIP3    H242132   1.082   0.234  34.056  1.4778 -2.6201  0.4210
 6881TIP3   OH242133   2.514   0.353  94.539  0.0914 -1.1662 -0.0524
 6881TIP3    H142134   2.477   0.350  94.451 -1.9610  0.4752  0.6907
 6881TIP3    H242135   2.560   0.437  94.543 -2.1792  0.1083  1.2356
 6882TIP3   OH242136   0.309   1.632  24.441 -0.3769 -0.3140 -1.0935
 6882TIP3    H142137   0.252   1.693  24.487  0.8718 -0.6545  1.0478
 6882TIP3    H242138   0.253   1.591  24.376 -2.6690 -0.7786  1.0338
 6883TIP3   OH242139   0.277   2.452   6.313  0.3693  0.0163 -0.2715
 6883TIP3    H142140   0.276   2.360   6.340 -0.6868 -0.3617 -1.5079
 6883TIP3    H242141   0.362   2.484   6.342  0.6557 -1.2721  0.4128
 6884TIP3   OH242142   1.652   1.411  92.959 -0.1820  0.4272 -0.3410
 6884TIP3    H142143   1.672   1.369  92.875 -1.1450  0.3862 -0.5582
 6884TIP3    H242144   1.604   1.490  92.935 -1.3566 -0.0971  0.1997
 6885TIP3   OH242145   2.618   0.988  34.534  0.0579  0.0709 -0.2676
 6885TIP3    H142146   2.661   0.942  34.462 -0.9661  1.5475 -1.8927
 6885TIP3    H242147   2.684   0.991  34.603  1.0827 -1.3835 -1.1162
 6886TIP3   OH242148   0.242   2.635  21.736 -0.6183  0.4631 -0.1957
 6886TIP3    H142149   0.177   2.577  21.775  0.1678 -0.4862 -0.2714
 6886TIP3    H242150   0.233   2.717  21.785  0.6012 -0.7893  2.2714
 6887TIP3   OH242151   1.897   0.790  28.046 -0.1682  0.0351 -0.5182
 6887TIP3    H142152   1.937   0.809  28.131 -0.5003  0.1579 -0.3865
 6887TIP3    H242153   1.821   0.736  28.067  0.8508 -1.5975 -0.8979
 6888TIP3   OH242154   0.640   1.997  22.747  0.0152  0.1556 -0.0767
 6888TIP3    H142155   0.667   1.957  22.664  0.5635  0.6606 -0.1514
 6888TIP3    H242156   0.700   1.961  22.812  0.4292  0.7364 -0.1226
 6889TIP3   OH242157   1.510   2.304  77.894  0.1264 -0.0992  0.0131
 6889TIP3    H142158   1.599   2.285  77.923  0.4637 -0.7285 -1.3647
 6889TIP3    H242159   1.515   2.392  77.856  0.1896 -0.1927 -0.1983
 6890TIP3   OH242160   2.483   2.317 104.050 -0.2815 -0.7598 -0.4811
 6890TIP3    H142161   2.472   2.271 103.966  0.9886 -1.9220 -0.0549
 6890TIP3    H242162   2.395   2.320 104.087 -0.4143 -3.0701 -0.4476
 6891TIP3   OH242163   0.406   1.982 106.725  0.8118 -0.2882  0.1157
 6891TIP3    H142164   0.490   2.018 106.755  1.1926 -0.3907 -0.7757
 6891TIP3    H242165   0.431   1.919 106.657 -0.0520  0.5415 -1.0024
 6892TIP3   OH242166   0.581   1.415 107.082 -0.1992 -0.1532 -0.2214
 6892TIP3    H142167   0.656   1.451 107.034  1.1144  0.7661  2.3407
 6892TIP3    H242168   0.569   1.327 107.047  0.2499  0.6603 -2.6156
 6893TIP3   OH242169   1.832   1.427 107.858 -0.1072  0.0623 -0.2184
 6893TIP3    H142170   1.796   1.488 107.922 -0.3080 -0.4930  0.2020
 6893TIP3    H242171   1.921   1.409 107.889 -0.0230  0.1876 -0.3809
 6894TIP3   OH242172   1.767   1.102   1.327 -0.8340  0.0619 -0.2206
 6894TIP3    H142173   1.674   1.084   1.334 -0.8883  0.0579 -0.9076
 6894TIP3    H242174   1.779   1.135   1.237 -0.5738  2.3389  0.5748
 6895TIP3   OH242175   1.110   0.465  95.667 -0.0817 -0.5403  0.2279
 6895TIP3    H142176   1.201   0.475  95.639 -0.0298 -1.0617  0.2057
 6895TIP3    H242177   1.059   0.503  95.595  0.1431  0.9030  0.7859
 6896TIP3   OH242178   1.762   1.522  13.708 -0.1481  0.4367  0.1896
 6896TIP3    H142179   1.854   1.508  13.687 -0.4263 -1.6788  0.1711
 6896TIP3    H242180   1.717   1.520  13.623 -0.3350  0.5276  0.2844
 6897TIP3   OH242181   1.270   1.370  36.218 -0.3484 -0.5970  0.2487
 6897TIP3    H142182   1.216   1.296  36.246  2.9184 -2.7014  1.5378
 6897TIP3    H242183   1.311   1.340  36.137 -0.4141  0.6019 -0.2393
 6898TIP3   OH242184   2.200   0.075  25.204 -0.2150 -0.2262  0.0362
 6898TIP3    H142185   2.240   0.007  25.258  0.1771 -1.4374 -1.6735
 6898TIP3    H242186   2.223   0.049  25.114 -2.4393  0.6388 -0.8309
 6899TIP3   OH242187   2.333   2.174  18.118 -0.2074  0.0019 -0.1547
 6899TIP3    H142188   2.313   2.263  18.091 -0.9949 -0.0501  0.2158
 6899TIP3    H242189   2.369   2.183  18.206 -0.5046 -0.0555 -0.0245
 6900TIP3   OH242190   0.829   1.450   8.826 -0.0176 -0.0983  0.0456
 6900TIP3    H142191   0.795   1.490   8.906 -1.4765 -0.0687 -0.5517
 6900TIP3    H242192   0.767   1.381   8.805 -1.1134  1.4640 -2.3630
 6901TIP3   OH242193   1.508   2.184  21.952  0.2168 -0.5705 -0.1493
 6901TIP3    H142194   1.513   2.124  21.877  2.4971  0.1118 -0.6221
 6901TIP3    H242195   1.492   2.270  21.912  0.6113 -0.3312  0.2066
 6902TIP3   OH242196   1.983   2.449  24.161  0.4635 -0.0976  0.2011
 6902TIP3    H142197   1.982   2.493  24.247  1.1501 -0.3781  0.3582
 6902TIP3    H242198   1.920   2.378  24.170 -0.4505  0.6679  0.0396
 6903TIP3   OH242199   1.539   2.497 111.431 -0.2022  0.1846 -0.3469
 6903TIP3    H142200   1.449   2.469 111.444  0.0494 -0.3124  0.4531
 6903TIP3    H242201   1.558   2.477 111.339 -0.9283  0.3881 -0.5463
 6904TIP3   OH242202   1.143   0.498  31.733 -0.2339  0.2581  0.1107
 6904TIP3    H142203   1.097   0.414  31.724  0.1920  0.0455 -0.0993
 6904TIP3    H242204   1.148   0.533  31.644  1.2054 -0.3652 -0.0785
 6905TIP3   OH242205   1.516   1.551  19.060 -0.0959  0.1755 -0.2198
 6905TIP3    H142206   1.459   1.591  18.995 -1.5684 -1.0570  0.2440
 6905TIP3    H242207   1.466   1.553  19.141  1.2462  0.6498  0.6352
 6906TIP3   OH242208   0.652   1.364  76.381 -0.1110 -0.3715 -0.3777
 6906TIP3    H142209   0.663   1.364  76.286  0.4211 -0.0363 -0.3166
 6906TIP3    H242210   0.557   1.358  76.394 -0.5085  2.8708 -0.9748
 6907TIP3   OH242211   0.513   1.581  93.141 -0.7482 -0.5581 -0.1287
 6907TIP3    H142212   0.577   1.614  93.078 -0.5367  0.1233  0.4284
 6907TIP3    H242213   0.456   1.524  93.089 -0.5042 -0.1122 -0.9101
 6908TIP3   OH242214   2.256   0.537  84.530  0.3686 -0.0399 -0.5905
 6908TIP3    H142215   2.204   0.594  84.473 -0.5926 -0.6300 -0.3111
 6908TIP3    H242216   2.298   0.476  84.469 -1.4036 -1.2762 -0.6392
 6909TIP3   OH242217   1.027   2.256 106.548  0.1328 -0.3048 -0.2679
 6909TIP3    H142218   1.115   2.227 106.525 -0.4467 -0.5880 -2.3257
 6909TIP3    H242219   0.975   2.240 106.469 -1.7137  0.0891  0.8144
 6910TIP3   OH242220   1.443   1.376  79.303 -0.0223  0.3441  0.1275
 6910TIP3    H142221   1.447   1.286  79.269 -1.3499  0.6273 -0.8300
 6910TIP3    H242222   1.427   1.430  79.226  0.7157  1.4223  0.7072
 6911TIP3   OH242223   1.118   0.924  79.179  0.2184 -0.3494  0.2415
 6911TIP3    H142224   1.049   0.967  79.129 -0.9604 -2.6002 -0.1801
 6911TIP3    H242225   1.083   0.918  79.268  0.5274 -0.1577  0.3804
 6912TIP3   OH242226   1.419   0.864  51.512 -1.8005  0.4014  0.3738
 6912TIP3    H142227   1.496   0.808  51.521 -1.3583  0.3492 -2.7493
 6912TIP3    H242228   1.351   0.806  51.478 -2.8714  0.7575  1.8078
 6913TIP3   OH242229   2.510   2.600   9.235  0.3379  0.3523 -0.2629
 6913TIP3    H142230   2.422   2.568   9.219  0.6723 -0.2355 -0.9778
 6913TIP3    H242231   2.567   2.524   9.220  0.8664  0.3593  1.5169
 6914TIP3   OH242232   2.554   0.900  21.626 -0.3958  0.3356 -0.5046
 6914TIP3    H142233   2.490   0.833  21.602 -0.1352  0.5996 -2.0568
 6914TIP3    H242234   2.501   0.974  21.656 -0.7566  0.0684 -0.4749
 6915TIP3   OH242235   0.614   2.484  75.438  0.5978  0.8708 -0.3180
 6915TIP3    H142236   0.695   2.525  75.406  0.4308  0.5506 -1.1883
 6915TIP3    H242237   0.605   2.405  75.384  0.6984 -0.1085  1.0594
 6916TIP3   OH242238   2.395   1.229  94.865  0.3250 -0.0053 -0.2405
 6916TIP3    H142239   2.388   1.142  94.826 -0.1073 -0.4812  0.8527
 6916TIP3    H242240   2.473   1.267  94.824  0.4967 -0.8877 -0.7632
 6917TIP3   OH242241   2.328   1.775 111.092  0.0411 -0.0150 -1.0127
 6917TIP3    H142242   2.281   1.704 111.049  0.3659 -0.5477 -0.4855
 6917TIP3    H242243   2.273   1.852 111.077 -0.3374 -0.3796 -1.5325
 6918TIP3   OH242244   1.128   0.345  90.335  0.0734  0.2498  0.3428
 6918TIP3    H142245   1.222   0.353  90.320  0.3205  0.6411  1.8799
 6918TIP3    H242246   1.093   0.310  90.253  1.2698  1.8937 -0.9270
 6919TIP3   OH242247   1.519   1.469  87.938 -0.0933  0.4416  0.0748
 6919TIP3    H142248   1.521   1.531  88.011 -0.2531  1.0676 -0.4482
 6919TIP3    H242249   1.440   1.491  87.888 -1.1747 -1.3625  0.8726
 6920TIP3   OH242250   2.582   1.609  76.348  0.0147  0.1840  0.2892
 6920TIP3    H142251   2.675   1.627  76.363  0.0178  2.4575 -1.8279
 6920TIP3    H242252   2.580   1.552  76.272 -0.3067  0.2308  0.2568
 6921TIP3   OH242253   2.226   0.920   6.286 -0.2764 -0.1222 -0.3163
 6921TIP3    H142254   2.257   0.925   6.377 -0.0253 -0.8334 -0.3515
 6921TIP3    H242255   2.285   0.977   6.237  0.0215 -0.2756 -0.1394
 6922TIP3   OH242256   1.440   1.012   4.595 -0.2815 -0.5828  0.1229
 6922TIP3    H142257   1.513   1.072   4.609 -1.7110  2.0697 -2.4767
 6922TIP3    H242258   1.461   0.935   4.648  2.5035  1.5162  2.4176
 6923TIP3   OH242259   1.487   0.589  81.305 -0.4270  0.5591  0.7089
 6923TIP3    H142260   1.430   0.657  81.270 -0.5629  1.2406  2.1683
 6923TIP3    H242261   1.568   0.635  81.328 -0.7846  0.4266  2.4001
 6924TIP3   OH242262   0.610   1.205  93.867  0.3873 -0.0145 -0.0978
 6924TIP3    H142263   0.622   1.114  93.838  1.3662  0.1495 -0.2311
 6924TIP3    H242264   0.553   1.198  93.944 -1.8262 -0.5015 -1.6969
 6925TIP3   OH242265   0.033   0.349  18.490  0.0872  0.0793 -0.4604
 6925TIP3    H142266  -0.036   0.354  18.424 -0.4185  1.1361  0.1170
 6925TIP3    H242267   0.029   0.259  18.522 -1.8483  0.4217  0.3988
 6926TIP3   OH242268   0.101   2.203  12.379 -0.4571  0.1574  0.1817
 6926TIP3    H142269   0.064   2.250  12.453 -1.3454  2.6991 -1.7402
 6926TIP3    H242270   0.188   2.241  12.367  0.1731 -1.0852  0.5945
 6927TIP3   OH242271   2.236   1.958  11.586  0.3930 -0.0021  0.5098
 6927TIP3    H142272   2.308   1.998  11.636 -1.3281  1.7201  1.7394
 6927TIP3    H242273   2.173   1.932  11.653 -0.6113 -0.5101 -0.6126
 6928TIP3   OH242274   1.124   2.228  32.297 -0.3354  0.0612 -0.1055
 6928TIP3    H142275   1.203   2.184  32.328  0.2582  1.7217  0.8204
 6928TIP3    H242276   1.112   2.194  32.208 -0.0098 -2.0603  0.6060
 6929TIP3   OH242277   2.154   2.244  24.112 -0.9061  0.3638 -0.0275
 6929TIP3    H142278   2.106   2.162  24.102 -1.0712  0.1210  2.3410
 6929TIP3    H242279   2.087   2.312  24.111 -0.9147  0.3530 -0.4560
 6930TIP3   OH242280   1.413   2.588  28.760 -0.3858 -0.1819  0.2683
 6930TIP3    H142281   1.417   2.641  28.839 -0.3287  0.4049 -0.1192
 6930TIP3    H242282   1.398   2.651  28.689 -0.3851 -0.6898 -0.1955
 6931TIP3   OH242283   0.971   0.578  10.456 -0.1627  0.5019 -0.0062
 6931TIP3    H142284   0.895   0.573  10.398  0.5837 -0.0714 -0.9609
 6931TIP3    H242285   0.966   0.666  10.494 -0.8910  0.7421 -0.6285
 6932TIP3   OH242286   1.383   1.334  27.219 -0.2272  0.3100 -0.5183
 6932TIP3    H142287   1.433   1.400  27.266 -0.8572 -0.7481  1.7466
 6932TIP3    H242288   1.438   1.256  27.219 -0.5401  0.0813 -0.9274
 6933TIP3   OH242289   1.239   1.733  53.589  0.8602 -0.2186  0.0504
 6933TIP3    H142290   1.304   1.663  53.584  1.2624  0.2401 -2.0134
 6933TIP3    H242291   1.252   1.784  53.509 -2.5852 -0.6207 -0.9605
 6934TIP3   OH242292   0.042   1.697   0.315 -0.1075  0.2882 -0.0545
 6934TIP3    H142293   0.096   1.722   0.240 -1.4155 -1.2026 -1.5584
 6934TIP3    H242294  -0.048   1.719   0.289 -0.6269 -0.5146  0.9588
 6935TIP3   OH242295   1.994   0.554  17.810 -0.2369  0.4221 -0.0292
 6935TIP3    H142296   1.926   0.611  17.775  0.5471  1.9611  0.8166
 6935TIP3    H242297   2.043   0.525  17.733 -0.4489  1.1903 -0.4638
 6936TIP3   OH242298   0.158   1.175  25.881 -0.1409 -0.0220  0.2517
 6936TIP3    H142299   0.126   1.253  25.925 -1.2153 -0.7806  0.8737
 6936TIP3    H242300   0.246   1.198  25.851 -0.0256  1.0562  1.3560
 6937TIP3   OH242301   1.611   1.948  89.656  0.1970  0.3498  0.1677
 6937TIP3    H142302   1.677   2.013  89.679 -0.7452  1.0123  1.1125
 6937TIP3    H242303   1.642   1.867  89.695  1.0405  0.3764 -0.4260
 6938TIP3   OH242304   0.488   1.899  26.949 -0.0267 -0.3212  0.0806
 6938TIP3    H142305   0.428   1.891  26.875 -0.4887 -2.7370  0.6255
 6938TIP3    H242306   0.508   1.809  26.973  1.3649  0.4123  1.9129
 6939TIP3   OH242307   0.155   0.031   6.253  0.3683 -0.6405  0.1568
 6939TIP3    H142308   0.192  -0.040   6.304  0.4958 -0.1788  0.7230
 6939TIP3    H242309   0.064   0.037   6.281  0.5216 -0.1771  0.5838
 6940TIP3   OH242310   2.057   2.042  37.751  0.2980  0.1254 -0.7780
 6940TIP3    H142311   2.122   2.025  37.820  0.6018 -1.3270 -1.3752
 6940TIP3    H242312   1.997   2.106  37.790  0.3201 -0.8210  0.9414
 6941TIP3   OH242313   0.936   1.130  10.827 -0.2995  0.2465  0.1751
 6941TIP3    H142314   0.968   1.056  10.878  0.9101  0.6885  0.1136
 6941TIP3    H242315   0.882   1.180  10.888  0.6358  0.4460  0.8736
 6942TIP3   OH242316   2.132   1.940  30.167  0.2805 -0.1432  0.8719
 6942TIP3    H142317   2.124   2.026  30.209  1.8106  1.9236 -2.6661
 6942TIP3    H242318   2.156   1.959  30.077  0.5149 -4.3548 -0.1659
 6943TIP3   OH242319   0.265   1.745 106.205 -0.3031  0.3392 -1.0166
 6943TIP3    H142320   0.249   1.827 106.252 -0.1745  0.0222 -0.4106
 6943TIP3    H242321   0.360   1.742 106.195 -0.3102  0.2785 -1.0626
 6944TIP3   OH242322   2.629   2.460  29.362  0.1135  0.2963 -0.2058
 6944TIP3    H142323   2.606   2.374  29.329  1.1983  0.6138 -1.8785
 6944TIP3    H242324   2.569   2.520  29.317 -0.1115  0.4981  0.3546
 6945TIP3   OH242325   2.078   0.065  80.836  0.3672  0.9440  0.1815
 6945TIP3    H142326   2.134   0.084  80.912  1.3549  2.0409 -0.7764
 6945TIP3    H242327   2.133   0.084  80.760 -0.5549 -0.2469 -0.8364
 6946TIP3   OH242328   1.012   1.821 100.093 -0.0474 -0.2650  0.4653
 6946TIP3    H142329   0.926   1.800 100.058  0.4082 -2.2247  0.3704
 6946TIP3    H242330   0.995   1.866 100.175 -1.1471  0.3721 -0.0989
 6947TIP3   OH242331   1.888   0.698  63.293  0.3560  0.4250 -0.1418
 6947TIP3    H142332   1.811   0.697  63.349 -0.2008 -0.7896 -0.8883
 6947TIP3    H242333   1.935   0.777  63.319 -1.9567  2.1321 -0.7745
 6948TIP3   OH242334   0.191   1.297  10.812  0.2668 -0.4556 -0.0127
 6948TIP3    H142335   0.147   1.336  10.888  0.0417 -0.0888 -0.3299
 6948TIP3    H242336   0.191   1.366  10.746  0.1227 -0.8988 -0.4808
 6949TIP3   OH242337   2.479   0.873   8.546 -0.1053 -0.1199 -0.4210
 6949TIP3    H142338   2.494   0.872   8.452 -0.1781 -0.3539 -0.4294
 6949TIP3    H242339   2.447   0.786   8.567  0.2712 -0.1924 -0.1200
 6950TIP3   OH242340   2.288   1.074  16.698  0.2848  0.2264 -0.5179
 6950TIP3    H142341   2.196   1.095  16.716  0.7587  1.4917  0.6208
 6950TIP3    H242342   2.299   0.984  16.730 -0.6023 -0.0374 -0.9107
 6951TIP3   OH242343   1.541   2.297 110.154  0.2006  0.2572 -0.2670
 6951TIP3    H142344   1.549   2.202 110.144 -1.3692  0.0691 -0.0270
 6951TIP3    H242345   1.523   2.310 110.247  0.7792  0.8255 -0.2318
 6952TIP3   OH242346   2.072   2.289  89.561 -0.0204 -0.0978  0.1909
 6952TIP3    H142347   2.000   2.345  89.590 -0.8516 -1.3551  0.6502
 6952TIP3    H242348   2.106   2.250  89.641  0.1627 -0.6839 -0.1654
 6953TIP3   OH242349   0.878   0.161   1.051 -0.0218 -0.2765  0.1718
 6953TIP3    H142350   0.945   0.215   1.094  0.4444 -1.5572  1.1293
 6953TIP3    H242351   0.816   0.140   1.121 -0.5963 -0.3738 -0.3591
 6954TIP3   OH242352   0.629   0.302  19.169 -0.2985 -0.4841 -0.0074
 6954TIP3    H142353   0.685   0.364  19.123 -1.4154  1.4036  1.0427
 6954TIP3    H242354   0.568   0.357  19.219 -1.6790 -2.4429  0.5878
 6955TIP3   OH242355   0.526   0.711   1.772 -0.3451 -0.0714 -0.0026
 6955TIP3    H142356   0.537   0.639   1.710 -0.8466  0.9455 -1.3308
 6955TIP3    H242357   0.613   0.751   1.778 -0.2622 -0.2614  0.0723
 6956TIP3   OH242358   2.333   2.424  16.781  0.0299  1.0800  0.0664
 6956TIP3    H142359   2.309   2.364  16.852  0.3984  0.7286 -0.0968
 6956TIP3    H242360   2.390   2.488  16.822 -0.4341  1.3714  0.2608
 6957TIP3   OH242361   2.393   2.527  24.619 -0.3950  0.3380  0.1438
 6957TIP3    H142362   2.435   2.596  24.671  0.5051  0.0333 -0.1545
 6957TIP3    H242363   2.405   2.447  24.670  0.6621  0.0039 -0.5933
 6958TIP3   OH242364   1.423   1.807   2.457  0.1403  0.1168  0.3872
 6958TIP3    H142365   1.435   1.811   2.552  0.5938 -0.8804  0.3780
 6958TIP3    H242366   1.328   1.802   2.445  0.0957 -0.0119  0.8026
 6959TIP3   OH242367   2.027   1.398 100.141  0.5066  0.0721  0.2616
 6959TIP3    H142368   2.091   1.467 100.123  0.5616 -0.3075 -1.0694
 6959TIP3    H242369   1.983   1.383 100.058  0.6623 -1.6881  0.4580
 6960TIP3   OH242370   2.062   2.520   6.740  0.0515  0.1645  0.1340
 6960TIP3    H142371   2.152   2.496   6.720 -0.4205 -0.1848 -1.7112
 6960TIP3    H242372   2.015   2.436   6.740 -0.6513  0.5333 -1.1144
 6961TIP3   OH242373   0.947   0.942  77.868 -0.4007  0.8257  0.1786
 6961TIP3    H142374   0.992   1.027  77.866  0.2743  0.4903 -2.0191
 6961TIP3    H242375   0.929   0.923  77.776 -4.5990  0.6206  0.8543
 6962TIP3   OH242376   0.351   1.253  86.435  0.3049  0.1356 -0.2298
 6962TIP3    H142377   0.401   1.334  86.435 -0.1480  0.4678 -1.8668
 6962TIP3    H242378   0.404   1.192  86.383  0.3568 -0.4292  0.4758
 6963TIP3   OH242379   2.316   0.134   7.768  0.0834  0.3084 -0.2089
 6963TIP3    H142380   2.334   0.164   7.857  0.8102  1.5682 -0.7611
 6963TIP3    H242381   2.389   0.076   7.746  0.2181  0.4752 -0.2019
 6964TIP3   OH242382   0.158   0.492 105.118 -0.0074 -0.0657 -0.2042
 6964TIP3    H142383   0.250   0.510 105.139  0.3316 -1.4174 -0.4383
 6964TIP3    H242384   0.161   0.423 105.053 -1.1708  1.2185 -1.7043
 6965TIP3   OH242385   0.246   1.446  34.523  0.2214  0.1145 -0.3816
 6965TIP3    H142386   0.152   1.451  34.504 -0.0493 -0.3651  0.7102
 6965TIP3    H242387   0.250   1.417  34.614  1.4232  1.2613 -0.0340
 6966TIP3   OH242388   0.642   1.484 101.658  0.0319 -0.8304  0.3730
 6966TIP3    H142389   0.620   1.556 101.717  0.9151 -0.5748  0.3990
 6966TIP3    H242390   0.640   1.524 101.571  1.1100 -0.6194  0.4353
 6967TIP3   OH242391   1.526   0.587   3.727  0.3544  0.0542  0.2522
 6967TIP3    H142392   1.504   0.647   3.798  1.1393  0.7156 -0.0495
 6967TIP3    H242393   1.559   0.509   3.770 -1.2396 -0.4302  0.6721
 6968TIP3   OH242394   0.706   2.639   4.649  0.0200 -1.0741 -0.4038
 6968TIP3    H142395   0.733   2.700   4.580 -1.4558 -0.2826 -0.3373
 6968TIP3    H242396   0.727   2.684   4.731 -1.6119 -0.3408 -0.3501
 6969TIP3   OH242397   1.684   2.630  81.054  0.1418 -0.0051  0.5215
 6969TIP3    H142398   1.668   2.723  81.042  1.5691  0.7485  3.4116
 6969TIP3    H242399   1.764   2.613  81.004 -0.4174  0.1678 -0.4460
 6970TIP3   OH242400   1.267   0.088  29.974 -0.1979  0.2548  0.2039
 6970TIP3    H142401   1.339   0.134  29.933  1.2234 -0.1686  2.0828
 6970TIP3    H242402   1.265   0.002  29.932  0.2041  0.3779 -0.0642
 6971TIP3   OH242403   2.062   1.894 110.355  0.2065 -0.3646 -0.1932
 6971TIP3    H142404   2.011   1.850 110.424  1.5000 -1.8356 -0.1353
 6971TIP3    H242405   2.123   1.951 110.403  0.2313 -0.4038 -0.1772
 6972TIP3   OH242406   0.982   1.080  33.045  0.0780 -0.4146 -0.3159
 6972TIP3    H142407   0.962   1.123  33.128  2.3780 -1.4888  0.8774
 6972TIP3    H242408   0.919   1.007  33.041 -0.3355 -0.0993  0.2534
 6973TIP3   OH242409   0.067   1.040  19.965  0.3570  0.0290 -0.8764
 6973TIP3    H142410   0.130   1.108  19.942 -0.8293  0.6684 -2.4178
 6973TIP3    H242411  -0.008   1.088  20.001  0.3511 -0.6444  0.0511
 6974TIP3   OH242412   0.671   0.143  84.207 -0.3506  0.6694  0.0663
 6974TIP3    H142413   0.614   0.112  84.278  1.4269  0.3614  1.4044
 6974TIP3    H242414   0.628   0.223  84.176 -0.4810  1.6057  2.4418
 6975TIP3   OH242415   2.235   0.285  96.997 -0.0311  0.3095 -0.0364
 6975TIP3    H142416   2.213   0.353  96.934  0.7131  1.2874  0.7404
 6975TIP3    H242417   2.212   0.203  96.952 -0.4647  1.0256 -1.1709
 6976TIP3   OH242418   1.947   1.400  88.720  0.5218 -0.1622 -0.4973
 6976TIP3    H142419   2.031   1.441  88.700  1.0242 -0.8077  0.2468
 6976TIP3    H242420   1.968   1.308  88.736 -0.0620 -0.0282  1.2804
 6977TIP3   OH242421   1.801   1.149   0.331 -0.1466 -0.1214 -0.4147
 6977TIP3    H142422   1.774   1.066   0.370 -0.1590 -0.9125 -1.9929
 6977TIP3    H242423   1.731   1.210   0.352 -0.5444 -0.7299  0.0659
 6978TIP3   OH242424   1.354   1.608  19.308  0.2624 -0.7554 -0.4044
 6978TIP3    H142425   1.312   1.545  19.367  0.6220 -1.1996 -0.6123
 6978TIP3    H242426   1.281   1.646  19.259  0.1467 -2.2855 -1.5062
 6979TIP3   OH242427   1.735   2.614  33.520 -0.3839  0.0377  0.1380
 6979TIP3    H142428   1.754   2.537  33.466  2.3547 -1.9981  3.6351
 6979TIP3    H242429   1.688   2.580  33.595  0.2573  1.8960  1.4463
 6980TIP3   OH242430   1.274   2.067  87.236 -0.7729  0.2808  0.0994
 6980TIP3    H142431   1.199   2.110  87.194  1.0360  1.4627 -2.0829
 6980TIP3    H242432   1.262   1.974  87.215 -0.5693  0.6954 -2.1158
 6981TIP3   OH242433   0.768   2.256  95.464  0.0026 -0.1106  0.2469
 6981TIP3    H142434   0.784   2.350  95.450  0.2913 -0.5626 -3.3277
 6981TIP3    H242435   0.854   2.215  95.458 -0.3172 -0.7618 -0.0098
 6982TIP3   OH242436   1.786   0.242   8.636  0.0816  0.3943  0.2830
 6982TIP3    H142437   1.742   0.163   8.668  0.1933  0.0034 -0.4927
 6982TIP3    H242438   1.836   0.274   8.710 -0.6326  0.2147  0.8572
 6983TIP3   OH242439   2.372   1.874  77.964  0.0331  0.6208 -0.1699
 6983TIP3    H142440   2.334   1.844  77.882  1.3962 -0.1755 -0.5456
 6983TIP3    H242441   2.331   1.959  77.981 -0.9626  0.3584 -1.1612
 6984TIP3   OH242442   0.561   0.412  26.806  0.2500 -0.0042  0.1874
 6984TIP3    H142443   0.497   0.350  26.772  1.0510  0.6754 -2.8230
 6984TIP3    H242444   0.646   0.372  26.788  0.7596  0.3658  1.5941
 6985TIP3   OH242445   1.863   0.072  91.066  0.5898 -0.1397 -0.7198
 6985TIP3    H142446   1.924   0.061  91.139  0.6536  0.4064 -0.6824
 6985TIP3    H242447   1.920   0.089  90.990  0.4798  0.9062 -0.5893
 6986TIP3   OH242448   2.194   0.275  41.410  0.4824  0.4479  0.0245
 6986TIP3    H142449   2.275   0.310  41.374 -0.1282  1.0909 -0.7668
 6986TIP3    H242450   2.133   0.274  41.335  0.1409 -1.2388  0.2918
 6987TIP3   OH242451   1.694   2.586 108.322 -0.1653  0.1370 -0.5067
 6987TIP3    H142452   1.767   2.560 108.379  0.5308 -0.1777 -1.5152
 6987TIP3    H242453   1.719   2.554 108.235 -0.8285  1.3136 -1.1481
 6988TIP3   OH242454   1.668   0.956  77.355 -0.3701 -0.1011 -0.1935
 6988TIP3    H142455   1.625   1.039  77.332  1.0848  1.2417  1.6588
 6988TIP3    H242456   1.633   0.933  77.441  0.2933 -0.6484 -0.0577
 6989TIP3   OH242457   1.501   2.219  88.202  0.4331 -0.1246  0.1154
 6989TIP3    H142458   1.425   2.215  88.145  0.5075 -2.0845  0.0840
 6989TIP3    H242459   1.576   2.208  88.144  0.7430  1.3230  0.2094
 6990TIP3   OH242460   1.933   1.122  31.171 -0.3679  0.3422 -0.2513
 6990TIP3    H142461   2.003   1.107  31.108 -1.0055 -0.3712 -0.8160
 6990TIP3    H242462   1.957   1.070  31.247 -0.1777  0.2843 -0.3511
 6991TIP3   OH242463   1.808   1.687  90.907 -0.5413 -0.3445  0.4332
 6991TIP3    H142464   1.793   1.648  90.821  0.5560 -0.0992  0.1155
 6991TIP3    H242465   1.803   1.614  90.968 -0.2285 -0.7099  0.0278
 6992TIP3   OH242466   1.629   1.846   4.270 -0.0579  0.1897 -0.0835
 6992TIP3    H142467   1.674   1.918   4.315 -2.3351  1.6345  0.0316
 6992TIP3    H242468   1.700   1.797   4.228  1.8260  0.9379  1.9642
 6993TIP3   OH242469   0.381   2.012  83.299  0.0091  0.1984 -0.3139
 6993TIP3    H142470   0.414   2.022  83.210 -1.8595  3.2284 -0.8466
 6993TIP3    H242471   0.305   2.071  83.302 -1.4473 -1.6079  2.6017
 6994TIP3   OH242472   0.040   1.950  14.903 -0.2666  0.0369  0.2347
 6994TIP3    H142473   0.054   2.044  14.917  0.2700  0.2363 -1.4173
 6994TIP3    H242474   0.018   1.916  14.990 -0.0294  1.6050  0.9491
 6995TIP3   OH242475   1.041   0.772  86.228  0.3648 -0.2615 -0.3270
 6995TIP3    H142476   0.997   0.831  86.167  0.3192  0.0524 -0.0009
 6995TIP3    H242477   0.974   0.708  86.252 -0.0309  0.4173  0.4361
 6996TIP3   OH242478   1.991   1.269  92.752 -0.6232  0.3903 -0.7405
 6996TIP3    H142479   1.990   1.274  92.656  1.9805  0.4353 -0.8335
 6996TIP3    H242480   2.061   1.207  92.772 -0.6225  0.9337  1.1244
 6997TIP3   OH242481   1.066   1.514  14.281  0.1744 -0.3703  0.4122
 6997TIP3    H142482   1.153   1.488  14.250  0.0784 -0.1141 -0.0761
 6997TIP3    H242483   1.084   1.558  14.365  0.8404  2.1729 -0.9524
 6998TIP3   OH242484   0.146   1.985  32.960 -0.3293  0.0478  0.4204
 6998TIP3    H142485   0.105   1.934  32.889 -1.2028  1.2665  0.0047
 6998TIP3    H242486   0.149   2.074  32.926  0.2730  0.4523  1.4988
 6999TIP3   OH242487   2.430   0.970  97.580 -0.0674  0.3383 -0.0823
 6999TIP3    H142488   2.353   0.968  97.522 -1.2572  2.0189  1.3453
 6999TIP3    H242489   2.409   0.908  97.650  0.1602  0.3254 -0.0262
 7000TIP3   OH242490   0.079   0.129 103.654  0.3862  0.8425 -0.2176
 7000TIP3    H142491  -0.005   0.108 103.694  0.4519  0.3401 -0.3379
 7000TIP3    H242492   0.073   0.094 103.565  0.8478  0.4986 -0.1202
 7001TIP3   OH242493   0.020   1.315 105.925  0.1278 -0.4270 -0.4723
 7001TIP3    H142494   0.026   1.318 106.021 -0.6576 -1.6927 -0.3555
 7001TIP3    H242495   0.027   1.406 105.898  0.7631 -0.0832  0.7656
 7002TIP3   OH242496   1.967   0.088  84.308 -0.1344 -0.4244  0.8264
 7002TIP3    H142497   2.011   0.153  84.362 -0.2547  0.0381  0.3709
 7002TIP3    H242498   1.881   0.078  84.347  0.5651 -1.8274  2.1243
 7003TIP3   OH242499   0.957   1.931  22.667 -0.8269  0.0869  0.5343
 7003TIP3    H142500   0.983   1.899  22.754  0.4816  0.7318  0.4138
 7003TIP3    H242501   0.942   1.851  22.616 -0.8771 -0.3073  1.1491
 7004TIP3   OH242502   0.981   0.337  29.765 -0.7735  0.0715  0.3802
 7004TIP3    H142503   0.909   0.292  29.721 -1.0263 -0.8881  1.7168
 7004TIP3    H242504   0.950   0.351  29.855  0.4897  0.1505  0.8283
 7005TIP3   OH242505   0.179   2.250  84.906 -0.2067 -0.6766 -1.0305
 7005TIP3    H142506   0.166   2.223  84.815 -0.3873 -0.1004 -1.1826
 7005TIP3    H242507   0.273   2.240  84.920  0.2696  1.6568 -2.0969
 7006TIP3   OH242508   1.465   1.577  13.842 -0.0630 -0.2064 -0.0711
 7006TIP3    H142509   1.555   1.548  13.823 -0.4267 -1.1122 -0.4799
 7006TIP3    H242510   1.476   1.659  13.889  0.9752 -0.0901 -0.4820
 7007TIP3   OH242511   1.681   0.130  23.808  0.4028 -0.6107  0.7851
 7007TIP3    H142512   1.688   0.070  23.734 -0.1510  0.4776 -0.1655
 7007TIP3    H242513   1.772   0.154  23.827  0.5432 -0.8288  0.4080
 7008TIP3   OH242514   2.578   0.208  12.510 -0.3841  0.3743 -0.0598
 7008TIP3    H142515   2.487   0.197  12.537  0.0498 -0.5490  1.1442
 7008TIP3    H242516   2.613   0.273  12.570  0.0843 -0.2484  0.3534
 7009TIP3   OH242517   2.643   0.119  43.271  0.2920  0.1136  0.2153
 7009TIP3    H142518   2.572   0.162  43.319 -0.7524 -0.2631 -0.9494
 7009TIP3    H242519   2.715   0.182  43.274  0.0278  0.3780  1.6684
 7010TIP3   OH242520   1.022   1.556  31.529 -0.1869 -0.6620 -0.4610
 7010TIP3    H142521   1.116   1.573  31.539  0.1070 -2.0216 -0.7242
 7010TIP3    H242522   1.017   1.471  31.487 -1.5550 -0.6002 -0.4818
 7011TIP3   OH242523   1.933   1.069  24.774 -0.4504  0.3908 -0.0287
 7011TIP3    H142524   1.985   1.107  24.844 -0.4481  1.5133 -0.6275
 7011TIP3    H242525   1.950   0.975  24.780  1.1872  0.6715  0.1447
 7012TIP3   OH242526   2.004   0.779  58.405 -0.2232  0.1047  0.3958
 7012TIP3    H142527   2.071   0.848  58.406 -1.2865  1.1845  1.6710
 7012TIP3    H242528   1.922   0.826  58.390 -0.8557 -1.0458  0.1336
 7013TIP3   OH242529   2.109   1.694  85.257 -0.3965  0.4009  0.3313
 7013TIP3    H142530   2.058   1.761  85.302 -0.4797  0.1178  0.6672
 7013TIP3    H242531   2.062   1.613  85.274  0.1496  0.1392  0.6206
 7014TIP3   OH242532   2.143   1.379  17.861 -0.2536  0.2710  0.1210
 7014TIP3    H142533   2.089   1.372  17.940  2.4288  0.7007  2.1305
 7014TIP3    H242534   2.139   1.471  17.838 -0.4892  0.2689  0.1443
 7015TIP3   OH242535   1.032   2.325  18.266  0.8055  0.1193 -0.0155
 7015TIP3    H142536   0.972   2.395  18.240 -1.6034 -2.0068 -0.5886
 7015TIP3    H242537   1.108   2.336  18.209 -0.2086  1.3149 -1.2078
 7016TIP3   OH242538   1.415   0.313  19.738  0.6032 -0.1186 -0.0457
 7016TIP3    H142539   1.348   0.380  19.723  0.3055 -0.2232  0.7554
 7016TIP3    H242540   1.454   0.298  19.652  0.0300  0.4029 -0.4036
 7017TIP3   OH242541   2.279   2.317 108.616  0.0067  0.1917 -0.1135
 7017TIP3    H142542   2.240   2.325 108.529  0.2831 -0.2356 -0.2836
 7017TIP3    H242543   2.204   2.312 108.676 -0.2503 -1.6380 -0.5320
 7018TIP3   OH242544   1.204   1.682  92.568 -0.7272  0.0391 -0.3082
 7018TIP3    H142545   1.126   1.663  92.516 -1.6458  0.0573  1.0215
 7018TIP3    H242546   1.173   1.739  92.638  0.1506 -1.2260  1.1769
 7019TIP3   OH242547   0.248   1.886  80.468 -0.1015  0.0327  0.3877
 7019TIP3    H142548   0.196   1.915  80.393  0.2297  0.8397  0.4613
 7019TIP3    H242549   0.196   1.913  80.544 -0.2157 -0.3708  0.4538
 7020TIP3   OH242550   2.602   1.491  24.984  0.0515  0.2456  0.4865
 7020TIP3    H142551   2.629   1.437  24.910 -1.0531  1.2405 -0.6914
 7020TIP3    H242552   2.584   1.577  24.945  2.3746  1.7102  2.3851
 7021TIP3   OH242553   2.094   1.397 111.479  0.0528 -0.1531 -0.1478
 7021TIP3    H142554   2.043   1.356 111.409  0.7837 -0.3052 -0.6053
 7021TIP3    H242555   2.069   1.489 111.477  0.7859  0.0403 -1.2717
 7022TIP3   OH242556   1.919   2.616   3.898  0.4274  0.2839  0.1783
 7022TIP3    H142557   1.909   2.711   3.894  1.7330  0.4584  0.6184
 7022TIP3    H242558   1.857   2.588   3.965  0.6578  0.9419  0.6816
 7023TIP3   OH242559   0.089   2.503   0.438 -0.1711  0.0813 -0.1242
 7023TIP3    H142560   0.161   2.532   0.494 -0.6965 -0.0788  0.6445
 7023TIP3    H242561   0.018   2.563   0.457 -0.5318 -0.3145 -0.2050
 7024TIP3   OH242562   1.525   1.978  29.101  0.2425  0.3544 -0.5301
 7024TIP3    H142563   1.585   1.912  29.066 -0.9131 -0.4689 -1.0407
 7024TIP3    H242564   1.533   2.052  29.041  3.4082  1.7943  1.4251
 7025TIP3   OH242565   1.659   2.085  13.407 -0.6408 -0.0156  0.1457
 7025TIP3    H142566   1.590   2.018  13.411 -0.5434 -0.2418 -1.5450
 7025TIP3    H242567   1.613   2.165  13.383 -0.4553  0.0829  0.1218
 7026TIP3   OH242568   1.275   1.558 101.082 -0.2256 -0.9893 -0.0769
 7026TIP3    H142569   1.355   1.556 101.029 -0.0407 -1.6734  0.2234
 7026TIP3    H242570   1.291   1.626 101.147 -0.5124 -0.0336 -0.9637
 7027TIP3   OH242571   0.451   0.849  33.317 -0.1446  0.5178 -0.1890
 7027TIP3    H142572   0.469   0.929  33.269  0.0578  0.8802  0.4794
 7027TIP3    H242573   0.382   0.872  33.379 -1.5114 -0.3413 -1.3286
 7028TIP3   OH242574   0.190   2.244  29.400  0.1267  0.1649  0.7456
 7028TIP3    H142575   0.138   2.175  29.442 -0.9811  0.5549  0.0633
 7028TIP3    H242576   0.193   2.315  29.464  1.0182 -0.3765  1.3307
 7029TIP3   OH242577   0.298   0.862  16.367  0.1309 -0.8706  0.0346
 7029TIP3    H142578   0.282   0.794  16.301 -0.5601 -0.8759  0.1963
 7029TIP3    H242579   0.222   0.920  16.360  0.0686 -0.8515  0.7905
 7030TIP3   OH242580   0.735   0.288 100.358  0.0958  0.0657 -0.0053
 7030TIP3    H142581   0.693   0.202 100.366 -1.2368  0.7110  0.1898
 7030TIP3    H242582   0.667   0.350 100.382  0.6130  1.2599 -1.4575
 7031TIP3   OH242583   1.537   0.262  24.831  0.2556 -0.2010  0.3777
 7031TIP3    H142584   1.541   0.304  24.744  0.3103  1.1230  0.9932
 7031TIP3    H242585   1.539   0.335  24.892 -0.0159 -1.1178  1.4996
 7032TIP3   OH242586   0.746   0.655  32.487  0.2778  0.4813  0.0371
 7032TIP3    H142587   0.829   0.617  32.517 -1.1169 -3.0542 -0.1380
 7032TIP3    H242588   0.737   0.735  32.538  3.3684  0.5995  0.6299
 7033TIP3   OH242589   1.989   0.897  80.905  0.0457  0.0329 -0.3161
 7033TIP3    H142590   1.997   0.824  80.966  0.2444  0.0506 -0.3246
 7033TIP3    H242591   1.913   0.874  80.851 -0.5172  0.3193  0.3463
 7034TIP3   OH242592   1.864   1.682 104.240  0.1378  0.4964 -0.8579
 7034TIP3    H142593   1.922   1.746 104.281 -0.4710 -0.6770  2.1832
 7034TIP3    H242594   1.789   1.733 104.208 -0.2592  1.4046  1.3321
 7035TIP3   OH242595   1.937   0.732  91.544  0.6015 -0.6070  0.0113
 7035TIP3    H142596   1.931   0.707  91.452  0.8785 -0.2377 -0.1101
 7035TIP3    H242597   1.928   0.827  91.544  3.6131 -0.2345  0.0428
 7036TIP3   OH242598   0.448   2.482  95.458  0.6619 -0.5542  0.0190
 7036TIP3    H142599   0.450   2.551  95.525 -1.5332  0.0794 -0.5161
 7036TIP3    H242600   0.460   2.401  95.507 -0.1364 -0.0447  1.0897
 7037TIP3   OH242601   2.477   2.061  93.367 -0.3748 -0.1284 -0.6091
 7037TIP3    H142602   2.418   2.131  93.394 -1.6585 -1.7449  1.0321
 7037TIP3    H242603   2.439   1.981  93.403  1.7970 -1.5225 -1.1504
 7038TIP3   OH242604   1.760   1.104  97.585  0.2880 -0.0045  0.2678
 7038TIP3    H142605   1.673   1.070  97.563 -0.7451  2.5052  0.1269
 7038TIP3    H242606   1.744   1.167  97.655  1.9773  0.6625  0.1054
 7039TIP3   OH242607   0.558   2.545  74.110  0.7873  0.4715  0.3053
 7039TIP3    H142608   0.537   2.456  74.138 -1.7311  0.9585  0.1896
 7039TIP3    H242609   0.603   2.534  74.026  0.3972 -0.6795  0.2283
 7040TIP3   OH242610   2.356   2.354  34.679 -0.0522 -0.8180  0.0318
 7040TIP3    H142611   2.428   2.313  34.726  1.0861  0.5363 -0.4426
 7040TIP3    H242612   2.286   2.361  34.743  0.6502 -1.0945  0.8486
 7041TIP3   OH242613   0.954   0.589  68.667  0.3956 -0.5801  0.3029
 7041TIP3    H142614   0.906   0.555  68.592 -0.5300 -1.2309  1.1631
 7041TIP3    H242615   0.907   0.668  68.692  3.9253  3.0821 -3.1944
 7042TIP3   OH242616   2.501   2.667  35.500  0.1357  0.6869  0.4636
 7042TIP3    H142617   2.528   2.667  35.408  0.7662  0.2076  0.6454
 7042TIP3    H242618   2.422   2.613  35.502  0.5692  0.0332  0.3218
 7043TIP3   OH242619   1.520   0.634  83.637  0.0424  0.2090 -0.2898
 7043TIP3    H142620   1.594   0.580  83.664 -0.8478 -0.5104  0.8299
 7043TIP3    H242621   1.465   0.639  83.715 -2.5301 -1.6912 -1.8191
 7044TIP3   OH242622   2.549   1.290  27.381 -0.3192 -0.3666  0.1661
 7044TIP3    H142623   2.612   1.361  27.375 -0.9313  0.0513 -2.4757
 7044TIP3    H242624   2.467   1.332  27.407 -0.4002 -0.2780 -0.2247
 7045TIP3   OH242625   1.844   1.725  96.300  0.2483 -0.4074 -0.5017
 7045TIP3    H142626   1.863   1.637  96.266 -0.1766 -1.0697  0.8710
 7045TIP3    H242627   1.806   1.772  96.227 -0.0124 -1.5506 -1.1234
 7046TIP3   OH242628   0.203   2.306  86.346  0.1724 -0.2200  0.0283
 7046TIP3    H142629   0.198   2.266  86.259  2.1738 -1.4844  0.4293
 7046TIP3    H242630   0.261   2.381  86.335 -2.2529  1.7495 -0.3648
 7047TIP3   OH242631   1.195   0.497  93.668 -0.1230 -0.4605  0.4554
 7047TIP3    H142632   1.118   0.539  93.706  0.4907  2.5077 -1.2429
 7047TIP3    H242633   1.161   0.444  93.596 -0.7641 -1.4510  1.4617
 7048TIP3   OH242634   2.445   0.924   0.151  0.6285 -0.0842 -0.3296
 7048TIP3    H142635   2.395   0.986   0.204  0.4930 -1.2362  0.9346
 7048TIP3    H242636   2.529   0.915   0.197  1.2521  0.2900 -1.3408
 7049TIP3   OH242637   2.037   1.950  98.730 -0.4037  0.4577 -0.3420
 7049TIP3    H142638   2.052   2.019  98.665  1.3670  0.9559  0.5360
 7049TIP3    H242639   2.015   1.997  98.811  0.2090 -0.0234  0.1152
 7050TIP3   OH242640   2.209   0.939  80.700  0.3832 -0.3928  0.4215
 7050TIP3    H142641   2.278   0.953  80.766  0.3144  2.0505  0.0860
 7050TIP3    H242642   2.130   0.923  80.752  0.9694 -2.1963  0.8255
 7051TIP3   OH242643   2.043   0.295  98.277 -0.1164 -0.3499 -0.3816
 7051TIP3    H142644   2.025   0.280  98.184 -1.7655 -1.2323  0.0477
 7051TIP3    H242645   2.040   0.208  98.316 -2.2254  0.2586  0.9401
 7052TIP3   OH242646   0.438   2.172  25.450 -0.4848 -0.1467  0.6783
 7052TIP3    H142647   0.346   2.157  25.428 -0.6209 -0.2040  1.2660
 7052TIP3    H242648   0.469   2.086  25.480  0.0525 -0.3864 -0.5059
 7053TIP3   OH242649   0.684   0.698  94.069 -0.4786  0.0067 -0.2183
 7053TIP3    H142650   0.627   0.669  94.141  0.3178  1.0259  0.8633
 7053TIP3    H242651   0.739   0.622  94.050 -0.9947 -0.4154 -0.0596
 7054TIP3   OH242652   2.244   0.270  75.253 -0.1014 -0.1692  0.0989
 7054TIP3    H142653   2.262   0.364  75.244  3.0566 -0.6835 -0.0916
 7054TIP3    H242654   2.163   0.266  75.303 -1.3359  2.6288 -1.4435
 7055TIP3   OH242655   1.971   0.915   7.712  0.6526  0.2639  0.3034
 7055TIP3    H142656   2.050   0.872   7.677 -0.2442 -1.7682  0.6369
 7055TIP3    H242657   1.957   0.873   7.797 -0.8514  0.5285  0.2018
 7056TIP3   OH242658   2.254   1.214  30.332 -0.0429 -0.7335 -0.1056
 7056TIP3    H142659   2.345   1.194  30.311  0.0770  1.7167 -2.4323
 7056TIP3    H242660   2.256   1.245  30.423  1.5270 -0.1999 -0.3020
 7057TIP3   OH242661   1.967   0.944   9.402 -0.3813 -0.0157 -0.2425
 7057TIP3    H142662   1.894   0.883   9.416 -0.6627  0.4455  0.3372
 7057TIP3    H242663   2.045   0.890   9.414 -0.6263 -0.3633 -0.1813
 7058TIP3   OH242664   2.274   2.473  86.364  0.0303  0.1039 -0.0154
 7058TIP3    H142665   2.311   2.541  86.308 -0.5118 -0.4842 -1.1081
 7058TIP3    H242666   2.340   2.460  86.433  0.5528  1.0677 -0.3210
 7059TIP3   OH242667   1.424   0.614  80.005  0.1257  0.2880 -0.3788
 7059TIP3    H142668   1.490   0.565  80.054 -0.6221  0.0774  0.4241
 7059TIP3    H242669   1.346   0.560  80.008 -1.0869  2.0166  1.5579
 7060TIP3   OH242670   0.383   1.338  93.239  0.5949  0.0829 -0.0390
 7060TIP3    H142671   0.317   1.352  93.306  1.3581  1.8824  0.3840
 7060TIP3    H242672   0.348   1.381  93.161  1.2452  1.0572  0.1939
 7061TIP3   OH242673   0.698   2.384  28.219 -0.0369  0.4369 -0.0462
 7061TIP3    H142674   0.778   2.336  28.241 -0.5911 -1.0600 -1.1344
 7061TIP3    H242675   0.643   2.377  28.296  0.5415  0.7683  0.4047
 7062TIP3   OH242676   0.422   0.093  82.722  0.1593  0.0975 -0.2598
 7062TIP3    H142677   0.502   0.141  82.699  0.7642 -0.0244  1.4442
 7062TIP3    H242678   0.384   0.144  82.794 -0.7750 -0.3831 -0.4097
 7063TIP3   OH242679   0.548   1.974  14.787  0.1670 -0.3658  0.0522
 7063TIP3    H142680   0.528   1.907  14.853 -0.1217 -0.1048  0.2327
 7063TIP3    H242681   0.621   1.937  14.738 -0.2290 -0.9789 -0.0940
 7064TIP3   OH242682   0.443   1.627   6.638 -0.2536 -0.2912 -0.3364
 7064TIP3    H142683   0.360   1.650   6.595  0.0275 -0.8073 -1.1684
 7064TIP3    H242684   0.450   1.532   6.629  0.8566 -0.1605 -1.0688
 7065TIP3   OH242685   0.193   0.380  19.054 -0.1437 -0.0401 -0.0537
 7065TIP3    H142686   0.199   0.427  19.138  0.0307 -1.0448  0.5101
 7065TIP3    H242687   0.101   0.386  19.030 -0.0326  1.0202 -0.2448
 7066TIP3   OH242688   0.325   1.275 107.452 -0.0924 -0.4610  0.3565
 7066TIP3    H142689   0.336   1.354 107.400 -0.2998 -0.4005  0.4069
 7066TIP3    H242690   0.234   1.277 107.481  0.5007  0.5091  2.3485
 7067TIP3   OH242691   2.670   1.525  89.586 -0.0723  0.3613  0.1663
 7067TIP3    H142692   2.719   1.557  89.511  0.6428 -0.4009  0.2897
 7067TIP3    H242693   2.707   1.570  89.661 -0.2057  0.4893  0.1564
 7068TIP3   OH242694   1.249   0.448  17.540 -0.3869  0.0900 -0.0385
 7068TIP3    H142695   1.216   0.496  17.464  0.9329 -0.6029 -1.0857
 7068TIP3    H242696   1.331   0.491  17.562  0.0514 -0.7235 -0.0372
 7069TIP3   OH242697   2.094   1.488  98.492  0.1257  0.2407 -0.5509
 7069TIP3    H142698   2.048   1.500  98.409  1.6053  1.1302 -1.2801
 7069TIP3    H242699   2.091   1.573  98.534  0.7431  0.2098 -0.4338
 7070TIP3   OH242700   1.256   0.981  82.560 -0.1594  0.2506 -0.1652
 7070TIP3    H142701   1.334   1.033  82.577 -1.5418  2.6099 -0.5521
 7070TIP3    H242702   1.232   0.946  82.646  0.6843  0.4422  0.1672
 7071TIP3   OH242703   2.541   0.427   8.619 -0.1513  0.0311 -0.4510
 7071TIP3    H142704   2.513   0.509   8.579  0.6627  0.8264  0.5519
 7071TIP3    H242705   2.527   0.440   8.713 -2.4325 -1.9480 -0.4195
 7072TIP3   OH242706   0.486   2.343   0.078 -0.4577 -0.1378 -0.1117
 7072TIP3    H142707   0.534   2.269   0.116  1.5921  1.3375  0.3675
 7072TIP3    H242708   0.440   2.305   0.004 -0.6749 -2.1686  0.9818
 7073TIP3   OH242709   1.964   1.832  94.324 -0.5205 -0.3068 -0.1239
 7073TIP3    H142710   1.977   1.872  94.238 -0.7077  0.5935  0.2526
 7073TIP3    H242711   1.988   1.741  94.312  0.0271 -0.0617 -0.9828
 7074TIP3   OH242712   1.427   2.471  80.262 -0.2739 -0.6276  0.6487
 7074TIP3    H142713   1.437   2.438  80.351  0.6093  0.0427  0.7995
 7074TIP3    H242714   1.456   2.399  80.206  2.0090 -0.0275  0.9885
 7075TIP3   OH242715   0.325   0.629   7.809 -0.1684 -0.0211  0.5588
 7075TIP3    H142716   0.393   0.684   7.769  0.7483 -0.6462  1.2099
 7075TIP3    H242717   0.374   0.564   7.859 -1.1684 -1.9186 -0.7760
 7076TIP3   OH242718   2.536   1.594  99.001 -0.4234 -0.0517 -0.4390
 7076TIP3    H142719   2.612   1.540  98.981 -0.8997 -0.0856 -2.3643
 7076TIP3    H242720   2.465   1.530  99.016 -0.3841  0.0091  0.0307
 7077TIP3   OH242721   2.550   0.481   0.157 -0.5770  0.0636  0.3556
 7077TIP3    H142722   2.548   0.390   0.127 -0.5801 -0.4639  1.8731
 7077TIP3    H242723   2.637   0.512   0.131 -0.8235 -0.1575 -0.7596
 7078TIP3   OH242724   1.427   1.866 102.195  0.0320 -0.8759  0.3668
 7078TIP3    H142725   1.413   1.776 102.224  1.2652 -1.1465  0.1918
 7078TIP3    H242726   1.412   1.863 102.100 -1.1396 -0.6188  0.5321
 7079TIP3   OH242727   1.441   2.363  81.417  0.2679 -0.0116 -0.0573
 7079TIP3    H142728   1.461   2.453  81.389  1.2389 -0.1872  0.0520
 7079TIP3    H242729   1.431   2.315  81.335 -0.6212  0.2548 -0.1177
 7080TIP3   OH242730   1.822   0.885 111.850 -0.0610 -0.1686 -0.3806
 7080TIP3    H142731   1.882   0.950 111.886 -0.2990  0.8419 -1.7018
 7080TIP3    H242732   1.876   0.807 111.837  0.2128 -0.2823  1.3034
 7081TIP3   OH242733   0.113   0.212  73.565 -0.1678  0.6020  0.0729
 7081TIP3    H142734   0.045   0.273  73.593  0.6226  1.5972 -0.1194
 7081TIP3    H242735   0.120   0.226  73.470 -1.4128 -1.2863 -0.3549
 7082TIP3   OH242736   1.780   0.382  94.672 -0.4770  0.0298  0.0392
 7082TIP3    H142737   1.723   0.447  94.631 -1.1403 -1.3565 -1.3349
 7082TIP3    H242738   1.845   0.434  94.719 -2.4113  1.6683  1.0760
 7083TIP3   OH242739   1.748   1.076 104.579 -0.5422 -0.5234  0.8038
 7083TIP3    H142740   1.772   0.998 104.630 -0.0493 -1.5073 -0.8317
 7083TIP3    H242741   1.696   1.042 104.506  0.4283  0.5522 -0.4447
 7084TIP3   OH242742   1.915   1.276  94.949 -0.0212 -0.2017  0.3227
 7084TIP3    H142743   2.010   1.287  94.941 -0.0260  0.7687  1.3206
 7084TIP3    H242744   1.897   1.292  95.042 -1.2201  0.0193  0.0641
 7085TIP3   OH242745   1.536   2.252 106.789  0.3093 -0.0315  0.5086
 7085TIP3    H142746   1.554   2.215 106.702  2.1399  0.5303  0.6148
 7085TIP3    H242747   1.446   2.226 106.808 -0.1649 -0.0991 -1.5893
 7086TIP3   OH242748   0.890   1.543 101.466  0.1027  0.1793 -0.2678
 7086TIP3    H142749   0.878   1.621 101.411  0.6925 -0.6627 -1.6626
 7086TIP3    H242750   0.880   1.574 101.555 -3.0152  1.2478 -0.8701
 7087TIP3   OH242751   2.112   2.017   8.883 -0.0900  0.1012 -0.2271
 7087TIP3    H142752   2.185   1.991   8.938 -0.8904  0.4470  1.0397
 7087TIP3    H242753   2.064   1.936   8.867 -0.6425  0.2087  0.7970
 7088TIP3   OH242754   0.805   0.824  36.688 -0.0559 -0.2416  0.2084
 7088TIP3    H142755   0.880   0.794  36.738 -1.1729 -1.6138  1.1351
 7088TIP3    H242756   0.773   0.900  36.737  0.5347  0.1752 -0.0373
 7089TIP3   OH242757   0.150   0.400  15.179  0.0459 -0.4953  0.3577
 7089TIP3    H142758   0.085   0.470  15.182  0.7989  0.2229  0.1699
 7089TIP3    H242759   0.234   0.445  15.167  0.4564 -1.4737 -0.5745
 7090TIP3   OH242760   1.182   2.224  35.472  0.0365  0.5319  0.1589
 7090TIP3    H142761   1.255   2.232  35.534 -1.7440 -1.5371  2.7768
 7090TIP3    H242762   1.171   2.312  35.436  1.8305  1.6159  2.0302
 7091TIP3   OH242763   2.190   0.128  75.641 -0.6920  0.2585 -0.4321
 7091TIP3    H142764   2.240   0.047  75.635  0.3032  0.8877 -0.7826
 7091TIP3    H242765   2.192   0.164  75.552  0.8562  1.8094  0.1783
 7092TIP3   OH242766   0.682   1.746  35.210 -0.2378 -0.1487  0.6391
 7092TIP3    H142767   0.744   1.810  35.244  1.0076 -0.9050 -0.1253
 7092TIP3    H242768   0.640   1.709  35.288 -1.4519  1.9873  1.0657
 7093TIP3   OH242769   2.435   1.822  25.710 -0.1765 -0.0555 -0.4470
 7093TIP3    H142770   2.455   1.763  25.783 -1.6511  1.1896  1.0746
 7093TIP3    H242771   2.501   1.891  25.716  0.2825 -0.4551 -0.9000
 7094TIP3   OH242772   0.874   0.746  81.165  0.1248  0.2617  0.6943
 7094TIP3    H142773   0.944   0.799  81.202  0.9909  0.4103 -1.0378
 7094TIP3    H242774   0.800   0.807  81.156  0.2647  0.4971  1.1030
 7095TIP3   OH242775   0.710   0.935  80.286  0.8354 -0.1569 -0.1623
 7095TIP3    H142776   0.753   1.010  80.326  0.7338 -0.4274  0.4774
 7095TIP3    H242777   0.728   0.943  80.193  0.9463  0.5778 -0.0793
 7096TIP3   OH242778   0.079   0.016 100.996  0.1888 -0.0802  0.1556
 7096TIP3    H142779   0.027   0.019 101.076 -0.5439  1.1471 -0.3446
 7096TIP3    H242780   0.032   0.073 100.934  0.4740 -1.3627 -1.3126
 7097TIP3   OH242781   0.019   0.378 105.593 -0.0655 -0.4488  0.1530
 7097TIP3    H142782  -0.028   0.365 105.675 -0.1958  0.8079  0.2923
 7097TIP3    H242783  -0.027   0.450 105.550  1.4467  0.5198  0.0780
 7098TIP3   OH242784   0.890   2.678  12.741 -0.1122  0.0934 -0.5455
 7098TIP3    H142785   0.911   2.753  12.684  0.5127  1.4551  1.3781
 7098TIP3    H242786   0.973   2.659  12.786 -0.6455 -0.7870  0.0815
 7099TIP3   OH242787   1.392   1.918  91.273  0.1759 -0.7490  0.2020
 7099TIP3    H142788   1.380   1.909  91.367  1.1506  0.1207  0.4149
 7099TIP3    H242789   1.485   1.902  91.258  0.2687  0.2916 -0.4586
 7100TIP3   OH242790   0.934   2.501  83.497 -0.7111  0.2976 -0.0300
 7100TIP3    H142791   0.838   2.499  83.503 -0.6927  0.7028  0.5116
 7100TIP3    H242792   0.956   2.594  83.490 -0.3922  0.1630 -0.9039
 7101TIP3   OH242793   1.017   1.604 104.702 -1.3102  0.2743  0.2215
 7101TIP3    H142794   1.108   1.624 104.681 -1.0406  0.4297  1.4562
 7101TIP3    H242795   0.984   1.684 104.744 -1.8582  0.0302  0.2662
 7102TIP3   OH242796   2.593   0.167  36.707  0.5962 -0.4040 -0.3532
 7102TIP3    H142797   2.563   0.143  36.620  0.5270 -2.3273  0.1352
 7102TIP3    H242798   2.513   0.189  36.756  0.6033  0.3471 -0.6738
 7103TIP3   OH242799   2.395   1.857  30.973 -0.4311 -0.0962 -0.6192
 7103TIP3    H142800   2.420   1.945  30.947 -0.4689 -0.0620 -0.5386
 7103TIP3    H242801   2.299   1.858  30.974 -0.4276  0.0523  0.0262
 7104TIP3   OH242802   0.890   1.998  17.774  0.1114  0.2363 -0.4642
 7104TIP3    H142803   0.886   2.057  17.849  0.5314  0.3799 -0.5534
 7104TIP3    H242804   0.957   1.934  17.796 -1.2053 -0.9940  0.1771
 7105TIP3   OH242805   0.586   0.061   0.593  0.1766 -0.2294 -0.8452
 7105TIP3    H142806   0.663   0.063   0.650 -1.2475  0.9681  1.1561
 7105TIP3    H242807   0.569  -0.032   0.579  0.5515 -0.5555  0.7345
 7106TIP3   OH242808   0.235   1.049  76.391  0.1867  0.8915 -0.6066
 7106TIP3    H142809   0.330   1.045  76.404 -0.1497  0.0598  2.2887
 7106TIP3    H242810   0.204   0.962  76.416 -1.3819  1.2868 -1.0982
 7107TIP3   OH242811   0.285   1.103   9.314 -0.3334 -0.7545  0.6696
 7107TIP3    H142812   0.241   1.019   9.314 -1.2302 -0.2948  0.5112
 7107TIP3    H242813   0.339   1.102   9.394  0.6114 -1.9393  0.0453
 7108TIP3   OH242814   0.566   0.849  14.533  0.5556 -0.3343  0.0378
 7108TIP3    H142815   0.525   0.863  14.619  0.9030 -1.3721  0.4009
 7108TIP3    H242816   0.525   0.768  14.501  0.8729 -0.2859 -0.4953
 7109TIP3   OH242817   0.776   0.560  16.901  0.2591  0.0289 -0.6395
 7109TIP3    H142818   0.723   0.640  16.898  0.9605  0.6131  0.9845
 7109TIP3    H242819   0.865   0.591  16.915  0.9048 -0.9872 -2.2215
 7110TIP3   OH242820   1.643   1.855  96.442  0.1682  0.6698 -0.2756
 7110TIP3    H142821   1.724   1.836  96.396  0.8241  1.8031  0.3471
 7110TIP3    H242822   1.581   1.881  96.374 -0.0852 -1.4013 -0.8864
 7111TIP3   OH242823   2.302   0.884  10.614  0.6170 -0.1626 -0.0366
 7111TIP3    H142824   2.337   0.875  10.526  1.3338  2.4236 -0.1076
 7111TIP3    H242825   2.374   0.920  10.665 -0.7249  1.5332  0.7815
 7112TIP3   OH242826   0.826   1.045  16.691  0.2550 -0.1880  0.2439
 7112TIP3    H142827   0.857   1.113  16.751  2.5715  1.0850 -2.1715
 7112TIP3    H242828   0.752   1.084  16.645  1.4609  0.7562 -1.0010
 7113TIP3   OH242829   2.117   2.465  76.841  0.2135 -0.1606  0.1020
 7113TIP3    H142830   2.123   2.380  76.885 -0.8526  0.1844  0.9381
 7113TIP3    H242831   2.199   2.471  76.792 -0.2991 -2.3211 -1.1786
 7114TIP3   OH242832   0.392   1.336 107.869  0.5676 -0.0069  0.4470
 7114TIP3    H142833   0.318   1.383 107.831  0.7966  1.1539  1.3900
 7114TIP3    H242834   0.373   1.333 107.963  1.8397  0.6083  0.7541
 7115TIP3   OH242835   0.864   1.612 109.896 -0.2133 -0.0214 -0.4958
 7115TIP3    H142836   0.836   1.521 109.895  0.4006 -0.2062 -1.3444
 7115TIP3    H242837   0.871   1.634 109.989 -0.2735 -0.8551 -0.2896
 7116TIP3   OH242838   2.523   1.529 109.413 -0.1599  0.0395  0.2463
 7116TIP3    H142839   2.526   1.436 109.437  1.9351  0.1825  0.6716
 7116TIP3    H242840   2.575   1.573 109.480  0.1963  1.3353 -0.8389
 7117TIP3   OH242841   2.460   2.425  22.296  0.5549  0.2736 -0.1119
 7117TIP3    H142842   2.548   2.414  22.334  0.5020  0.3920  0.0473
 7117TIP3    H242843   2.460   2.369  22.219  0.6271 -0.0597  0.1298
 7118TIP3   OH242844   0.944   1.119  79.099 -0.7048  0.6140 -0.0819
 7118TIP3    H142845   0.893   1.054  79.051 -1.6235 -1.6612  3.5489
 7118TIP3    H242846   0.889   1.197  79.101 -0.5619  0.8646 -2.6526
 7119TIP3   OH242847   0.741   0.697 104.906  0.9923  0.1679  0.3508
 7119TIP3    H142848   0.787   0.665 104.983  0.0043  0.5299  1.1167
 7119TIP3    H242849   0.653   0.660 104.914  1.2390 -0.9052 -1.3125
 7120TIP3   OH242850   0.312   0.137  30.610  0.2346 -0.3807  0.0309
 7120TIP3    H142851   0.295   0.154  30.702 -1.8005 -0.7341 -0.2344
 7120TIP3    H242852   0.310   0.223  30.569 -0.9778 -0.3888  0.0329
 7121TIP3   OH242853   2.323   0.246   3.020 -0.2053 -0.0528 -0.4016
 7121TIP3    H142854   2.372   0.276   3.097 -0.5767  1.3052 -0.6762
 7121TIP3    H242855   2.379   0.268   2.946 -0.4880 -0.0486 -0.6138
 7122TIP3   OH242856   0.427   2.453  67.885 -0.1975 -0.0755 -0.0918
 7122TIP3    H142857   0.451   2.544  67.872  2.2938 -0.7655 -0.7778
 7122TIP3    H242858   0.492   2.403  67.835 -0.3512 -2.2911  1.7655
 7123TIP3   OH242859   0.320   2.520  78.219 -0.5086  0.3223  0.5454
 7123TIP3    H142860   0.268   2.544  78.143  1.5680 -3.0392 -2.1808
 7123TIP3    H242861   0.395   2.580  78.217  0.5223 -0.9235 -1.3671
 7124TIP3   OH242862   1.432   2.415 110.791  0.3675 -0.3696  0.0117
 7124TIP3    H142863   1.380   2.338 110.815 -2.2788  1.1743 -0.4349
 7124TIP3    H242864   1.511   2.379 110.750 -0.7038 -2.8313 -0.0471
 7125TIP3   OH242865   0.875   1.681  99.583 -0.4625  0.0529  0.0067
 7125TIP3    H142866   0.796   1.734  99.572 -0.6662  0.1901  1.9295
 7125TIP3    H242867   0.941   1.726  99.530 -1.1912  0.9793 -0.1390
 7126TIP3   OH242868   0.366   0.733 107.390  0.1122  0.5369 -0.2168
 7126TIP3    H142869   0.334   0.821 107.409 -0.3935  0.3967 -0.3914
 7126TIP3    H242870   0.293   0.691 107.344 -0.4827 -0.6555  1.6829
 7127TIP3   OH242871   2.015   2.450 108.757 -0.4698  0.0801 -0.1331
 7127TIP3    H142872   2.078   2.445 108.829 -0.7286 -0.6177  0.0491
 7127TIP3    H242873   1.951   2.515 108.787 -0.1682  0.3504 -0.0608
 7128TIP3   OH242874   1.289   0.886  72.941 -0.1998 -1.1027  0.4806
 7128TIP3    H142875   1.273   0.807  72.889  1.8875 -1.0401 -0.3422
 7128TIP3    H242876   1.315   0.952  72.878  1.8098 -0.8544  1.4778
 7129TIP3   OH242877   2.440   1.464  96.730  0.7047  0.0230 -0.6622
 7129TIP3    H142878   2.514   1.461  96.791  0.3425 -1.6138 -0.2544
 7129TIP3    H242879   2.431   1.374  96.699 -1.0905  0.1857 -0.7301
 7130TIP3   OH242880   0.610   1.106  37.147 -0.0000  0.1944  0.1240
 7130TIP3    H142881   0.542   1.173  37.156  0.0668  0.1697  0.8773
 7130TIP3    H242882   0.572   1.028  37.187 -0.2505 -0.3661 -1.1396
 7131TIP3   OH242883   0.933   0.823  33.339  0.8882 -0.5298 -0.2711
 7131TIP3    H142884   0.878   0.797  33.413  1.3146  1.5701  0.8923
 7131TIP3    H242885   1.011   0.768  33.347  0.1387 -1.6329 -0.3074
 7132TIP3   OH242886   1.881   0.104  26.589  0.3097  0.0372  0.2235
 7132TIP3    H142887   1.841   0.184  26.553  0.2631 -0.2967 -0.4739
 7132TIP3    H242888   1.820   0.076  26.658 -0.0369  0.2134 -0.0094
 7133TIP3   OH242889   1.041   1.415  77.130  0.1939 -0.1723 -0.1348
 7133TIP3    H142890   1.095   1.392  77.205  0.3862 -1.0326 -0.5250
 7133TIP3    H242891   1.046   1.511  77.125 -0.2285 -0.0540  1.2377
 7134TIP3   OH242892   0.290   0.250  84.900 -0.3524  0.2913  0.1964
 7134TIP3    H142893   0.221   0.198  84.942  0.3186 -0.7456  0.0415
 7134TIP3    H242894   0.370   0.201  84.916 -0.0233 -0.0713 -2.0972
 7135TIP3   OH242895   1.709   2.149  86.714  1.2166  0.3727 -0.2147
 7135TIP3    H142896   1.717   2.074  86.773  1.8147  1.2495  0.8692
 7135TIP3    H242897   1.694   2.111  86.628 -0.4509 -0.9412  0.6040
 7136TIP3   OH242898   1.690   2.201  26.140 -0.5308 -0.1948 -0.2851
 7136TIP3    H142899   1.597   2.201  26.117 -0.3456 -2.6149 -1.3255
 7136TIP3    H242900   1.735   2.207  26.056  0.2895  0.9587  0.2140
 7137TIP3   OH242901   2.509   0.170 103.749 -0.0372 -0.7731  0.3016
 7137TIP3    H142902   2.552   0.144 103.831 -0.2685 -1.2886  0.2563
 7137TIP3    H242903   2.421   0.133 103.755 -0.7452  0.8762  0.7140
 7138TIP3   OH242904   0.245   0.411  18.123  0.0016 -0.2539  0.6202
 7138TIP3    H142905   0.154   0.382  18.115  0.5710 -1.9736  0.0313
 7138TIP3    H242906   0.297   0.339  18.088  1.5711  1.0731  0.0670
 7139TIP3   OH242907   0.223   1.495  88.925  0.1875 -0.2029 -0.1690
 7139TIP3    H142908   0.236   1.589  88.929  1.6339 -0.3944  0.2768
 7139TIP3    H242909   0.131   1.484  88.903 -0.2048  1.2975  0.6286
 7140TIP3   OH242910   1.063   1.383  95.242 -0.4573  0.1950 -0.7092
 7140TIP3    H142911   1.090   1.413  95.155  0.0158 -1.2969 -1.1093
 7140TIP3    H242912   1.119   1.307  95.260 -1.4967 -0.3661  0.3017
 7141TIP3   OH242913   0.426   0.489  74.313 -0.6901 -0.6985 -0.3268
 7141TIP3    H142914   0.518   0.513  74.307 -0.8882  0.0174 -0.6825
 7141TIP3    H242915   0.418   0.444  74.397 -0.2079  0.1771  0.2055
 7142TIP3   OH242916   2.092   1.442 102.323  0.0452 -0.5769  0.3924
 7142TIP3    H142917   2.110   1.515 102.382 -0.1769 -0.4487  0.2994
 7142TIP3    H242918   2.002   1.455 102.294  0.3200 -0.3525 -0.3817
 7143TIP3   OH242919   2.527   0.667  17.914  0.3832 -0.5062  0.1512
 7143TIP3    H142920   2.596   0.655  17.849 -1.6406 -2.8757 -1.7855
 7143TIP3    H242921   2.477   0.742  17.883 -0.1745 -1.2099 -0.6962
 7144TIP3   OH242922   0.385   1.667  80.329  0.1948 -0.8018 -0.3902
 7144TIP3    H142923   0.430   1.596  80.375  0.9502 -0.3958 -0.4712
 7144TIP3    H242924   0.368   1.733  80.396 -1.0332 -1.2956 -0.2013
 7145TIP3   OH242925   1.165   0.353  23.133  0.9178 -0.1800  0.4969
 7145TIP3    H142926   1.124   0.280  23.180  2.3573 -1.0927  0.4071
 7145TIP3    H242927   1.096   0.387  23.076  0.1029 -1.2228  0.8336
 7146TIP3   OH242928   0.420   2.539  99.445 -0.3140 -0.0172 -0.0309
 7146TIP3    H142929   0.475   2.518  99.521  0.1018  1.3375  0.0677
 7146TIP3    H242930   0.335   2.499  99.465  0.3894 -1.4854  0.1604
 7147TIP3   OH242931   2.116   0.141   7.511 -0.2473  0.3862 -0.1082
 7147TIP3    H142932   2.084   0.154   7.601 -2.0693  0.5473 -0.7401
 7147TIP3    H242933   2.211   0.141   7.520 -0.3039 -2.0887  2.2061
 7148TIP3   OH242934   1.868   1.279  94.082 -0.1593  0.1242 -0.3687
 7148TIP3    H142935   1.815   1.304  94.157 -0.8623 -0.6070 -0.6103
 7148TIP3    H242936   1.958   1.284  94.114 -0.3805  1.0000  0.1554
 7149TIP3   OH242937   1.919   1.019  84.788 -0.4030  0.0809  0.0133
 7149TIP3    H142938   1.987   1.058  84.734  1.3788 -1.1782  1.2506
 7149TIP3    H242939   1.902   0.934  84.748  0.8138 -0.7915  1.2480
 7150TIP3   OH242940   0.935   0.060   6.269 -0.2163 -0.1858  0.6571
 7150TIP3    H142941   0.942  -0.002   6.196 -0.2374  0.0213  0.4798
 7150TIP3    H242942   0.997   0.130   6.247 -0.4343  0.0200  0.6989
 7151TIP3   OH242943   1.432   2.111  29.605  0.2821  0.2370 -0.2338
 7151TIP3    H142944   1.464   2.070  29.525 -1.9589  0.7488 -1.4702
 7151TIP3    H242945   1.367   2.050  29.640 -0.3570  1.0119 -0.0376
 7152TIP3   OH242946   2.358   2.364  16.308 -0.0624  0.3165 -0.3507
 7152TIP3    H142947   2.453   2.367  16.294 -0.1553  1.9452 -0.8556
 7152TIP3    H242948   2.345   2.406  16.393 -0.2941 -0.4808  0.0168
 7153TIP3   OH242949   2.480   0.913 111.065  0.3527 -0.0701 -0.0192
 7153TIP3    H142950   2.480   0.875 111.153 -1.0099 -1.5755 -0.6185
 7153TIP3    H242951   2.573   0.927 111.045  0.6668  0.7182  1.8006
 7154TIP3   OH242952   1.486   1.452  27.636 -0.0809  0.4236 -0.1269
 7154TIP3    H142953   1.511   1.363  27.611 -1.4783  0.1033 -0.4686
 7154TIP3    H242954   1.508   1.457  27.729  1.8576  0.4239 -0.5330
 7155TIP3   OH242955   0.713   1.278  19.335 -0.1018  0.3748 -0.4297
 7155TIP3    H142956   0.719   1.208  19.400  0.3967  0.2753 -0.5747
 7155TIP3    H242957   0.631   1.260  19.288  0.0350 -0.1315 -0.4812
 7156TIP3   OH242958   1.899   0.946  92.822  0.3413  0.4308  0.9062
 7156TIP3    H142959   1.979   0.995  92.800  0.7413 -0.0948  1.1556
 7156TIP3    H242960   1.927   0.854  92.822 -0.7695  0.0181 -1.2148
 7157TIP3   OH242961   0.208   1.809  13.522 -0.0389  0.9427  0.4070
 7157TIP3    H142962   0.121   1.770  13.513  0.2409  0.0750  1.2636
 7157TIP3    H242963   0.229   1.843  13.435  0.6553 -2.9211 -1.1486
 7158TIP3   OH242964   1.924   1.535  17.301 -0.5631  0.0221  0.1259
 7158TIP3    H142965   1.916   1.628  17.322 -0.7533  0.0575 -0.1017
 7158TIP3    H242966   1.909   1.490  17.384 -0.9089  0.1765  0.1482
 7159TIP3   OH242967   0.921   0.236  88.155 -0.1308  0.4118 -0.1431
 7159TIP3    H142968   0.878   0.187  88.226  1.8957 -0.3717  0.6284
 7159TIP3    H242969   1.011   0.202  88.154 -0.2249 -0.1264 -3.5677
 7160TIP3   OH242970   1.946   0.864  34.320 -0.5067  0.3394 -0.0580
 7160TIP3    H142971   2.038   0.856  34.293 -0.5433 -1.4881  0.2576
 7160TIP3    H242972   1.950   0.916  34.400  0.3781 -0.6495  0.5663
 7161TIP3   OH242973   2.240   1.346 101.315 -0.3099  0.0151 -0.3239
 7161TIP3    H142974   2.185   1.407 101.264  0.5493  1.2836  0.2207
 7161TIP3    H242975   2.200   1.346 101.402  0.8761  1.4627  0.2700
 7162TIP3   OH242976   1.138   2.526  95.563  0.7841  0.4816  0.3366
 7162TIP3    H142977   1.176   2.607  95.531  2.2279  0.1617  1.1618
 7162TIP3    H242978   1.205   2.459  95.547 -0.2235 -0.4862  0.0129
 7163TIP3   OH242979   1.060   0.247  80.784 -0.1244  0.2027 -0.0702
 7163TIP3    H142980   1.121   0.193  80.733 -0.1733  0.2199 -0.1457
 7163TIP3    H242981   1.114   0.284  80.854  0.1971  1.0592 -0.7400
 7164TIP3   OH242982   2.659   2.306  99.684 -0.4778 -0.0118  0.0517
 7164TIP3    H142983   2.734   2.283  99.739 -0.2635  0.1789 -0.1591
 7164TIP3    H242984   2.683   2.275  99.596 -0.2074  0.9519 -0.2244
 7165TIP3   OH242985   2.469   0.117  24.274  0.3930  0.3600  0.3913
 7165TIP3    H142986   2.388   0.103  24.226  0.6994  1.2399 -0.4029
 7165TIP3    H242987   2.530   0.052  24.237 -0.0055 -0.4915  1.1833
 7166TIP3   OH242988   2.272   0.664  96.310  0.1104 -0.1512 -0.4549
 7166TIP3    H142989   2.350   0.675  96.364 -0.4781  1.1009  0.1667
 7166TIP3    H242990   2.287   0.720  96.234  0.8904 -1.8263 -1.6164
 7167TIP3   OH242991   1.923   0.872   1.765  0.0821 -0.4964  0.6929
 7167TIP3    H142992   1.868   0.939   1.724 -0.7343 -1.8615 -0.5146
 7167TIP3    H242993   1.974   0.920   1.831  0.1932  1.4792 -0.7498
 7168TIP3   OH242994   0.561   2.614  85.646  0.0118  0.1872 -0.1137
 7168TIP3    H142995   0.611   2.540  85.611 -0.3720 -0.6451  1.0388
 7168TIP3    H242996   0.491   2.574  85.697 -0.9048  1.3535 -0.4106
 7169TIP3   OH242997   1.734   1.083  22.043 -0.0580  0.1203 -0.1261
 7169TIP3    H142998   1.764   1.165  22.081 -1.6118  0.5237  0.3108
 7169TIP3    H242999   1.778   1.015  22.093 -0.1299  0.6714  0.6964
 7170TIP3   OH243000   1.018   1.362  34.798 -0.0664 -0.0002 -0.3330
 7170TIP3    H143001   1.067   1.436  34.835  0.4254 -0.6821  0.4070
 7170TIP3    H243002   0.988   1.312  34.875  0.1667 -0.9318 -0.8374
 7171TIP3   OH243003   0.281   1.345  86.855  0.7794  0.2450 -0.6381
 7171TIP3    H143004   0.313   1.255  86.858  0.0447 -0.1133 -2.3617
 7171TIP3    H243005   0.189   1.336  86.828  0.6861  1.5008 -0.7641
 7172TIP3   OH243006   2.198   1.000  94.011 -0.3042 -0.6859  0.0826
 7172TIP3    H143007   2.226   0.910  94.030 -1.6614 -1.0684  0.3665
 7172TIP3    H243008   2.103   0.995  94.004 -0.6090  1.0878  2.0740
 7173TIP3   OH243009   0.988   0.271  84.524  0.0302  0.1797 -0.1440
 7173TIP3    H143010   1.044   0.254  84.449 -0.6666 -0.1263 -0.5986
 7173TIP3    H243011   0.991   0.366  84.535  0.1616  0.2209 -0.5255
 7174TIP3   OH243012   1.166   1.952  10.975  0.1940  0.3893  0.3087
 7174TIP3    H143013   1.138   2.032  11.019  1.1153 -0.1513  2.0016
 7174TIP3    H243014   1.105   1.885  11.007  0.4962  0.1046  0.2960
 7175TIP3   OH243015   1.726   1.982   0.466 -0.7872 -0.1925 -0.5591
 7175TIP3    H143016   1.756   1.900   0.504  2.3087  0.4040 -1.4992
 7175TIP3    H243017   1.696   1.958   0.378  0.8235 -0.2616 -1.1177
 7176TIP3   OH243018   1.581   0.839 103.871 -0.7186 -0.3654  0.4405
 7176TIP3    H143019   1.542   0.870 103.952 -2.5402  2.7419 -1.3963
 7176TIP3    H243020   1.674   0.861 103.880 -1.0017  0.5157  1.4546
 7177TIP3   OH243021   0.932   2.398  20.323 -0.2136  0.3700 -0.5879
 7177TIP3    H143022   0.869   2.397  20.250 -1.4656  0.7835  0.4445
 7177TIP3    H243023   0.949   2.490  20.338  0.9797  0.2509 -1.1023
 7178TIP3   OH243024   2.503   2.221   1.311 -0.0695 -0.3455 -0.4016
 7178TIP3    H143025   2.465   2.188   1.230 -0.7469 -1.1423  0.2271
 7178TIP3    H243026   2.597   2.229   1.291 -0.0534 -1.5768 -0.9372
 7179TIP3   OH243027   1.649   0.961  73.159 -0.0415  0.1558 -0.1830
 7179TIP3    H143028   1.624   0.883  73.110 -1.5710 -0.8151  1.9518
 7179TIP3    H243029   1.595   1.031  73.123 -0.3609 -0.2941 -0.5858
 7180TIP3   OH243030   0.479   2.410 106.031  0.2594  0.2294 -0.1624
 7180TIP3    H143031   0.522   2.493 106.051  1.5582 -0.1898 -1.0225
 7180TIP3    H243032   0.505   2.351 106.102 -0.0974  0.3580  0.0823
 7181TIP3   OH243033   2.103   1.305  94.199 -0.4950  0.2037  0.1602
 7181TIP3    H143034   2.174   1.241  94.193  0.0554  0.7224  0.8944
 7181TIP3    H243035   2.148   1.389  94.204 -1.2092  0.6768 -0.9474
 7182TIP3   OH243036   1.993   1.656  26.428 -0.0530  0.0369 -0.6303
 7182TIP3    H143037   1.960   1.742  26.453 -3.2523 -1.3247  0.4862
 7182TIP3    H243038   2.025   1.618  26.510 -3.5267 -1.6215  0.1536
 7183TIP3   OH243039   0.662   1.861  27.426  0.1438  0.3472  0.2136
 7183TIP3    H143040   0.663   1.897  27.515  0.5492 -1.0327  0.7842
 7183TIP3    H243041   0.718   1.921  27.376  0.2385  0.9103  0.9763
 7184TIP3   OH243042   2.279   0.482 102.227 -0.3980  0.1902 -0.0010
 7184TIP3    H143043   2.226   0.435 102.163 -0.7875 -0.2658  0.6520
 7184TIP3    H243044   2.368   0.475 102.194 -0.7212  0.9232 -1.0848
 7185TIP3   OH243045   0.795   1.195   5.831 -0.4996  0.0516 -0.4843
 7185TIP3    H143046   0.732   1.124   5.842 -1.1000  0.7213  0.5816
 7185TIP3    H243047   0.877   1.152   5.807 -1.2644 -0.8607 -1.5344
 7186TIP3   OH243048   1.342   1.153  92.017  1.2370  0.0485  0.0193
 7186TIP3    H143049   1.373   1.174  91.928  2.4789 -0.7986  0.2206
 7186TIP3    H243050   1.247   1.155  92.010  1.1929  3.7280 -0.4115
 7187TIP3   OH243051   1.006   2.645   4.473  0.2802  0.7300  0.1024
 7187TIP3    H143052   0.948   2.722   4.472 -1.0119 -0.2075  0.1335
 7187TIP3    H243053   1.084   2.673   4.425 -0.3278  1.9334 -0.2303
 7188TIP3   OH243054   1.844   2.638  17.345  0.2017  0.4680  0.2325
 7188TIP3    H143055   1.926   2.610  17.385  0.4095  1.7500  0.7495
 7188TIP3    H243056   1.776   2.591  17.393  0.6079 -0.3207  0.0431
 7189TIP3   OH243057   2.416   1.605  17.689 -0.1690  0.5603  0.1184
 7189TIP3    H143058   2.379   1.592  17.601 -1.1279 -1.4140  0.7745
 7189TIP3    H243059   2.343   1.638  17.741  0.0582  0.4720  0.4943
 7190TIP3   OH243060   1.708   1.980  80.651  0.6100 -0.2159  0.1459
 7190TIP3    H143061   1.752   2.047  80.599  0.1164 -1.9705 -2.7534
 7190TIP3    H243062   1.626   2.021  80.678 -0.3828  0.0226 -2.8365
 7191TIP3   OH243063   0.891   1.075  34.709  0.0053  0.1381  0.9745
 7191TIP3    H143064   0.802   1.107  34.722 -0.2817 -0.5289  0.7169
 7191TIP3    H243065   0.932   1.140  34.652 -0.0263  0.9220  1.8212
 7192TIP3   OH243066   0.108   1.750  87.342 -0.0160  0.0878  0.0851
 7192TIP3    H143067   0.146   1.825  87.297  3.5728 -0.8134  1.3059
 7192TIP3    H243068   0.105   1.681  87.275  0.1012  0.2644 -0.1004
 7193TIP3   OH243069   0.236   1.272  30.246 -0.4917  0.5470  0.1903
 7193TIP3    H143070   0.148   1.307  30.263 -0.2668  0.8755  0.6934
 7193TIP3    H243071   0.291   1.350  30.237 -0.4848  0.3816 -1.4873
 7194TIP3   OH243072   0.019   0.470  78.769  0.0230  0.1852 -0.1791
 7194TIP3    H143073   0.114   0.471  78.785 -0.0265  0.9192  0.1406
 7194TIP3    H243074  -0.012   0.392  78.814  0.3794  0.3438  0.3617
 7195TIP3   OH243075   1.339   0.112  92.622  0.5220  0.4452 -0.6320
 7195TIP3    H143076   1.251   0.109  92.584  0.2771  0.2638 -0.0564
 7195TIP3    H243077   1.347   0.201  92.657  0.2684  0.2196  0.0135
 7196TIP3   OH243078   2.649   0.442   3.852 -0.2534 -0.2474  0.1424
 7196TIP3    H143079   2.583   0.473   3.790 -1.5793 -4.2045 -0.6541
 7196TIP3    H243080   2.603   0.439   3.936 -0.4921 -1.0796 -0.0117
 7197TIP3   OH243081   1.675   1.653  96.805 -0.0184 -0.1897  0.9455
 7197TIP3    H143082   1.750   1.601  96.834  0.2325 -0.2836  0.1544
 7197TIP3    H243083   1.714   1.726  96.757 -0.4080 -2.3374 -3.0685
 7198TIP3   OH243084   2.427   1.805  13.194 -0.1329 -0.0879  0.0225
 7198TIP3    H143085   2.414   1.860  13.272 -2.9473 -0.8290  0.1918
 7198TIP3    H243086   2.347   1.816  13.144  0.9888 -0.8427 -2.0499
 7199TIP3   OH243087   1.311   1.359  23.369  0.5181 -0.1977  0.4160
 7199TIP3    H143088   1.379   1.332  23.307 -0.3880 -1.4383 -0.0590
 7199TIP3    H243089   1.286   1.279  23.414 -0.7531  0.2193  0.4731
 7200TIP3   OH243090   0.527   1.916  78.991 -0.7231 -0.1070  0.0887
 7200TIP3    H143091   0.533   1.994  79.047  1.0561 -0.3785  0.3265
 7200TIP3    H243092   0.551   1.843  79.048  0.1128 -0.5104 -0.7550
 7201TIP3   OH243093   2.442   1.061  88.901 -0.1890  0.1240  0.9281
 7201TIP3    H143094   2.381   1.053  88.974 -0.6134 -1.5312  0.4295
 7201TIP3    H243095   2.482   0.974  88.894  1.1987  0.7757  0.3417
 7202TIP3   OH243096   0.388   0.328  22.173  0.0273  0.2799 -0.2989
 7202TIP3    H143097   0.483   0.331  22.187  0.6612  0.0084 -3.6107
 7202TIP3    H243098   0.362   0.241  22.204  0.8517  0.3014  0.4993
 7203TIP3   OH243099   1.856   1.307  23.194 -0.9703 -0.2492  0.2520
 7203TIP3    H143100   1.861   1.253  23.116 -2.0216 -0.3785  0.2690
 7203TIP3    H243101   1.932   1.280  23.246  0.0026  0.1607 -0.9037
 7204TIP3   OH243102   2.262   1.384   9.156  0.5058 -0.1172 -0.1475
 7204TIP3    H143103   2.272   1.309   9.215 -2.0829 -0.1266  0.3855
 7204TIP3    H243104   2.228   1.346   9.075 -0.1462  0.3718 -0.1131
 7205TIP3   OH243105   2.599   1.911   9.692  0.1997  0.2626  0.4966
 7205TIP3    H143106   2.678   1.858   9.681 -0.2102 -0.3992  0.6739
 7205TIP3    H243107   2.580   1.945   9.604  0.7079  0.4743  0.4660
 7206TIP3   OH243108   0.213   0.781  92.345  0.1058  0.6882 -0.0452
 7206TIP3    H143109   0.150   0.738  92.287 -1.0685  1.0254  0.9404
 7206TIP3    H243110   0.253   0.710  92.394  0.5433  0.4643 -0.7217
 7207TIP3   OH243111   1.704   0.211  81.000  0.5254  0.2379  0.1891
 7207TIP3    H143112   1.760   0.244  81.070  0.5627 -0.0006  0.2718
 7207TIP3    H243113   1.622   0.261  81.009  0.7224  0.5916  0.0633
 7208TIP3   OH243114   1.209   0.731   4.347  0.4207  0.3412  0.0361
 7208TIP3    H143115   1.302   0.715   4.363  0.5339  0.2023 -0.7004
 7208TIP3    H243116   1.203   0.740   4.252 -0.3010  0.4755  0.0916
 7209TIP3   OH243117   0.661   2.366   4.904 -0.6280 -0.3294  0.2144
 7209TIP3    H143118   0.626   2.294   4.957  0.8430 -1.5410 -0.3991
 7209TIP3    H243119   0.732   2.402   4.957 -0.5317 -0.1467 -0.0375
 7210TIP3   OH243120   1.112   2.269 105.042  0.1802 -0.0970 -0.2672
 7210TIP3    H143121   1.063   2.193 105.074 -1.0329  0.9901  0.6055
 7210TIP3    H243122   1.169   2.235 104.974 -1.9918 -1.4288 -1.5231
 7211TIP3   OH243123   2.017   0.052  81.265  0.0204 -0.3320 -0.4522
 7211TIP3    H143124   2.052   0.050  81.354  0.3815  1.5233 -0.5161
 7211TIP3    H243125   1.952   0.123  81.266  0.5568  0.2202 -1.8262
 7212TIP3   OH243126   0.608   1.522  73.316  0.1884  0.0593  0.2636
 7212TIP3    H143127   0.632   1.612  73.294  1.9349 -0.5106 -0.2811
 7212TIP3    H243128   0.690   1.479  73.337  0.2013 -2.6984 -4.2274
 7213TIP3   OH243129   1.289   2.257  26.405  0.0279  0.3819  0.5107
 7213TIP3    H143130   1.216   2.317  26.421  1.5959  2.5205  0.0143
 7213TIP3    H243131   1.367   2.310  26.418  1.5371 -1.8527  1.0551
 7214TIP3   OH243132   2.234   0.978  77.784 -0.4185  0.3859  0.1619
 7214TIP3    H143133   2.211   1.060  77.740 -1.0650  1.0589  1.6997
 7214TIP3    H243134   2.257   1.004  77.873  1.5890 -0.8599  0.0826
 7215TIP3   OH243135   2.115   1.395  27.707  0.0580  0.1258  0.8622
 7215TIP3    H143136   2.080   1.415  27.620 -0.6564 -2.8471  0.3769
 7215TIP3    H243137   2.057   1.441  27.767 -0.4769  0.8297 -0.1514
 7216TIP3   OH243138   0.406   1.428  87.180 -0.6118 -0.1231 -0.2223
 7216TIP3    H143139   0.497   1.408  87.160  0.4419  1.1395  2.7030
 7216TIP3    H243140   0.410   1.513  87.224 -3.1049 -0.4087  0.7112
 7217TIP3   OH243141   1.178   2.085  81.500 -0.7456 -0.0518 -0.0136
 7217TIP3    H143142   1.173   2.178  81.479 -1.0185 -0.0674 -0.0267
 7217TIP3    H243143   1.272   2.065  81.500 -0.7201  0.0435 -0.7760
 7218TIP3   OH243144   2.540   1.007 109.863  0.0976  0.1160  0.4099
 7218TIP3    H143145   2.541   0.980 109.955  2.0223 -0.2684  0.3110
 7218TIP3    H243146   2.629   1.038 109.846 -0.4323  0.8850 -1.1351
 7219TIP3   OH243147   0.411   2.002  19.318 -0.4635  0.1154  0.1937
 7219TIP3    H143148   0.455   2.031  19.398 -0.9938 -0.8295  0.8513
 7219TIP3    H243149   0.471   1.939  19.278 -1.1848 -1.2063  1.1127
 7220TIP3   OH243150   2.354   0.375  84.097 -0.0008  0.4471  0.7542
 7220TIP3    H143151   2.427   0.393  84.157 -1.1784  0.5540  2.2019
 7220TIP3    H243152   2.395   0.374  84.010  1.9930 -0.9618  1.6183
 7221TIP3   OH243153   1.450   1.694  25.291  0.1933 -0.0832 -0.6815
 7221TIP3    H143154   1.481   1.633  25.224 -0.0765  1.5096 -2.3631
 7221TIP3    H243155   1.355   1.682  25.292  0.2935 -0.9105  0.2844
 7222TIP3   OH243156   1.573   2.037 110.112 -0.0715 -0.5667 -0.2212
 7222TIP3    H143157   1.481   2.011 110.104  0.1127 -1.0850 -0.7900
 7222TIP3    H243158   1.619   1.975 110.055  0.6708 -0.5436  0.3485
 7223TIP3   OH243159   2.254   0.384  74.959 -0.6467 -0.0946 -0.2067
 7223TIP3    H143160   2.250   0.338  74.876 -0.3939 -0.5100  0.0109
 7223TIP3    H243161   2.185   0.345  75.012  0.1620 -0.8673  0.3025
 7224TIP3   OH243162   2.029   0.701  87.203  0.3384 -0.1439 -0.7310
 7224TIP3    H143163   2.052   0.764  87.134 -0.9457  1.3216  0.1218
 7224TIP3    H243164   1.934   0.694  87.200  0.2198  0.1514  1.0390
 7225TIP3   OH243165   1.501   1.392  87.316 -0.3956 -0.0839  0.4077
 7225TIP3    H143166   1.426   1.410  87.259 -0.2086 -2.4856 -0.7393
 7225TIP3    H243167   1.483   1.305  87.352  0.1790  0.7855  2.9947
 7226TIP3   OH243168   0.579   1.957  21.445 -0.2220 -0.5547  0.2821
 7226TIP3    H143169   0.495   1.927  21.409 -0.4606 -0.5007  0.7853
 7226TIP3    H243170   0.601   1.893  21.512 -0.0867 -0.3245  0.4607
 7227TIP3   OH243171   0.825   0.437  26.599 -0.2981 -0.4164 -0.1581
 7227TIP3    H143172   0.782   0.352  26.601  0.0688 -0.5872  0.7666
 7227TIP3    H243173   0.866   0.442  26.513 -0.8546 -0.8992 -0.4564
 7228TIP3   OH243174   1.582   0.040  24.033 -0.0874  0.1961  0.3443
 7228TIP3    H143175   1.592   0.095  23.955 -0.4119 -1.1064 -0.6509
 7228TIP3    H243176   1.635  -0.037  24.015 -0.5311 -0.3269  1.2337
 7229TIP3   OH243177   0.570   0.874  84.839 -0.0135 -0.1939 -0.1257
 7229TIP3    H143178   0.592   0.963  84.868  0.9524 -0.7203  0.8071
 7229TIP3    H243179   0.486   0.884  84.793  0.4018  1.3015 -0.6283
 7230TIP3   OH243180   0.956   1.721  13.141  0.4366  0.5417  0.1478
 7230TIP3    H143181   0.983   1.739  13.231 -0.8424  1.0898  0.4448
 7230TIP3    H243182   0.985   1.799  13.092  0.9454  0.3367  0.1140
 7231TIP3   OH243183   0.278   2.388  77.293 -0.5583 -0.0746  0.2851
 7231TIP3    H143184   0.283   2.381  77.198 -1.1284  0.6546  0.1951
 7231TIP3    H243185   0.294   2.481  77.311  0.3900 -0.3475  0.9649
 7232TIP3   OH243186   0.270   0.403 100.664  0.3185 -0.0080 -0.1195
 7232TIP3    H143187   0.200   0.343 100.640 -0.7395  1.5664 -1.1765
 7232TIP3    H243188   0.228   0.489 100.663  2.4241  1.0797 -1.5354
 7233TIP3   OH243189   2.321   2.458  88.637  0.4012  0.0377 -0.0855
 7233TIP3    H143190   2.242   2.412  88.607 -0.0127  0.7186 -0.0624
 7233TIP3    H243191   2.292   2.510  88.712  1.0177 -0.2001  0.3261
 7234TIP3   OH243192   1.785   2.014  36.705  0.3196 -0.5479  0.0781
 7234TIP3    H143193   1.880   2.006  36.709  0.4064  0.7876  2.2827
 7234TIP3    H243194   1.756   2.009  36.796 -1.8096 -1.5462 -0.5783
 7235TIP3   OH243195   0.023   2.035  13.264  0.0543  0.0577 -0.3562
 7235TIP3    H143196  -0.008   1.965  13.206 -1.4967 -1.6003  2.2289
 7235TIP3    H243197  -0.036   2.030  13.340  3.3214  0.4662  2.4520
 7236TIP3   OH243198   2.012   2.572   4.478 -0.2713  0.0392 -0.1526
 7236TIP3    H143199   2.076   2.585   4.408 -1.0523  2.2226 -0.5280
 7236TIP3    H243200   1.940   2.526   4.436  0.5959 -1.5514  0.0360
 7237TIP3   OH243201   0.823   0.179 112.178 -0.0954  0.1674 -0.6275
 7237TIP3    H143202   0.767   0.222 112.113 -0.8493  2.2722  1.3047
 7237TIP3    H243203   0.875   0.250 112.215  3.2966 -1.5535 -1.6411
 7238TIP3   OH243204   1.352   0.315  79.302  0.1673 -0.0842 -0.1840
 7238TIP3    H143205   1.263   0.294  79.332  0.9976 -3.1870  0.5224
 7238TIP3    H243206   1.339   0.355  79.216 -1.9408  0.0237  0.1123
 7239TIP3   OH243207   0.223   1.041  31.234  0.3457 -0.1911 -0.0307
 7239TIP3    H143208   0.138   1.000  31.251 -0.1375  0.7335 -0.1673
 7239TIP3    H243209   0.285   0.990  31.287 -0.5057  0.0107  1.2084
 7240TIP3   OH243210   1.176   2.471  82.145  0.3466  0.1651 -0.1811
 7240TIP3    H143211   1.258   2.500  82.105  0.5103  0.7197  0.5270
 7240TIP3    H243212   1.200   2.448  82.235 -0.3509  0.8051  0.1813
 7241TIP3   OH243213   0.450   2.108   7.723 -0.0761  0.1741  0.0363
 7241TIP3    H143214   0.529   2.149   7.759 -0.3660  0.9256 -0.1655
 7241TIP3    H243215   0.483   2.035   7.670  0.4672  0.3295  0.1504
 7242TIP3   OH243216   1.068   0.672   0.720 -0.1255 -0.0339  0.1117
 7242TIP3    H143217   1.005   0.739   0.692  0.2517  1.0634  1.7006
 7242TIP3    H243218   1.153   0.707   0.693 -0.0399 -0.6991 -0.5188
 7243TIP3   OH243219   0.585   0.001 102.268  0.3766 -0.5288  0.1538
 7243TIP3    H143220   0.619  -0.081 102.232  0.5790 -0.1243 -0.5892
 7243TIP3    H243221   0.590   0.063 102.196 -2.2735 -0.5232 -0.1120
 7244TIP3   OH243222   0.407   2.358   2.413 -0.4418 -0.3167 -0.4908
 7244TIP3    H143223   0.348   2.331   2.342 -0.0043  1.3379 -1.5422
 7244TIP3    H243224   0.482   2.397   2.368 -0.6405  1.7581  0.8850
 7245TIP3   OH243225   1.111   1.737  15.150  0.0456  0.1805  0.0624
 7245TIP3    H143226   1.043   1.783  15.199  0.6000  1.0210  0.0503
 7245TIP3    H243227   1.141   1.669  15.210 -0.7663 -0.1822  0.0834
 7246TIP3   OH243228   2.057   1.297   0.398  0.3433  0.0589 -0.0109
 7246TIP3    H143229   2.050   1.344   0.315 -0.0447 -1.1665 -0.6962
 7246TIP3    H243230   1.975   1.249   0.405  0.6463 -0.3497  0.7723
 7247TIP3   OH243231   2.615   2.506   9.536  0.1106 -0.3658  0.4376
 7247TIP3    H143232   2.588   2.429   9.586  1.6189 -0.6936  0.8267
 7247TIP3    H243233   2.541   2.527   9.480 -0.6281 -1.6082  0.9180
 7248TIP3   OH243234   0.301   1.489  10.271 -0.3478 -0.5282  0.0489
 7248TIP3    H143235   0.308   1.486  10.176  0.1165  2.5318 -0.1082
 7248TIP3    H243236   0.390   1.511  10.301 -0.4950 -1.4127  1.2244
 7249TIP3   OH243237   1.516   2.273 110.440  0.2762 -0.0829 -0.0342
 7249TIP3    H143238   1.607   2.302 110.440  1.0000 -1.9856 -2.9786
 7249TIP3    H243239   1.503   2.236 110.527  2.4250 -0.1204  0.3289
 7250TIP3   OH243240   0.332   1.078  68.740  0.2449 -0.0815  0.5535
 7250TIP3    H143241   0.319   0.995  68.694 -0.4773  0.1931  0.2603
 7250TIP3    H243242   0.420   1.070  68.778 -0.4190 -1.6565  1.8964
 7251TIP3   OH243243   0.048   1.812  88.130  0.6769  0.2536 -0.2239
 7251TIP3    H143244   0.033   1.742  88.193 -0.0623  0.3383 -0.2858
 7251TIP3    H243245  -0.003   1.885  88.163  2.2419  1.1059  0.3748
 7252TIP3   OH243246   1.751   2.157  28.965 -0.4891  0.3576 -0.0691
 7252TIP3    H143247   1.821   2.202  28.918  0.9699 -1.0422  0.6817
 7252TIP3    H243248   1.708   2.103  28.898  2.0288 -2.1754  0.1634
 7253TIP3   OH243249   0.009   2.098   7.305  0.7118  0.0651 -0.2014
 7253TIP3    H143250  -0.003   2.164   7.374  0.9379 -0.4700  0.3610
 7253TIP3    H243251   0.100   2.070   7.315  0.8479  0.2398 -0.9532
 7254TIP3   OH243252   2.417   2.488 107.327  0.1617 -0.2701  0.6606
 7254TIP3    H143253   2.444   2.431 107.399  2.3706 -0.2043 -0.0303
 7254TIP3    H243254   2.354   2.435 107.277 -0.6105 -0.6941  2.0310
 7255TIP3   OH243255   0.628   0.983  28.194  0.2024  0.0729  0.2671
 7255TIP3    H143256   0.605   1.074  28.213  0.5232  0.3933 -0.8238
 7255TIP3    H243257   0.683   0.987  28.116 -1.2932 -1.1778 -0.9506
 7256TIP3   OH243258   2.488   1.924  22.975  0.4571 -0.4717 -0.5654
 7256TIP3    H143259   2.413   1.871  22.946 -0.9567  1.4500 -0.6637
 7256TIP3    H243260   2.549   1.922  22.901  0.0609 -1.2697 -0.8800
 7257TIP3   OH243261   2.375   2.202  84.652  0.2130 -0.3437  0.3260
 7257TIP3    H143262   2.348   2.112  84.672 -1.6009 -0.0598 -0.6719
 7257TIP3    H243263   2.342   2.254  84.726  3.0915 -0.6805  2.0091
 7258TIP3   OH243264   0.627   2.645  20.488  0.0019 -0.0116  0.0053
 7258TIP3    H143265   0.633   2.603  20.573  0.1852 -0.2304 -0.1151
 7258TIP3    H243266   0.558   2.711  20.498 -2.1173 -2.0346 -0.5400
 7259TIP3   OH243267   1.900   1.185   1.619 -0.3019  0.3063 -0.0215
 7259TIP3    H143268   1.970   1.128   1.587  0.1985  0.5954  0.5410
 7259TIP3    H243269   1.820   1.134   1.606  0.2718 -1.2278  2.0317
 7260TIP3   OH243270   2.097   1.164  73.927  0.7060  0.0882  0.0261
 7260TIP3    H143271   2.136   1.151  74.014 -2.1865  0.8536  1.5751
 7260TIP3    H243272   2.089   1.259  73.919 -0.3383 -0.0326 -0.4505
 7261TIP3   OH243273   1.867   2.024  29.871 -0.5715  0.2045 -0.7815
 7261TIP3    H143274   1.805   2.062  29.808 -0.3799 -0.5966 -1.4787
 7261TIP3    H243275   1.913   1.957  29.821  1.2412  1.1221 -0.4226
 7262TIP3   OH243276   1.232   2.087  73.359 -0.2516 -0.7038  0.0577
 7262TIP3    H143277   1.230   2.056  73.449 -0.7024  0.4476  0.4607
 7262TIP3    H243278   1.220   2.181  73.365  0.2117 -0.5374 -1.1793
 7263TIP3   OH243279   1.276   0.871  18.018 -0.0040  0.7072  0.3857
 7263TIP3    H143280   1.250   0.819  18.094 -1.2738 -1.2762 -1.2662
 7263TIP3    H243281   1.196   0.916  17.992  0.1514  0.6176 -0.2834
 7264TIP3   OH243282   1.556   1.033  12.824 -0.3297  0.1000  0.5206
 7264TIP3    H143283   1.585   1.029  12.733 -1.5828  2.1682 -0.0395
 7264TIP3    H243284   1.600   1.109  12.861 -2.1675  1.1576  0.6772
 7265TIP3   OH243285   2.382   2.658   6.060  0.2473 -0.0888  0.6174
 7265TIP3    H143286   2.394   2.717   5.985 -2.5541 -1.0726 -0.7296
 7265TIP3    H243287   2.318   2.703   6.116  0.1365 -0.6580  0.9539
 7266TIP3   OH243288   2.109   2.431  93.395 -0.4412 -0.1051 -0.2829
 7266TIP3    H143289   2.103   2.496  93.466  0.6410 -1.1763  0.8496
 7266TIP3    H243290   2.059   2.469  93.323 -0.6141  1.5538  0.6645
 7267TIP3   OH243291   0.056   0.818  26.406  0.3132 -0.3862  0.2336
 7267TIP3    H143292   0.102   0.757  26.349  0.1168  0.2210 -0.5810
 7267TIP3    H243293   0.089   0.904  26.382 -1.2805  0.0733 -0.4197
 7268TIP3   OH243294   1.447   2.341   5.177 -0.0217  0.3157 -0.1646
 7268TIP3    H143295   1.430   2.327   5.084 -0.6055 -0.2102  0.0162
 7268TIP3    H243296   1.376   2.398   5.206  0.2110  0.5518 -0.0637
 7269TIP3   OH243297   0.720   0.217  87.388 -0.0702 -0.2891 -0.0433
 7269TIP3    H143298   0.728   0.299  87.340 -0.8149 -0.2217 -0.0655
 7269TIP3    H243299   0.790   0.161  87.352 -0.3235 -0.0867 -0.8831
 7270TIP3   OH243300   2.149   1.764   0.721 -0.1680  0.2030  0.5398
 7270TIP3    H143301   2.125   1.737   0.810  1.2436  2.0529  1.5623
 7270TIP3    H243302   2.151   1.683   0.671 -3.1342 -0.6521  1.6248
 7271TIP3   OH243303   0.623   1.447  89.323  0.6153 -0.0255  0.1839
 7271TIP3    H143304   0.606   1.373  89.265  0.3752 -0.1596  0.4249
 7271TIP3    H243305   0.549   1.506  89.310  0.6816  0.0577  0.1806
 7272TIP3   OH243306   1.605   2.596  38.033 -0.5231  0.1510  0.2586
 7272TIP3    H143307   1.669   2.530  38.006 -1.2263 -0.1486 -0.7268
 7272TIP3    H243308   1.646   2.679  38.010 -0.1770 -0.0015  0.3085
 7273TIP3   OH243309   1.103   0.071  28.995 -0.4200 -0.5169 -0.1254
 7273TIP3    H143310   1.099  -0.024  28.984  2.5680 -0.7747  0.1706
 7273TIP3    H243311   1.095   0.106  28.907  0.3761 -1.1776 -0.4720
 7274TIP3   OH243312   0.993   0.636  69.013  0.3853  0.2127 -0.1142
 7274TIP3    H143313   0.922   0.641  68.949  0.6856 -1.4159 -0.6122
 7274TIP3    H243314   1.035   0.722  69.009 -1.1761  0.9980 -0.2291
 7275TIP3   OH243315   0.458   2.349  33.115  0.2099 -0.5020 -0.7768
 7275TIP3    H143316   0.418   2.354  33.028  0.4376 -0.9456 -0.9081
 7275TIP3    H243317   0.402   2.289  33.164  0.4694 -0.7914 -0.8317
 7276TIP3   OH243318   1.751   2.605  83.176  0.2866 -0.1907  0.6211
 7276TIP3    H143319   1.680   2.546  83.203 -0.5923  0.7980  0.5306
 7276TIP3    H243320   1.804   2.616  83.255 -2.4061  2.8960  2.2435
 7277TIP3   OH243321   0.763   0.895   2.095  0.1275  0.0073  0.4984
 7277TIP3    H143322   0.774   0.861   2.183  0.7352  1.1196  0.8753
 7277TIP3    H243323   0.757   0.817   2.039  0.8993 -0.7093  1.3811
 7278TIP3   OH243324   2.114   0.163   9.065 -0.0552 -0.2726 -0.1525
 7278TIP3    H143325   2.034   0.143   9.015  0.2624  1.1809 -1.3026
 7278TIP3    H243326   2.176   0.195   9.000  1.0194 -0.0911  0.9235
 7279TIP3   OH243327   2.284   0.121  30.191 -1.0394  0.4275 -0.0714
 7279TIP3    H143328   2.297   0.152  30.281 -1.0863 -1.6435  0.7033
 7279TIP3    H243329   2.365   0.146  30.146 -1.8559  3.3872 -0.1070
 7280TIP3   OH243330   0.519   2.285  17.050  0.1867 -0.0416  0.5599
 7280TIP3    H143331   0.432   2.305  17.014  0.1683 -0.5304  0.3310
 7280TIP3    H243332   0.522   2.189  17.054  2.1650 -0.3293 -3.1167
 7281TIP3   OH243333   1.823   1.777  78.193 -0.6273 -0.4705  0.2303
 7281TIP3    H143334   1.899   1.835  78.184 -0.8583 -0.0339  1.0630
 7281TIP3    H243335   1.851   1.695  78.151  0.0764 -0.1034 -0.0264
 7282TIP3   OH243336   0.048   2.047  24.988 -0.0396  0.1105 -0.2264
 7282TIP3    H143337  -0.044   2.073  24.991  0.0129  0.2727  0.0065
 7282TIP3    H243338   0.048   1.958  25.024  0.1772  0.9279  1.9110
 7283TIP3   OH243339   0.548   1.924   3.978  0.4647  0.2110  0.0810
 7283TIP3    H143340   0.546   1.962   3.890  0.1354 -1.2720 -0.5892
 7283TIP3    H243341   0.518   1.995   4.035 -0.4732  0.8491 -1.1444
 7284TIP3   OH243342   1.201   1.948  74.520 -0.2079  0.5232 -0.3736
 7284TIP3    H143343   1.275   1.982  74.570 -0.4411  0.6518 -0.1204
 7284TIP3    H243344   1.157   1.888  74.580  0.6192 -0.8166 -1.0344
 7285TIP3   OH243345   1.162   2.035  20.941  0.2204 -0.1536 -0.5100
 7285TIP3    H143346   1.090   1.972  20.941 -0.7604  0.9267  0.2932
 7285TIP3    H243347   1.139   2.098  20.874  0.2492  0.3665 -0.0372
 7286TIP3   OH243348   2.431   1.694  24.463 -0.1491 -0.1290 -0.1922
 7286TIP3    H143349   2.463   1.724  24.548  0.6866 -0.2194 -0.4705
 7286TIP3    H243350   2.404   1.773  24.418  1.1970  0.1287 -0.5742
 7287TIP3   OH243351   0.006   1.459  36.535 -0.0601 -0.4275 -0.2280
 7287TIP3    H143352   0.032   1.453  36.627  1.2332 -2.8550 -0.6752
 7287TIP3    H243353   0.014   1.552  36.515 -1.3658  0.3522  2.3434
 7288TIP3   OH243354   2.362   2.261 111.371 -0.6443 -0.2337 -0.2252
 7288TIP3    H143355   2.294   2.296 111.314 -1.1694 -0.8543  0.0145
 7288TIP3    H243356   2.316   2.235 111.451  0.0696  0.5517  0.4609
 7289TIP3   OH243357   0.861   0.747  84.395  0.3632  0.0907 -0.4015
 7289TIP3    H143358   0.854   0.834  84.435 -0.7545 -0.0165 -0.3358
 7289TIP3    H243359   0.951   0.721  84.412 -0.2628 -0.3447  2.9714
 7290TIP3   OH243360   2.042   1.988  16.185 -0.3146 -0.1499  0.2871
 7290TIP3    H143361   2.084   2.059  16.234  1.4855 -0.7538 -0.3123
 7290TIP3    H243362   2.080   1.908  16.220 -0.8445 -0.7166 -0.3931
 7291TIP3   OH243363   0.099   1.871  29.751 -0.4903  0.7340 -0.4822
 7291TIP3    H143364   0.008   1.869  29.779 -0.1463  2.2460  0.8648
 7291TIP3    H243365   0.150   1.858  29.831  0.4804  1.5756 -0.9326
 7292TIP3   OH243366   0.100   0.862  24.251  0.5699  0.3476  0.2679
 7292TIP3    H143367   0.075   0.881  24.341  0.6742 -0.0271  0.3769
 7292TIP3    H243368   0.194   0.845  24.255  0.6333  0.6349  0.0387
 7293TIP3   OH243369   0.929   1.468  53.312 -0.1684  0.2614 -1.0669
 7293TIP3    H143370   0.981   1.457  53.392 -1.8368 -0.0072  0.0207
 7293TIP3    H243371   0.866   1.396  53.314  0.4681 -0.4478 -3.2498
 7294TIP3   OH243372   1.380   1.039  89.277 -0.2867 -0.1723  0.0671
 7294TIP3    H143373   1.352   0.947  89.282  1.9168 -0.9168 -0.0198
 7294TIP3    H243374   1.388   1.056  89.183  0.6042 -0.3605  0.0961
 7295TIP3   OH243375   1.126   0.871  78.772  0.1074 -0.3975 -0.1018
 7295TIP3    H143376   1.125   0.827  78.857  0.0368  0.5427  0.3983
 7295TIP3    H243377   1.039   0.910  78.764  1.3523  3.0094  1.3016
 7296TIP3   OH243378   0.370   1.911   1.749 -0.0474 -0.5025 -0.3581
 7296TIP3    H143379   0.411   1.964   1.818 -0.4862  1.7691 -1.7439
 7296TIP3    H243380   0.408   1.824   1.761  1.1133  0.2030  1.7170
 7297TIP3   OH243381   2.028   2.566  76.545 -0.4460  0.0578 -0.6565
 7297TIP3    H143382   1.964   2.607  76.603  2.0065  0.5919  1.8883
 7297TIP3    H243383   2.105   2.622  76.550  0.8356 -1.4372 -2.2437
 7298TIP3   OH243384   1.937   1.492 103.531  0.1609 -0.4573  0.0930
 7298TIP3    H143385   1.909   1.440 103.606  0.0240  0.5544  0.7670
 7298TIP3    H243386   2.030   1.507 103.546 -0.0459  0.4672  0.5297
 7299TIP3   OH243387   2.421   1.643 110.783 -0.4829 -0.3760  0.2938
 7299TIP3    H143388   2.514   1.665 110.777 -0.3890 -0.7454  0.3855
 7299TIP3    H243389   2.377   1.728 110.791 -0.1999 -0.1633 -0.3014
 7300TIP3   OH243390   0.648   0.494  29.672  0.1338 -0.2666  0.4232
 7300TIP3    H143391   0.674   0.507  29.764 -0.8827  1.1535  0.5451
 7300TIP3    H243392   0.654   0.581  29.634  0.6043 -0.8614 -0.8944
 7301TIP3   OH243393   0.367   0.306  89.153 -0.0578  0.0900 -0.0904
 7301TIP3    H143394   0.280   0.347  89.160  0.0548  0.1030  1.7799
 7301TIP3    H243395   0.413   0.334  89.233  0.8610 -1.7403  0.0779
 7302TIP3   OH243396   0.660   1.398  98.150 -0.1496 -0.0736 -0.3336
 7302TIP3    H143397   0.703   1.426  98.070 -0.0822 -0.9233 -0.6015
 7302TIP3    H243398   0.628   1.309  98.131 -1.1746  0.1654  0.1748
 7303TIP3   OH243399   1.317   2.537  21.601  0.0753  0.4890 -0.0396
 7303TIP3    H143400   1.378   2.608  21.582 -0.0607  0.6341  0.0671
 7303TIP3    H243401   1.372   2.470  21.643  0.4554 -0.0081 -1.2948
 7304TIP3   OH243402   0.642   0.102  89.550 -0.4676 -0.0136  0.0419
 7304TIP3    H143403   0.699   0.170  89.514 -1.3814  0.5347 -0.4043
 7304TIP3    H243404   0.593   0.069  89.475 -2.0714  0.8174  0.6849
 7305TIP3   OH243405   1.544   0.603  98.261 -0.6881 -0.4052 -0.2157
 7305TIP3    H143406   1.607   0.599  98.189 -0.7952 -3.6898 -0.2718
 7305TIP3    H243407   1.598   0.610  98.340 -0.3484 -0.8787 -0.4006
 7306TIP3   OH243408   1.056   1.644  31.158 -0.2760  0.1975 -0.2991
 7306TIP3    H143409   1.078   1.737  31.158 -1.1191  0.3987  0.0359
 7306TIP3    H243410   0.968   1.639  31.193 -0.3875 -0.6987 -0.6608
 7307TIP3   OH243411   2.486   1.521  15.649  0.6089 -0.1635  0.1576
 7307TIP3    H143412   2.394   1.540  15.631  0.3752 -0.4663  0.9619
 7307TIP3    H243413   2.490   1.425  15.653  1.2813 -0.2205 -1.4304
 7308TIP3   OH243414   1.414   2.683  22.248  0.1389  0.2095  0.5664
 7308TIP3    H143415   1.320   2.678  22.269 -0.0112  1.0312  0.1541
 7308TIP3    H243416   1.419   2.747  22.177  0.8486 -1.0917 -0.5890
 7309TIP3   OH243417   0.109   2.366  98.654 -0.5704 -0.0477 -0.1197
 7309TIP3    H143418   0.055   2.414  98.592 -1.3641  0.1745  0.7187
 7309TIP3    H243419   0.141   2.432  98.715 -2.3083 -0.6367  1.5136
 7310TIP3   OH243420   0.488   2.485  80.434  1.2485 -0.3857 -0.3084
 7310TIP3    H143421   0.427   2.491  80.508  0.4524 -0.7374 -0.9200
 7310TIP3    H243422   0.555   2.551  80.453  0.0722  0.8135 -0.1589
 7311TIP3   OH243423   1.935   1.305  75.146  0.6607 -0.4550  0.5927
 7311TIP3    H143424   2.023   1.270  75.160  0.2738 -1.2742  1.0566
 7311TIP3    H243425   1.932   1.326  75.053  1.3136 -0.5123  0.5515
 7312TIP3   OH243426   1.774   2.415  79.763  0.9321 -0.6939  0.4230
 7312TIP3    H143427   1.782   2.322  79.784  1.4134 -0.2110  2.6278
 7312TIP3    H243428   1.689   2.441  79.799  1.4118 -0.0006  1.0948
 7313TIP3   OH243429   1.886   1.205  82.192 -0.1119  1.4072 -0.1099
 7313TIP3    H143430   1.808   1.179  82.242  0.1385  0.5454 -0.1569
 7313TIP3    H243431   1.947   1.239  82.257 -0.6389  2.4021 -0.1095
 7314TIP3   OH243432   1.053   0.448  76.939  0.0486  0.0319 -0.0925
 7314TIP3    H143433   1.058   0.536  76.976 -1.9053  0.5141 -0.8379
 7314TIP3    H243434   1.006   0.397  77.005  1.1295 -0.4645  0.3161
 7315TIP3   OH243435   1.591   1.974  84.709  0.1805 -0.1399  0.2819
 7315TIP3    H143436   1.597   1.976  84.613 -0.8401  1.6754  0.2075
 7315TIP3    H243437   1.497   1.973  84.727  0.3280  0.8954  1.2519
 7316TIP3   OH243438   2.099   1.704 109.029  1.0839 -0.5293  0.0098
 7316TIP3    H143439   2.129   1.787 109.065  0.1297 -0.5619  0.9572
 7316TIP3    H243440   2.068   1.725 108.941 -1.2889  0.6414  1.0270
 7317TIP3   OH243441   2.363   1.982  19.019  0.2803  0.0995 -1.2565
 7317TIP3    H143442   2.371   1.887  19.024  0.0630  0.1105  2.8344
 7317TIP3    H243443   2.452   2.015  19.029  0.2988  0.3810 -2.2103
 7318TIP3   OH243444   0.559   0.256  98.409  0.1588  0.4338 -0.4564
 7318TIP3    H143445   0.585   0.330  98.354  0.4232  1.0103  0.4243
 7318TIP3    H243446   0.561   0.290  98.498 -1.6182 -0.0950 -0.1788
 7319TIP3   OH243447   0.076   2.278  97.431  0.1018  0.3808  0.2986
 7319TIP3    H143448   0.005   2.231  97.387 -1.0919  1.4645  0.9966
 7319TIP3    H243449   0.045   2.289  97.521  0.7193  1.6961  0.3750
 7320TIP3   OH243450   2.091   1.723  87.150 -0.1400  0.5585 -0.0024
 7320TIP3    H143451   2.072   1.641  87.196 -1.2719 -0.6387 -2.4591
 7320TIP3    H243452   2.185   1.736  87.163  0.3147 -1.7947 -0.5221
 7321TIP3   OH243453   0.993   2.490  91.337 -0.4215 -0.2496  0.1122
 7321TIP3    H143454   1.055   2.438  91.388 -0.0434 -0.2858 -0.3775
 7321TIP3    H243455   1.040   2.511  91.256 -1.5181 -1.3982 -0.8528
 7322TIP3   OH243456   2.034   2.283   9.935 -0.1616  0.3423 -0.2536
 7322TIP3    H143457   2.058   2.235  10.014  0.6832  1.6322  0.3075
 7322TIP3    H243458   1.991   2.363   9.967  2.2468  2.0252 -0.9403
 7323TIP3   OH243459   2.341   2.501  92.305  0.1088  0.2854 -0.4470
 7323TIP3    H143460   2.407   2.570  92.301  2.0990 -1.3881  0.9961
 7323TIP3    H243461   2.346   2.457  92.220  1.2436 -0.1377 -0.1689
 7324TIP3   OH243462   2.554   1.705 104.660 -0.2160 -0.1689  0.6246
 7324TIP3    H143463   2.563   1.635 104.724 -0.6666 -0.0723  0.7960
 7324TIP3    H243464   2.473   1.750 104.684 -0.5010 -0.2585 -0.1328
 7325TIP3   OH243465   0.291   2.557  10.021  0.0716  0.2782  0.2398
 7325TIP3    H143466   0.344   2.598  10.090  0.5078 -1.0573  0.7286
 7325TIP3    H243467   0.330   2.589   9.940  0.7186  0.4426  0.6038
 7326TIP3   OH243468   0.220   0.468  82.724  0.1281  0.0206  0.0964
 7326TIP3    H143469   0.273   0.536  82.765  1.2265  0.1088 -1.3864
 7326TIP3    H243470   0.186   0.416  82.797  2.4008 -0.1407  1.1288
 7327TIP3   OH243471   1.911   1.826  20.881  0.4626 -0.1228  0.2989
 7327TIP3    H143472   1.835   1.884  20.877 -0.5632 -1.4634 -0.4304
 7327TIP3    H243473   1.956   1.852  20.961 -0.6095  0.8896  0.6096
 7328TIP3   OH243474   0.762   0.185  25.102  0.7367  0.1782 -0.1325
 7328TIP3    H143475   0.679   0.176  25.056  0.1714  2.0251  0.4216
 7328TIP3    H243476   0.828   0.154  25.040 -0.2189  0.2621 -1.2140
 7329TIP3   OH243477   0.461   1.430  77.182 -0.2628 -0.3930 -0.4933
 7329TIP3    H143478   0.409   1.509  77.170  0.1081 -0.2172 -0.9779
 7329TIP3    H243479   0.456   1.412  77.276 -1.7108 -0.7459 -0.6136
 7330TIP3   OH243480   2.397   1.342   0.295  0.6535 -0.2779  0.4516
 7330TIP3    H143481   2.482   1.382   0.277 -0.2632  1.8020  0.4761
 7330TIP3    H243482   2.365   1.387   0.373 -0.4787 -1.0315  0.4521
 7331TIP3   OH243483   0.271   1.853  99.371 -0.3515  0.7381 -0.0668
 7331TIP3    H143484   0.283   1.759  99.358  0.3468  0.9731 -1.3442
 7331TIP3    H243485   0.332   1.893  99.309  1.6131  2.0633  2.5034
 7332TIP3   OH243486   0.397   1.532  88.675  0.0776 -0.0190  0.2045
 7332TIP3    H143487   0.337   1.529  88.750 -0.9873  2.4975 -0.4390
 7332TIP3    H243488   0.352   1.485  88.606 -0.6417  0.7896  0.1003
 7333TIP3   OH243489   2.042   2.049  87.032  0.2943 -0.1700 -0.1779
 7333TIP3    H143490   2.130   2.049  87.071  0.8578 -3.0365 -1.1641
 7333TIP3    H243491   1.991   1.991  87.089 -1.1459  1.7335  0.5884
 7334TIP3   OH243492   0.924   0.515  64.281 -0.0191  0.7301 -0.3296
 7334TIP3    H143493   0.964   0.441  64.236 -0.9567 -1.6273  2.3617
 7334TIP3    H243494   0.835   0.486  64.302 -0.2994  2.4362  1.1717
 7335TIP3   OH243495   1.109   2.275  29.734  0.0659  0.4054 -0.0218
 7335TIP3    H143496   1.167   2.335  29.782  0.5563 -0.4625  0.4829
 7335TIP3    H243497   1.134   2.285  29.643  0.1331  0.9693  0.0501
 7336TIP3   OH243498   1.488   2.576  73.910 -0.0782 -0.2355 -0.2232
 7336TIP3    H143499   1.544   2.573  73.833 -0.0669 -0.3544 -0.2116
 7336TIP3    H243500   1.402   2.547  73.878 -0.8032  2.3102 -0.8126
 7337TIP3   OH243501   2.379   1.986  32.893  0.6826  0.1169 -0.1664
 7337TIP3    H143502   2.443   2.033  32.946  0.8734  0.1011 -0.3746
 7337TIP3    H243503   2.338   1.925  32.953 -1.5877  2.4408  0.8164
 7338TIP3   OH243504   0.029   1.509  27.398  0.1053  0.0538  0.5434
 7338TIP3    H143505   0.113   1.543  27.366 -0.7104  0.1315 -1.7344
 7338TIP3    H243506  -0.025   1.587  27.411 -0.1469 -0.0833  0.3204
 7339TIP3   OH243507   0.481   2.625  32.201 -0.4068 -0.2147  0.2753
 7339TIP3    H143508   0.540   2.701  32.197 -0.8859  0.2480  1.5285
 7339TIP3    H243509   0.438   2.624  32.115 -1.8963  2.2138  0.8772
 7340TIP3   OH243510   0.510   1.084 102.048 -0.1295  0.2755 -0.1368
 7340TIP3    H143511   0.457   1.087 101.968  1.9537 -0.8462 -1.6303
 7340TIP3    H243512   0.454   1.040 102.112 -1.3874  0.0605 -1.3362
 7341TIP3   OH243513   2.187   2.180  75.882  0.0119 -0.3163 -0.4640
 7341TIP3    H143514   2.242   2.143  75.951 -1.8863 -0.2999  1.1135
 7341TIP3    H243515   2.184   2.112  75.815  2.2966 -0.1328 -0.8565
 7342TIP3   OH243516   1.499   1.346  91.436 -0.1171 -0.7157  0.1925
 7342TIP3    H143517   1.531   1.432  91.408 -0.3710 -0.6835  0.0043
 7342TIP3    H243518   1.410   1.362  91.468 -1.1890 -1.3092 -2.2549
 7343TIP3   OH243519   0.603   1.228  37.558 -0.0461  0.3824  0.2352
 7343TIP3    H143520   0.602   1.138  37.524  0.3496  0.6338 -0.4678
 7343TIP3    H243521   0.548   1.277  37.497  0.1055  0.7027  0.3579
 7344TIP3   OH243522   1.529   0.226  74.741 -0.0241  0.1816 -0.4908
 7344TIP3    H143523   1.473   0.236  74.665  0.1950 -0.5683 -0.7645
 7344TIP3    H243524   1.499   0.145  74.783 -0.5430  0.9100  0.5728
 7345TIP3   OH243525   0.485   1.618  96.487 -0.4951 -0.3029 -0.0289
 7345TIP3    H143526   0.547   1.607  96.559  1.3688  1.1502 -1.3366
 7345TIP3    H243527   0.540   1.628  96.409 -2.4207 -0.4690 -1.4792
 7346TIP3   OH243528   2.451   0.902  27.543 -0.3153  0.4848 -0.2106
 7346TIP3    H143529   2.393   0.841  27.589 -0.6753 -0.0327 -1.3077
 7346TIP3    H243530   2.457   0.977  27.601 -1.6735  0.3360  0.1707
 7347TIP3   OH243531   1.018   0.130  21.988  0.0805  0.6153  0.2594
 7347TIP3    H143532   1.008   0.207  21.932  0.4155 -0.1221 -0.8609
 7347TIP3    H243533   1.065   0.067  21.933  0.5631 -0.0872  1.4385
 7348TIP3   OH243534   0.512   0.646  33.631 -0.1260  0.2929  0.2580
 7348TIP3    H143535   0.518   0.556  33.665  2.5334  0.4252  0.3226
 7348TIP3    H243536   0.435   0.644  33.573 -1.2472 -1.4990  1.6888
 7349TIP3   OH243537   2.003   1.867  77.407  0.0717  0.3468  0.1756
 7349TIP3    H143538   2.001   1.912  77.323 -0.4881  0.6378  0.3451
 7349TIP3    H243539   2.079   1.904  77.452 -0.7719  1.6323  0.5835
 7350TIP3   OH243540   0.631   1.755  95.218  0.5194  0.0017  0.1224
 7350TIP3    H143541   0.601   1.825  95.275  1.4719 -0.5996  1.4165
 7350TIP3    H243542   0.716   1.730  95.253 -0.1730 -2.4017  0.2706
 7351TIP3   OH243543   0.914   1.844  15.718 -0.0412  0.5084  0.2806
 7351TIP3    H143544   0.972   1.872  15.789 -0.3391  0.3149  0.6080
 7351TIP3    H243545   0.916   1.748  15.722 -0.0824  0.4975  0.0458
 7352TIP3   OH243546   1.277   1.841   7.646  0.0260 -0.0839  0.1668
 7352TIP3    H143547   1.369   1.852   7.670  0.1169  0.7600 -0.5176
 7352TIP3    H243548   1.280   1.802   7.559 -0.1951  1.8947 -0.7928
 7353TIP3   OH243549   0.208   2.015  25.664  0.4341  0.0526 -0.2992
 7353TIP3    H143550   0.290   2.022  25.713 -0.2171 -0.6258  0.9180
 7353TIP3    H243551   0.210   2.089  25.603  2.4770 -0.6123 -1.1060
 7354TIP3   OH243552   1.385   1.028   1.026 -0.2073  0.4046  0.0371
 7354TIP3    H143553   1.400   1.018   0.932 -0.0279  0.3288  0.0725
 7354TIP3    H243554   1.308   1.084   1.032  1.1471  2.3585 -0.1382
 7355TIP3   OH243555   0.318   0.256  78.037  0.1692  0.0674 -0.6669
 7355TIP3    H143556   0.268   0.314  78.094 -2.3995 -1.6604 -1.0121
 7355TIP3    H243557   0.404   0.249  78.079 -1.5374 -1.0021  2.9975
 7356TIP3   OH243558   1.305   1.959  91.920 -0.0413  0.2422  0.0619
 7356TIP3    H143559   1.383   1.937  91.869 -0.2640  0.9033 -0.5978
 7356TIP3    H243560   1.255   1.877  91.925 -0.1913  0.2405 -1.1380
 7357TIP3   OH243561   2.233   1.577  34.112 -0.2051 -0.4879 -0.0882
 7357TIP3    H143562   2.320   1.554  34.146 -1.0691 -2.9303  0.7074
 7357TIP3    H243563   2.186   1.613  34.187  0.7859  3.3406 -1.0851
 7358TIP3   OH243564   1.610   2.251   6.826 -0.1515 -0.4603 -0.0474
 7358TIP3    H143565   1.662   2.322   6.863 -1.6967  0.8255 -0.2719
 7358TIP3    H243566   1.674   2.181   6.809  1.0941  0.0875  2.0300
 7359TIP3   OH243567   1.827   0.708  82.577  0.0338  0.8256  0.1723
 7359TIP3    H143568   1.884   0.640  82.612 -0.6847  0.2103  0.1807
 7359TIP3    H243569   1.844   0.785  82.631 -0.5368  0.0981  1.4119
 7360TIP3   OH243570   1.093   0.342  79.416  0.5545 -0.7274  0.3688
 7360TIP3    H143571   1.094   0.253  79.450 -0.3642 -1.1035 -0.5084
 7360TIP3    H243572   1.062   0.396  79.489 -1.1555 -1.4747  0.2529
 7361TIP3   OH243573   1.896   0.034 107.726 -0.3188 -0.1678  0.0581
 7361TIP3    H143574   1.867   0.012 107.638  0.8450 -1.1077 -0.1207
 7361TIP3    H243575   1.915  -0.051 107.767  1.6709  0.3423  0.3008
 7362TIP3   OH243576   1.635   1.564 104.377 -0.0984  0.1654 -0.1933
 7362TIP3    H143577   1.572   1.622 104.420  0.9718  1.0198  0.2833
 7362TIP3    H243578   1.717   1.613 104.377  0.6109 -0.9667 -0.6666
 7363TIP3   OH243579   2.349   1.799   5.451  0.1223  0.4113  0.5042
 7363TIP3    H143580   2.406   1.776   5.378  1.1227  2.5612  0.5148
 7363TIP3    H243581   2.270   1.833   5.410  0.5273  1.2468  0.3784
 7364TIP3   OH243582   0.149   2.007  95.854  0.3140  0.4365  0.2607
 7364TIP3    H143583   0.224   2.051  95.815  0.1880 -0.1093 -0.6348
 7364TIP3    H243584   0.073   2.057  95.823  0.2877  0.8353  0.9558
 7365TIP3   OH243585   2.159   2.402 102.718 -0.5986  0.2847  0.1376
 7365TIP3    H143586   2.251   2.423 102.734 -0.5033  0.3322 -0.4743
 7365TIP3    H243587   2.135   2.343 102.791 -0.3701  1.0587  0.8542
 7366TIP3   OH243588   1.806   1.484   9.742 -0.2165  0.1599  0.3238
 7366TIP3    H143589   1.825   1.555   9.681 -0.6100  0.2703  0.3248
 7366TIP3    H243590   1.798   1.406   9.686 -0.8972  0.3184  0.1927
 7367TIP3   OH243591   0.848   1.084  75.771  0.2319  0.5164 -0.2050
 7367TIP3    H143592   0.880   1.057  75.685 -2.0562  3.4620 -2.2044
 7367TIP3    H243593   0.764   1.038  75.781 -0.3184  1.4449 -0.3992
 7368TIP3   OH243594   0.517   0.873  82.261 -0.1146  0.5507  0.3259
 7368TIP3    H143595   0.608   0.876  82.232  0.0083  0.9802  0.7402
 7368TIP3    H243596   0.479   0.798  82.214  0.8699 -0.6272  1.3187
 7369TIP3   OH243597   1.180   2.618 108.054  0.5007  0.1529 -0.3442
 7369TIP3    H143598   1.098   2.665 108.036 -0.0871  0.5617  2.8696
 7369TIP3    H243599   1.158   2.526 108.040 -0.8183  0.1802  1.2445
 7370TIP3   OH243600   1.801   2.466  32.793 -0.1331 -0.2011  0.5222
 7370TIP3    H143601   1.878   2.516  32.767  1.0350 -1.4963  1.3181
 7370TIP3    H243602   1.733   2.532  32.806  1.6240  1.3737  2.6091
 7371TIP3   OH243603   1.139   0.705   2.168  0.0987  0.3880 -0.0065
 7371TIP3    H143604   1.096   0.784   2.200 -0.5017 -0.1214  0.4767
 7371TIP3    H243605   1.201   0.682   2.237 -1.2690 -0.7693  0.8956
 7372TIP3   OH243606   0.110   1.246   2.540 -0.1419  0.4697  0.4184
 7372TIP3    H143607   0.066   1.325   2.570 -1.1135  0.4162 -0.7795
 7372TIP3    H243608   0.133   1.199   2.620 -0.8579  1.2682  1.1055
 7373TIP3   OH243609   2.250   2.045   5.288 -0.0560  0.4793  0.3648
 7373TIP3    H143610   2.167   2.036   5.334 -0.2588  1.0015  0.1179
 7373TIP3    H243611   2.314   2.063   5.357 -0.0831 -0.2533  0.5888
 7374TIP3   OH243612   2.581   0.045  44.702  0.2857 -0.0876 -1.0251
 7374TIP3    H143613   2.595  -0.047  44.678 -0.5554 -0.7275  0.7448
 7374TIP3    H243614   2.661   0.089  44.675  2.0973 -1.9479  0.8579
 7375TIP3   OH243615   1.288   0.603  17.815  0.3411  0.6605  0.1967
 7375TIP3    H143616   1.347   0.642  17.879  0.0956  1.0036  0.2183
 7375TIP3    H243617   1.340   0.596  17.735  0.3545  1.1429  0.1602
 7376TIP3   OH243618   2.304   0.397  96.232  0.1760 -0.3887  0.1269
 7376TIP3    H143619   2.236   0.348  96.278  1.1209 -0.2400  1.7598
 7376TIP3    H243620   2.301   0.484  96.271  1.1067 -0.3003  0.0231
 7377TIP3   OH243621   0.308   0.785 102.783  0.5379 -0.1118  0.1272
 7377TIP3    H143622   0.362   0.749 102.854 -0.9307  0.8468  1.8142
 7377TIP3    H243623   0.219   0.755 102.803  0.0803  0.2108 -1.3122
 7378TIP3   OH243624   0.053   0.672  17.368  0.2846 -0.2531 -0.3850
 7378TIP3    H143625  -0.003   0.696  17.442  0.3441  0.4013 -0.5490
 7378TIP3    H243626   0.000   0.611  17.316 -0.6745  1.1114 -1.0747
 7379TIP3   OH243627   2.311   1.146 104.952 -0.2414  0.0963  0.1891
 7379TIP3    H143628   2.348   1.106 105.031 -0.1176  0.3618  0.2719
 7379TIP3    H243629   2.225   1.107 104.943 -0.4485  0.4061  0.7257
 7380TIP3   OH243630   0.361   1.963  14.313 -0.5802 -0.1322 -0.0470
 7380TIP3    H143631   0.308   1.892  14.350 -1.3603 -0.1741 -1.1799
 7380TIP3    H243632   0.313   1.990  14.234 -0.2371  1.5879  0.2949
 7381TIP3   OH243633   2.408   2.652  81.599 -0.5489 -0.1148  0.3130
 7381TIP3    H143634   2.424   2.735  81.554 -0.9574 -0.4338 -0.4540
 7381TIP3    H243635   2.489   2.633  81.644  0.7314 -0.8863 -2.1349
 7382TIP3   OH243636   0.778   0.388  21.877 -0.2837 -0.5473  0.3557
 7382TIP3    H143637   0.800   0.326  21.807 -0.9107 -0.8062  0.3762
 7382TIP3    H243638   0.789   0.475  21.837  3.9097 -0.4704  1.2878
 7383TIP3   OH243639   1.372   1.533  31.857 -0.0307  0.1018 -0.0756
 7383TIP3    H143640   1.384   1.623  31.825  1.3762 -0.5301 -1.4435
 7383TIP3    H243641   1.458   1.507  31.889 -0.7025 -0.3806  1.4563
 7384TIP3   OH243642   2.417   1.344 106.061 -0.0543 -0.3290  0.0121
 7384TIP3    H143643   2.411   1.415 105.997 -1.3311 -0.1365  0.3080
 7384TIP3    H243644   2.444   1.387 106.142  0.9792 -0.4788 -0.2484
 7385TIP3   OH243645   2.305   2.165  42.816  0.6432  0.1138 -1.2067
 7385TIP3    H143646   2.354   2.247  42.818  1.9564 -0.6021 -2.5083
 7385TIP3    H243647   2.271   2.159  42.727 -1.5479  0.3803 -0.4646
 7386TIP3   OH243648   0.590   2.231  97.359  0.0056 -0.5209  0.0970
 7386TIP3    H143649   0.613   2.145  97.396  0.9446  0.2613  1.4257
 7386TIP3    H243650   0.497   2.240  97.378 -0.0939 -1.2285 -0.0110
 7387TIP3   OH243651   1.239   2.263  32.992  0.1103  0.2486  0.1452
 7387TIP3    H143652   1.226   2.320  32.916 -0.1260 -0.2971 -0.2374
 7387TIP3    H243653   1.276   2.182  32.955 -0.8906 -0.3852  0.4640
 7388TIP3   OH243654   2.310   2.056 106.440 -0.0560  0.5416 -0.0353
 7388TIP3    H143655   2.221   2.041 106.472 -0.3119  3.4001  0.9105
 7388TIP3    H243656   2.298   2.110 106.361  0.8094 -0.4359 -0.8567
 7389TIP3   OH243657   1.339   0.141   6.388 -0.3924 -0.7602  0.0830
 7389TIP3    H143658   1.324   0.082   6.314  0.2219 -0.9732  0.1175
 7389TIP3    H243659   1.393   0.211   6.351 -0.2311 -0.7759  0.2904
 7390TIP3   OH243660   0.962   1.137  26.218  0.3191  0.4677 -0.6427
 7390TIP3    H143661   1.029   1.080  26.256  0.0261  0.5905  0.0696
 7390TIP3    H243662   0.957   1.110  26.126 -0.8457 -1.6565 -0.0185
 7391TIP3   OH243663   2.471   0.229  81.549 -0.1027 -0.3086  0.0187
 7391TIP3    H143664   2.426   0.312  81.535  1.9705  1.2040  1.5932
 7391TIP3    H243665   2.551   0.236  81.497  0.3475 -1.0694  0.5845
 7392TIP3   OH243666   1.590   0.332   1.274  0.7876 -0.1731  0.8343
 7392TIP3    H143667   1.525   0.322   1.344  0.4445 -2.1736  0.2871
 7392TIP3    H243668   1.543   0.381   1.206 -0.2443 -1.7051  0.3903
 7393TIP3   OH243669   2.327   2.066   6.721 -0.0661 -0.0228 -0.0633
 7393TIP3    H143670   2.405   2.029   6.762  1.2593  1.8899 -0.7565
 7393TIP3    H243671   2.307   2.006   6.649  0.5135 -0.7506  0.3650
 7394TIP3   OH243672   1.636   1.701 102.654 -0.1271  0.4438  0.0330
 7394TIP3    H143673   1.592   1.693 102.569  0.3691  1.9127 -0.3901
 7394TIP3    H243674   1.723   1.663 102.639  0.4985  2.0265 -0.5832
 7395TIP3   OH243675   1.446   1.385  78.606 -0.4491 -0.0050 -0.0932
 7395TIP3    H143676   1.514   1.427  78.658 -0.1186 -1.3775  0.6353
 7395TIP3    H243677   1.412   1.454  78.550  0.2822  1.1385  0.8332
 7396TIP3   OH243678   0.605   0.621 106.861 -0.2437  0.0851 -0.2208
 7396TIP3    H143679   0.668   0.688 106.833 -0.7517  1.0474  0.8525
 7396TIP3    H243680   0.577   0.579 106.780 -0.4288  1.6480 -0.9922
 7397TIP3   OH243681   2.103   2.633  75.997  0.1518  0.5302  0.6380
 7397TIP3    H143682   2.042   2.562  75.974  2.0654 -0.2261 -2.8558
 7397TIP3    H243683   2.057   2.713  75.971  0.1084  0.0467 -0.9116
 7398TIP3   OH243684   1.260   0.736  93.072  1.0163  0.0735 -0.4980
 7398TIP3    H143685   1.342   0.696  93.046  1.9508  0.4294  1.7321
 7398TIP3    H243686   1.279   0.780  93.155 -1.5648 -0.3669  0.4294
 7399TIP3   OH243687   1.936   0.623  62.646  0.0668 -0.5109 -0.0771
 7399TIP3    H143688   1.944   0.601  62.553  0.4181 -1.8766  0.2403
 7399TIP3    H243689   1.844   0.608  62.666  0.2807 -1.7462  0.1103
 7400TIP3   OH243690   2.677   0.177  96.788 -0.2398 -0.4648  0.0184
 7400TIP3    H143691   2.642   0.181  96.877  0.5534 -2.1217  0.4415
 7400TIP3    H243692   2.685   0.268  96.761  0.6170  0.1310  2.0906
 7401TIP3   OH243693   0.676   2.038 101.092 -0.1270  0.2328  0.1356
 7401TIP3    H143694   0.595   1.996 101.062  0.4713 -1.2337  0.4873
 7401TIP3    H243695   0.745   2.000 101.037  0.6245 -0.4167  1.4766
 7402TIP3   OH243696   0.774   2.102   6.734  0.3955  0.0243 -0.1577
 7402TIP3    H143697   0.710   2.037   6.762  0.3307 -0.3801 -1.1718
 7402TIP3    H243698   0.791   2.080   6.642  2.1226  0.0177  0.1383
 7403TIP3   OH243699   0.343   2.097  78.596  0.6043  0.0605 -0.1191
 7403TIP3    H143700   0.279   2.134  78.535  1.1138  0.5772 -0.3562
 7403TIP3    H243701   0.388   2.029  78.545  1.0900  0.5518 -0.3607
 7404TIP3   OH243702   1.965   0.003  93.487  0.2406 -0.0373  0.3848
 7404TIP3    H143703   2.050   0.046  93.499 -0.1798  0.5947  1.2259
 7404TIP3    H243704   1.925   0.048  93.413  0.9529 -0.8753 -0.5352
 7405TIP3   OH243705   2.506   0.242  12.244  0.7136 -0.7197 -0.0285
 7405TIP3    H143706   2.424   0.193  12.235  0.3063  0.0419 -0.4897
 7405TIP3    H243707   2.535   0.223  12.333  0.4494 -1.6289 -0.1285
 7406TIP3   OH243708   0.114   1.483  97.204  0.1115  0.1156  0.3911
 7406TIP3    H143709   0.145   1.527  97.125  1.1221  1.0089  1.2444
 7406TIP3    H243710   0.053   1.545  97.243 -2.7195 -1.5043 -1.1155
 7407TIP3   OH243711   1.949   1.523   3.488 -0.2492 -0.1280 -0.3637
 7407TIP3    H143712   1.975   1.615   3.482 -1.4025  0.2273 -0.0028
 7407TIP3    H243713   1.983   1.494   3.572  0.1171 -0.0458 -0.4789
 7408TIP3   OH243714   0.413   2.598   9.767  0.4911  0.0581 -0.0011
 7408TIP3    H143715   0.490   2.601   9.710 -0.2671  0.3431 -1.0572
 7408TIP3    H243716   0.358   2.670   9.736 -1.4036 -1.7255 -1.0679
 7409TIP3   OH243717   0.155   0.221  10.029  0.1169  0.0463 -0.6063
 7409TIP3    H143718   0.101   0.142  10.023  0.7963 -0.4527 -0.2909
 7409TIP3    H243719   0.173   0.231  10.122 -0.2695  0.7967 -0.6016
 7410TIP3   OH243720   2.465   0.641  25.069  0.0311  0.7284  0.0317
 7410TIP3    H143721   2.556   0.641  25.039 -0.4998 -0.4954 -1.7168
 7410TIP3    H243722   2.444   0.734  25.081  1.0220  1.1223 -1.0776
 7411TIP3   OH243723   0.765   0.794  75.883  0.0988 -1.1143 -0.4518
 7411TIP3    H143724   0.813   0.788  75.966 -1.4670 -1.4230  0.4789
 7411TIP3    H243725   0.695   0.729  75.892 -0.0769 -1.1699 -2.0423
 7412TIP3   OH243726   0.116   2.457   7.643  0.0815 -0.0580 -0.3596
 7412TIP3    H143727   0.111   2.425   7.732 -2.9294  1.4024  0.1110
 7412TIP3    H243728   0.055   2.402   7.593  1.1876 -0.3977 -1.4055
 7413TIP3   OH243729   1.782   0.892  85.145 -0.6590 -0.3819  0.1182
 7413TIP3    H143730   1.838   0.820  85.176 -0.0214 -0.4300 -1.0765
 7413TIP3    H243731   1.838   0.942  85.086 -1.0579  1.1896  1.0085
 7414TIP3   OH243732   0.296   0.316  18.406 -0.2754  0.6569 -0.2553
 7414TIP3    H143733   0.215   0.339  18.452 -0.0242  0.7040  0.1650
 7414TIP3    H243734   0.291   0.221  18.396  0.6153  0.3523  1.7202
 7415TIP3   OH243735   0.636   0.704  36.974 -0.1472  0.1210  0.2442
 7415TIP3    H143736   0.630   0.799  36.964 -1.6418  0.2371  1.8251
 7415TIP3    H243737   0.581   0.668  36.904  0.2448  0.4120 -0.2186
 7416TIP3   OH243738   2.562   1.520  19.142  0.2110 -0.3331 -0.1187
 7416TIP3    H143739   2.531   1.489  19.227 -0.0613  0.6218  0.1516
 7416TIP3    H243740   2.596   1.442  19.098 -2.3750 -1.4504 -0.3551
 7417TIP3   OH243741   0.249   0.944  97.417 -0.3983  0.6100 -0.5478
 7417TIP3    H143742   0.167   0.964  97.460  0.8947  0.2957  2.2971
 7417TIP3    H243743   0.227   0.879  97.350 -2.7771  2.4581 -1.6919
 7418TIP3   OH243744   0.383   1.472  85.707 -0.0768  0.8815 -0.2142
 7418TIP3    H143745   0.427   1.550  85.740 -1.8939  1.9355 -0.1944
 7418TIP3    H243746   0.290   1.490  85.718 -0.5912 -0.6751 -1.6041
 7419TIP3   OH243747   2.294   1.727  91.791 -0.0457  0.1887  0.0366
 7419TIP3    H143748   2.309   1.765  91.878 -1.0491  1.9017 -0.4864
 7419TIP3    H243749   2.202   1.746  91.773 -0.3723 -1.8099 -0.6432
 7420TIP3   OH243750   2.110   0.776 103.915 -0.3495  0.2009 -0.2337
 7420TIP3    H143751   2.044   0.770 103.846 -1.4259  0.3330  0.7538
 7420TIP3    H243752   2.115   0.869 103.936 -0.7159  0.0588  0.5092
 7421TIP3   OH243753   0.380   1.177   6.120 -0.0368 -0.7879 -0.0586
 7421TIP3    H143754   0.336   1.197   6.203 -2.3560 -0.3354 -1.2861
 7421TIP3    H243755   0.378   1.259   6.072  3.1239 -0.5044  0.1311
 7422TIP3   OH243756   0.867   1.858  86.533 -0.0206 -0.0963  0.1762
 7422TIP3    H143757   0.835   1.772  86.508 -0.0754  0.1982 -0.8227
 7422TIP3    H243758   0.941   1.840  86.592 -1.3431 -0.7797  1.6768
 7423TIP3   OH243759   2.392   2.608  94.487  0.6415 -0.2927  0.7077
 7423TIP3    H143760   2.335   2.532  94.503  0.2465  0.0545  0.9782
 7423TIP3    H243761   2.436   2.623  94.571 -0.9190  1.1096  1.3400
 7424TIP3   OH243762   2.247   0.746 111.991  0.4622  0.2136  0.2032
 7424TIP3    H143763   2.291   0.821 112.031  3.2556 -1.4883  0.5963
 7424TIP3    H243764   2.315   0.678 111.985 -1.3937 -1.6466 -1.9640
 7425TIP3   OH243765   0.861   0.171 107.496  0.5077 -0.0944 -0.1649
 7425TIP3    H143766   0.856   0.182 107.591  0.5490 -1.1875 -0.0315
 7425TIP3    H243767   0.782   0.121 107.474  1.2723 -1.1777 -0.5021
 7426TIP3   OH243768   0.964   0.495  27.370 -0.0740 -0.2932  0.2328
 7426TIP3    H143769   0.883   0.506  27.420 -1.7254 -0.9389 -2.1508
 7426TIP3    H243770   0.936   0.470  27.282  2.6853  0.6921 -1.0614
 7427TIP3   OH243771   0.030   0.492 107.793  0.2761 -0.6718  0.6884
 7427TIP3    H143772  -0.004   0.406 107.766 -3.4779  0.9277 -0.2659
 7427TIP3    H243773   0.018   0.493 107.888  0.7017 -1.3269  0.7583
 7428TIP3   OH243774   0.096   2.648  28.969  0.7083  0.1726 -0.4928
 7428TIP3    H143775   0.141   2.724  29.004  0.5316  1.5035 -2.9554
 7428TIP3    H243776   0.003   2.672  28.971  0.4303 -0.8860  0.7014
 7429TIP3   OH243777   0.667   0.177 103.169  0.4537 -0.2954 -0.7034
 7429TIP3    H143778   0.580   0.149 103.197  0.3440  1.1818  0.5763
 7429TIP3    H243779   0.668   0.161 103.074 -1.0053 -0.8471 -0.6493
 7430TIP3   OH243780   1.852   2.047  48.131  0.0370  0.5842  1.2650
 7430TIP3    H143781   1.919   1.984  48.157 -2.8334 -2.8951  1.0938
 7430TIP3    H243782   1.827   2.019  48.042 -1.4282  1.9356  1.2156
 7431TIP3   OH243783   1.366   0.201   1.390 -0.0244 -0.3508  0.3084
 7431TIP3    H143784   1.315   0.209   1.470  1.0022  0.1471  0.9312
 7431TIP3    H243785   1.303   0.213   1.320 -1.2566 -2.3466  0.9760
 7432TIP3   OH243786   2.490   2.653  29.067 -0.5394  0.0578 -0.1469
 7432TIP3    H143787   2.445   2.627  29.147 -0.5015  0.3696 -0.0207
 7432TIP3    H243788   2.524   2.741  29.087 -0.3827  0.0639 -0.4451
 7433TIP3   OH243789   1.939   2.491 104.387 -0.0821  0.1257 -0.1037
 7433TIP3    H143790   1.946   2.459 104.477 -2.4743  0.6330  0.3141
 7433TIP3    H243791   2.030   2.504 104.360  0.7117 -0.2226  2.1579
 7434TIP3   OH243792   1.983   1.460 108.672  0.5792  0.0310  0.1612
 7434TIP3    H143793   1.942   1.447 108.757 -1.5364 -0.4271 -0.8583
 7434TIP3    H243794   2.060   1.403 108.674  0.0560 -0.6763  1.4344
 7435TIP3   OH243795   2.028   2.100  35.531  0.2653  0.4772  0.1663
 7435TIP3    H143796   2.030   2.173  35.593  1.5057  1.5264 -1.0316
 7435TIP3    H243797   2.121   2.077  35.518 -0.0548 -0.7288 -0.1574
 7436TIP3   OH243798   1.820   1.345  33.756  0.2485  0.1640 -0.2153
 7436TIP3    H143799   1.735   1.367  33.792  0.4357  2.4990 -1.0402
 7436TIP3    H243800   1.854   1.276  33.813 -1.9979 -0.5403  0.3493
 7437TIP3   OH243801   2.312   1.684  37.163 -0.4453 -0.0112 -0.0004
 7437TIP3    H143802   2.289   1.670  37.071 -1.7978  0.4105  0.2416
 7437TIP3    H243803   2.249   1.629  37.211  0.4093 -0.4207  0.6778
 7438TIP3   OH243804   0.130   1.399  20.562  0.1020 -0.0003  0.3881
 7438TIP3    H143805   0.197   1.375  20.626  1.2396  1.9858  0.0631
 7438TIP3    H243806   0.141   1.494  20.551  0.2976 -0.2918 -3.0657
 7439TIP3   OH243807   2.598   1.684 109.194  0.9000 -0.1130 -0.4641
 7439TIP3    H143808   2.682   1.718 109.224  1.0333 -0.9021  0.0670
 7439TIP3    H243809   2.570   1.624 109.263  0.6761 -1.0995 -1.3939
 7440TIP3   OH243810   2.512   0.831  94.422 -0.5689 -0.1443 -0.0157
 7440TIP3    H143811   2.498   0.815  94.328 -1.2558 -0.0512  0.0645
 7440TIP3    H243812   2.488   0.922  94.435 -0.3551 -0.1221  0.2345
 7441TIP3   OH243813   2.445   1.044   0.756  0.0961 -0.1373 -0.0682
 7441TIP3    H143814   2.413   1.130   0.729  0.3287  0.2246  0.7594
 7441TIP3    H243815   2.429   0.988   0.681  0.6620  0.8013 -0.9192
 7442TIP3   OH243816   0.548   0.547  73.853 -0.1200  0.1531  0.3556
 7442TIP3    H143817   0.507   0.483  73.912  0.0498  0.9007  1.3225
 7442TIP3    H243818   0.474   0.594  73.814 -0.2244  0.4525  0.8973
 7443TIP3   OH243819   2.415   2.030  16.046  0.3772  0.2107 -0.1959
 7443TIP3    H143820   2.470   2.078  16.108 -0.2169  0.5453  0.0722
 7443TIP3    H243821   2.435   1.938  16.063  0.9700  0.3334 -0.2068
 7444TIP3   OH243822   2.400   0.072  15.148  0.0321 -0.1935  0.4235
 7444TIP3    H143823   2.443   0.082  15.233 -0.2549  0.7785  0.4670
 7444TIP3    H243824   2.329   0.010  15.164  0.6273 -0.8258  0.6475
 7445TIP3   OH243825   0.756   0.589  10.286 -0.6908  0.4608  0.6554
 7445TIP3    H143826   0.688   0.569  10.351 -0.9927  0.4786  0.3460
 7445TIP3    H243827   0.714   0.572  10.202  0.0502 -0.6226  0.4990
 7446TIP3   OH243828   2.667   0.059  79.837 -0.5619  0.6977 -0.0778
 7446TIP3    H143829   2.589   0.104  79.869 -1.6807 -1.6427  0.7783
 7446TIP3    H243830   2.694   0.004  79.911  1.2278  0.5979 -0.7640
 7447TIP3   OH243831   0.125   1.837  19.634 -0.1287  0.4194  0.0384
 7447TIP3    H143832   0.177   1.803  19.561 -1.6705 -0.8957 -0.5006
 7447TIP3    H243833   0.112   1.761  19.691 -1.5788  0.6656  0.0679
 7448TIP3   OH243834   0.735   2.012 107.693  0.3039  0.1699  0.4149
 7448TIP3    H143835   0.739   1.916 107.687 -0.4280  0.0467  1.6963
 7448TIP3    H243836   0.816   2.041 107.650 -0.2231 -0.9229 -1.4478
 7449TIP3   OH243837   0.460   0.226   0.228  0.5196 -0.3839  0.6976
 7449TIP3    H143838   0.394   0.259   0.168  0.5233 -1.3527  0.1382
 7449TIP3    H243839   0.420   0.148   0.268  0.9150 -0.3587  1.1585
 7450TIP3   OH243840   0.553   0.946  13.249  0.2834  0.1456  0.1867
 7450TIP3    H143841   0.558   1.028  13.298  1.5262 -0.4721  1.1625
 7450TIP3    H243842   0.542   0.973  13.158 -0.7651  1.3510  0.6384
 7451TIP3   OH243843   0.359   0.225   6.943 -0.0095 -0.2047 -0.5459
 7451TIP3    H143844   0.400   0.151   6.898  0.6675 -0.3258  0.2504
 7451TIP3    H243845   0.431   0.286   6.958  0.0080 -0.6449  1.3528
 7452TIP3   OH243846   2.503   0.219  75.338 -0.4693 -0.1046 -0.4700
 7452TIP3    H143847   2.492   0.128  75.366  0.5300 -0.4993 -1.3041
 7452TIP3    H243848   2.418   0.244  75.302 -0.8713 -0.5621  0.1452
 7453TIP3   OH243849   1.088   0.923  14.460  0.0680 -0.6607  0.1930
 7453TIP3    H143850   1.065   0.911  14.368 -0.5230 -1.3206  0.4167
 7453TIP3    H243851   1.075   1.017  14.475  0.2848 -0.5275 -0.4256
 7454TIP3   OH243852   1.212   1.785  15.596  0.5513 -0.5924  0.0882
 7454TIP3    H143853   1.173   1.869  15.621  1.2102 -0.3343  0.2597
 7454TIP3    H243854   1.140   1.737  15.556  0.1987  0.1089 -0.1400
 7455TIP3   OH243855   1.530   0.895  86.509  0.5981  0.6369  0.3685
 7455TIP3    H143856   1.599   0.847  86.461  0.0602  0.0646  0.1537
 7455TIP3    H243857   1.452   0.883  86.456  0.3089  1.2028  0.6670
 7456TIP3   OH243858   1.282   2.517  16.197  0.2544 -0.1435 -0.2503
 7456TIP3    H143859   1.266   2.436  16.149 -1.0339  0.6753 -1.2793
 7456TIP3    H243860   1.377   2.529  16.192  0.3056 -0.8204 -1.3875
 7457TIP3   OH243861   0.782   1.161  21.415 -0.1169 -0.1662 -0.2560
 7457TIP3    H143862   0.838   1.237  21.399  0.3996 -0.5135 -0.0881
 7457TIP3    H243863   0.693   1.198  21.420  0.1451  0.4461 -0.0497
 7458TIP3   OH243864   1.686   2.481   1.516 -0.3154  0.0106  0.2676
 7458TIP3    H143865   1.646   2.438   1.441  0.5953  0.9233 -0.7744
 7458TIP3    H243866   1.781   2.476   1.500  0.0181 -1.2906  2.2174
 7459TIP3   OH243867   0.980   1.429  21.664  0.9759 -0.4186  0.5735
 7459TIP3    H143868   1.067   1.392  21.680  1.0504  0.0514  1.2917
 7459TIP3    H243869   0.986   1.519  21.694  0.4586 -0.1512 -0.1004
 7460TIP3   OH243870   0.939   2.464  51.954 -0.1626 -0.1083 -0.6803
 7460TIP3    H143871   0.987   2.404  52.011 -1.3537 -1.0866 -0.6723
 7460TIP3    H243872   0.858   2.483  52.001 -0.0061  1.1673 -0.8832
 7461TIP3   OH243873   1.238   1.170  75.437  0.4506  1.0407  0.1273
 7461TIP3    H143874   1.179   1.098  75.457  0.7995  1.0515  1.2541
 7461TIP3    H243875   1.181   1.239  75.403 -0.2893  1.2519  1.7127
 7462TIP3   OH243876   1.294   0.320  17.785 -0.1166  0.0112  0.2400
 7462TIP3    H143877   1.255   0.331  17.698  0.6838  0.4318 -0.0837
 7462TIP3    H243878   1.300   0.409  17.820 -0.0686 -0.1161  0.5632
 7463TIP3   OH243879   0.605   1.189  16.855 -0.0414  0.4403  0.2023
 7463TIP3    H143880   0.687   1.211  16.900 -0.0495  2.4437 -0.6712
 7463TIP3    H243881   0.562   1.127  16.914  1.1585  0.9274  1.6677
 7464TIP3   OH243882   0.485   2.538  36.143  0.1029 -0.2395  0.5179
 7464TIP3    H143883   0.428   2.535  36.066  0.4643  1.6268  0.1133
 7464TIP3    H243884   0.532   2.455  36.141 -0.4282 -0.5397 -0.8614
 7465TIP3   OH243885   0.872   1.781   5.859  0.0726  0.2310 -0.2806
 7465TIP3    H143886   0.895   1.706   5.804 -0.3702 -0.3856  0.3647
 7465TIP3    H243887   0.934   1.850   5.833  1.6792 -0.9094  0.3978
 7466TIP3   OH243888   1.794   1.980   3.983  0.0726 -0.2954 -0.0409
 7466TIP3    H143889   1.844   1.931   4.049  1.7400  1.5303  0.1369
 7466TIP3    H243890   1.837   1.958   3.900  0.5503  0.4899 -0.0106
 7467TIP3   OH243891   0.668   2.219  88.821  0.2252 -0.0556  0.2351
 7467TIP3    H143892   0.582   2.261  88.829 -0.1717 -0.7920 -0.1164
 7467TIP3    H243893   0.701   2.247  88.735 -0.2046 -0.7621 -0.1598
 7468TIP3   OH243894   2.618   1.086 108.988  0.2623 -0.1950 -0.1976
 7468TIP3    H143895   2.642   1.024 108.919  1.2418 -0.1898  0.1138
 7468TIP3    H243896   2.668   1.056 109.065 -0.1389  0.3072  0.2740
 7469TIP3   OH243897   0.274   1.282  88.584 -0.7125  0.1298 -0.4241
 7469TIP3    H143898   0.222   1.214  88.542 -1.7857  0.8349 -0.2760
 7469TIP3    H243899   0.212   1.328  88.640  0.6006 -0.5740  1.7234
 7470TIP3   OH243900   1.020   0.528 109.600  0.1673  0.0391 -0.6295
 7470TIP3    H143901   0.976   0.454 109.642  0.8908  0.2258  0.4752
 7470TIP3    H243902   1.008   0.601 109.661 -0.1897  0.7438 -1.5137
 7471TIP3   OH243903   1.581   2.575  30.963  0.5340  0.2197 -0.0378
 7471TIP3    H143904   1.589   2.550  31.055  1.3284  2.7183  0.6604
 7471TIP3    H243905   1.630   2.508  30.916  0.7567 -0.6914  1.4164
 7472TIP3   OH243906   0.969   2.196   3.150  0.3641 -0.0385 -0.0771
 7472TIP3    H143907   1.050   2.195   3.099  1.6465  1.6217  1.8132
 7472TIP3    H243908   0.920   2.271   3.116  0.7133  0.3907  0.3523
 7473TIP3   OH243909   0.265   2.163  98.776  0.2091 -0.2598  0.2410
 7473TIP3    H143910   0.226   2.237  98.731 -1.0007 -1.4712 -0.7786
 7473TIP3    H243911   0.252   2.089  98.717  3.3381 -0.9339  0.2157
 7474TIP3   OH243912   1.889   1.779  30.830  0.2650 -0.0160 -0.8096
 7474TIP3    H143913   1.937   1.699  30.810 -1.0086 -1.9140  2.8130
 7474TIP3    H243914   1.797   1.752  30.836 -0.2470  1.7520  0.1695
 7475TIP3   OH243915   1.834   0.547  86.467 -0.2162  0.0741 -0.1312
 7475TIP3    H143916   1.816   0.582  86.555 -0.5591  0.1257 -0.2244
 7475TIP3    H243917   1.895   0.475  86.483  1.6645  1.6074 -0.0705
 7476TIP3   OH243918   2.440   0.962 108.223 -0.3398 -0.7546 -0.4375
 7476TIP3    H143919   2.389   0.999 108.295  0.5863 -0.0374 -0.1279
 7476TIP3    H243920   2.435   0.867 108.237 -0.6367 -0.6429  0.2455
 7477TIP3   OH243921   1.147   1.766   5.109 -0.0869 -0.3010 -0.4405
 7477TIP3    H143922   1.102   1.736   5.030  0.9157 -1.0619 -0.7482
 7477TIP3    H243923   1.233   1.724   5.105 -0.8532 -2.4609  2.3134
 7478TIP3   OH243924   2.535   1.631   7.286  0.0136 -0.0774 -0.5715
 7478TIP3    H143925   2.539   1.636   7.382 -2.6337 -1.0797 -0.3043
 7478TIP3    H243926   2.511   1.720   7.259 -0.2371 -0.0199 -0.1792
 7479TIP3   OH243927   2.073   2.106  14.901  0.2971 -0.2187 -0.0554
 7479TIP3    H143928   2.065   2.109  14.996  2.0091 -0.2478  0.1221
 7479TIP3    H243929   2.015   2.035  14.874  0.4673 -0.7872  1.0428
 7480TIP3   OH243930   0.544   2.477 104.323  0.6419 -0.4622  0.0011
 7480TIP3    H143931   0.623   2.531 104.328 -0.3891  1.0683  0.2089
 7480TIP3    H243932   0.483   2.527 104.270 -0.8658 -0.7276  1.4076
 7481TIP3   OH243933   2.270   1.030 105.271 -0.1145  0.0149 -0.1667
 7481TIP3    H143934   2.240   0.946 105.304  0.7319 -0.6100 -0.9452
 7481TIP3    H243935   2.191   1.085 105.269 -1.1595 -1.4518 -1.7954
 7482TIP3   OH243936   2.172   0.658   9.856  0.6574 -0.3957 -0.3115
 7482TIP3    H143937   2.219   0.625   9.779  1.0804 -1.0261  0.2112
 7482TIP3    H243938   2.198   0.750   9.862  0.7070 -0.3700 -0.8554
 7483TIP3   OH243939   0.915   1.800 107.948 -0.3503  0.2035 -0.0379
 7483TIP3    H143940   0.896   1.751 108.028 -1.3773  1.1103  0.2989
 7483TIP3    H243941   0.949   1.734 107.887  1.3215 -0.3559  1.4015
 7484TIP3   OH243942   1.761   0.468 111.936 -0.2690  0.5559 -0.0846
 7484TIP3    H143943   1.818   0.436 111.866  0.8291 -0.8672  1.3801
 7484TIP3    H243944   1.820   0.515 111.995 -0.3071 -1.7546  1.9656
 7485TIP3   OH243945   0.807   0.590  15.067  0.2868 -0.3615  0.4885
 7485TIP3    H143946   0.782   0.607  14.976 -1.5773 -2.2540  0.5794
 7485TIP3    H243947   0.784   0.670  15.113  0.0221  0.1445 -0.4912
 7486TIP3   OH243948   2.612   2.389  37.511 -0.3825 -0.1905  0.2930
 7486TIP3    H143949   2.557   2.466  37.496  0.9737  0.4743 -1.6145
 7486TIP3    H243950   2.573   2.321  37.456  0.7766  0.3626 -1.2893
 7487TIP3   OH243951   0.439   2.671  75.566  0.1418  0.2552 -0.1356
 7487TIP3    H143952   0.524   2.628  75.572 -0.3321 -0.5303  2.0143
 7487TIP3    H243953   0.405   2.669  75.655 -1.2174  2.5034 -0.5131
 7488TIP3   OH243954   0.958   2.551  97.978  0.2773  0.7084  0.2775
 7488TIP3    H143955   0.893   2.481  97.991  1.2948 -0.2858  0.1400
 7488TIP3    H243956   0.977   2.582  98.066  0.5124  0.1609  0.4229
 7489TIP3   OH243957   2.095   0.775 102.756  0.7282 -0.3965 -0.4769
 7489TIP3    H143958   2.031   0.707 102.739 -0.6581  0.7798 -0.2088
 7489TIP3    H243959   2.076   0.805 102.845 -0.3921  2.0044 -1.4175
 7490TIP3   OH243960   0.633   0.021  30.674 -0.8843  0.3025 -0.3250
 7490TIP3    H143961   0.697  -0.050  30.681  0.2563  1.2750 -0.6438
 7490TIP3    H243962   0.567  -0.012  30.612 -0.1837 -0.3362 -0.7431
 7491TIP3   OH243963   0.775   2.147  85.979 -0.1885  0.3348  0.5005
 7491TIP3    H143964   0.857   2.097  85.977  1.2663  2.5274  1.5528
 7491TIP3    H243965   0.728   2.119  85.900  3.5742  2.1376 -2.7443
 7492TIP3   OH243966   0.037   1.805  20.732  0.3851 -0.0641  0.5029
 7492TIP3    H143967   0.006   1.719  20.761 -0.5264  0.2212  0.4251
 7492TIP3    H243968  -0.037   1.863  20.750  0.5800  0.4926 -0.4821
 7493TIP3   OH243969   1.153   0.908  98.143  0.3065 -0.0510  0.1715
 7493TIP3    H143970   1.185   0.881  98.057 -2.8821 -0.3194 -1.0589
 7493TIP3    H243971   1.102   0.834  98.174 -1.5565  1.3468  0.6235
 7494TIP3   OH243972   0.992   1.489   1.212 -0.1518  0.0167  0.1145
 7494TIP3    H143973   1.084   1.486   1.239 -0.2971  1.4423  0.8550
 7494TIP3    H243974   0.945   1.513   1.292 -0.9386  1.3204 -0.7019
 7495TIP3   OH243975   0.280   0.057  81.268 -0.7711 -0.4427 -0.2303
 7495TIP3    H143976   0.243  -0.010  81.326  2.1725 -2.2629 -0.2296
 7495TIP3    H243977   0.261   0.025  81.180 -0.5396 -0.5498 -0.2402
 7496TIP3   OH243978   2.401   2.564  83.840 -0.2998 -0.5378 -0.3634
 7496TIP3    H143979   2.317   2.522  83.824 -0.6849  1.0923 -3.3845
 7496TIP3    H243980   2.378   2.651  83.872  0.3381 -0.7954  0.8333
 7497TIP3   OH243981   2.488   0.840  86.042  0.8350  0.1269  0.4526
 7497TIP3    H143982   2.426   0.901  86.083  1.5811  0.5944  0.9252
 7497TIP3    H243983   2.434   0.768  86.010  0.0501  0.5322  0.8379
 7498TIP3   OH243984   0.363   1.444   0.018  0.3026  0.2963 -0.0068
 7498TIP3    H143985   0.341   1.511   0.083  0.2443  0.0619  0.2213
 7498TIP3    H243986   0.457   1.455   0.003  0.5839 -0.4222  1.0370
 7499TIP3   OH243987   0.074   1.653  23.168  0.1646 -0.3621 -0.3326
 7499TIP3    H143988   0.020   1.645  23.089 -0.0101 -0.3675 -0.2121
 7499TIP3    H243989   0.014   1.682  23.236  0.3757 -0.0592 -0.2702
 7500TIP3   OH243990   2.186   1.196   3.043 -0.2324  0.1924 -0.0906
 7500TIP3    H143991   2.198   1.132   2.973 -0.6958  1.8119 -1.7396
 7500TIP3    H243992   2.272   1.237   3.053 -0.5742  1.2055 -1.0464
 7501TIP3   OH243993   1.497   1.941  85.231  0.3328  0.5848 -0.0113
 7501TIP3    H143994   1.438   2.011  85.201  0.5233 -0.7730 -4.1766
 7501TIP3    H243995   1.458   1.861  85.197  2.3834 -0.8649  0.8699
 7502TIP3   OH243996   2.391   0.433   0.416 -0.0804  0.5187 -0.4279
 7502TIP3    H143997   2.465   0.478   0.374  0.0704  2.6717  1.8978
 7502TIP3    H243998   2.429   0.352   0.450  1.6917  2.1545  1.8527
 7503TIP3   OH243999   2.307   1.953  84.745  0.0847 -0.3933  0.3373
 7503TIP3    H144000   2.268   1.867  84.731 -2.1031  0.5766  0.1567
 7503TIP3    H244001   2.256   1.993  84.815  0.2021  1.2469 -0.4441
 7504TIP3   OH244002   0.915   0.417   7.863  0.0355 -0.3081 -0.0436
 7504TIP3    H144003   0.908   0.402   7.957 -0.7656  0.9496  0.1111
 7504TIP3    H244004   0.826   0.435   7.834  0.4098  0.3176 -0.8611
 7505TIP3   OH244005   0.297   0.165   9.719  0.5929 -0.6564  0.0989
 7505TIP3    H144006   0.249   0.202   9.793  0.3274 -0.2435 -0.2794
 7505TIP3    H244007   0.376   0.218   9.712  0.2846 -0.2521 -0.3485
 7506TIP3   OH244008   1.104   0.320  18.841  0.3333 -0.1599 -0.1621
 7506TIP3    H144009   1.054   0.401  18.835  0.9209  0.3556  1.2999
 7506TIP3    H244010   1.089   0.276  18.758 -1.7017  0.4566 -0.1656
 7507TIP3   OH244011   0.333   0.829   3.297 -0.2404 -0.1717 -0.0935
 7507TIP3    H144012   0.279   0.823   3.217 -1.1636 -0.6519  0.5445
 7507TIP3    H244013   0.386   0.750   3.295  0.8092  0.5290 -0.9630
 7508TIP3   OH244014   2.159   2.227  79.307  0.3279 -0.4156 -0.2422
 7508TIP3    H144015   2.218   2.277  79.250  0.8350 -1.4855 -0.6726
 7508TIP3    H244016   2.145   2.284  79.383  1.6255 -0.0031 -0.2978
 7509TIP3   OH244017   1.956   1.658  91.789 -0.1882  0.5107 -0.5293
 7509TIP3    H144018   1.971   1.743  91.746 -0.3104  0.8304  0.0586
 7509TIP3    H244019   1.930   1.600  91.717 -0.1935  0.9885 -0.9212
 7510TIP3   OH244020   1.266   0.225  86.379  0.2443  0.1760  0.5158
 7510TIP3    H144021   1.242   0.317  86.388  1.8613  0.9094 -1.6585
 7510TIP3    H244022   1.211   0.192  86.308 -0.1532 -0.4896  1.1160
 7511TIP3   OH244023   1.134   1.026  35.051  0.4714 -0.0902  0.1221
 7511TIP3    H144024   1.140   0.985  35.138 -1.1993 -0.2723  0.1888
 7511TIP3    H244025   1.097   0.958  34.995  1.5080  0.0374 -0.7487
 7512TIP3   OH244026   2.206   0.400  36.995 -0.0058 -0.4773 -1.0142
 7512TIP3    H144027   2.253   0.351  37.062 -0.1962  0.0630 -0.4839
 7512TIP3    H244028   2.117   0.363  36.997 -0.2356  0.1011 -0.3948
 7513TIP3   OH244029   2.141   0.585  91.294  0.1653 -0.6718  0.3523
 7513TIP3    H144030   2.183   0.640  91.228 -0.3254  0.7120  1.1409
 7513TIP3    H244031   2.185   0.609  91.376 -2.6032  1.4756  1.3687
 7514TIP3   OH244032   2.477   1.011   8.105  0.3152  0.4937 -0.5594
 7514TIP3    H144033   2.511   0.960   8.178  0.1996 -1.0820 -1.5604
 7514TIP3    H244034   2.470   1.101   8.139 -0.7480 -0.3642  1.6957
 7515TIP3   OH244035   2.350   0.295  36.782 -0.0519  0.8862  0.0345
 7515TIP3    H144036   2.310   0.362  36.837 -0.1242  1.5154 -0.7596
 7515TIP3    H244037   2.287   0.223  36.782 -0.1326  0.9535  0.6214
 7516TIP3   OH244038   1.217   0.376  91.862 -0.3117  0.1041  0.4583
 7516TIP3    H144039   1.213   0.472  91.855  0.0126  0.1213  0.4648
 7516TIP3    H244040   1.189   0.358  91.952  1.0810  0.3179  0.9661
 7517TIP3   OH244041   1.733   1.264  16.095  0.2862 -0.3586 -0.2510
 7517TIP3    H144042   1.713   1.258  16.002 -1.7992 -1.2352  0.2113
 7517TIP3    H244043   1.776   1.181  16.116  1.0232 -0.0397 -0.4789
 7518TIP3   OH244044   2.007   2.565  94.938  0.6315 -0.0538  0.4221
 7518TIP3    H144045   2.071   2.499  94.911  0.4248 -0.3099  0.5557
 7518TIP3    H244046   1.982   2.540  95.027  1.1782  0.6875  0.7940
 7519TIP3   OH244047   2.407   0.364  94.278 -0.0614 -0.3229  0.6142
 7519TIP3    H144048   2.324   0.410  94.291 -0.6683 -1.2739  0.2722
 7519TIP3    H244049   2.439   0.395  94.193 -0.2419 -0.1970  0.5959
 7520TIP3   OH244050   1.744   0.284  81.294  0.2841 -0.1513 -0.8260
 7520TIP3    H144051   1.778   0.264  81.382  1.4394  1.7101 -0.7804
 7520TIP3    H244052   1.652   0.260  81.297  0.5976 -1.3281  0.4720
 7521TIP3   OH244053   0.664   1.017  34.202  0.2721 -0.0011 -0.0693
 7521TIP3    H144054   0.666   0.947  34.136 -0.7911  0.4149 -0.5678
 7521TIP3    H244055   0.658   1.098  34.150  1.9135  0.5194  0.4809
 7522TIP3   OH244056   1.362   0.001   6.855  0.3694 -0.1360 -0.0760
 7522TIP3    H144057   1.424  -0.053   6.806 -0.1251 -0.5539 -0.2378
 7522TIP3    H244058   1.278  -0.043   6.846 -0.0389  0.6544 -0.1996
 7523TIP3   OH244059   1.830   0.617   7.040 -0.2467  0.0883  0.1035
 7523TIP3    H144060   1.805   0.705   7.067 -0.0973  0.3179 -0.4851
 7523TIP3    H244061   1.751   0.565   7.050 -0.2851  0.2429  0.6328
 7524TIP3   OH244062   0.334   1.389  96.588 -0.0307 -0.1701 -0.6152
 7524TIP3    H144063   0.354   1.474  96.548 -0.8108  0.0805 -0.4918
 7524TIP3    H244064   0.417   1.343  96.590  1.1926  1.8291  2.2995
 7525TIP3   OH244065   2.506   0.721  36.565 -0.3040  0.2922  0.1045
 7525TIP3    H144066   2.498   0.629  36.541 -2.7873  0.0195  1.6261
 7525TIP3    H244067   2.431   0.763  36.525  0.0578  1.3840  0.5389
 7526TIP3   OH244068   1.131   1.024 100.881  0.3180  0.2384 -0.1121
 7526TIP3    H144069   1.087   0.944 100.853 -0.5221  0.2644  1.0359
 7526TIP3    H244070   1.101   1.037 100.971 -0.4161  2.4108 -0.5988
 7527TIP3   OH244071   1.020   1.946  87.426 -0.2351  0.1780  0.0618
 7527TIP3    H144072   0.978   1.976  87.346  1.0614 -0.4588 -0.9193
 7527TIP3    H244073   1.082   1.879  87.396 -0.0694 -0.4311  1.6634
 7528TIP3   OH244074   1.636   0.097  15.440  0.1703  0.1285  0.4492
 7528TIP3    H144075   1.588   0.095  15.523  1.6032 -1.1518  1.3106
 7528TIP3    H244076   1.613   0.015  15.397 -0.1837  0.5659 -0.2075
 7529TIP3   OH244077   2.042   1.374  19.829 -0.2256  0.2135 -0.6534
 7529TIP3    H144078   2.030   1.468  19.837 -1.6279  0.2065 -2.1352
 7529TIP3    H244079   2.012   1.353  19.741  0.3562 -1.5834 -0.4741
 7530TIP3   OH244080   1.489   0.664  74.988 -0.4920  0.1943 -0.6289
 7530TIP3    H144081   1.425   0.624  74.930  0.2908 -0.5227 -1.0130
 7530TIP3    H244082   1.574   0.641  74.950  0.0273 -0.0679  0.6539
 7531TIP3   OH244083   2.130   1.017 108.911 -0.0064  0.7294 -0.1668
 7531TIP3    H144084   2.102   1.094 108.961 -0.1211  1.4242 -1.2712
 7531TIP3    H244085   2.212   1.043 108.870  0.1950  0.0925 -0.1905
 7532TIP3   OH244086   0.472   1.658  11.040 -0.1567  0.0519  0.2015
 7532TIP3    H144087   0.483   1.573  10.997  1.6398  0.1688  0.3709
 7532TIP3    H244088   0.410   1.641  11.111  0.6205 -1.2609  0.5902
 7533TIP3   OH244089   1.487   1.386 111.689 -0.1052  0.8723  0.3171
 7533TIP3    H144090   1.457   1.460 111.636 -0.8665  0.7580  0.5782
 7533TIP3    H244091   1.546   1.338 111.631 -0.9671  0.7229 -0.4653
 7534TIP3   OH244092   2.479   2.186  18.668 -0.0617  0.0486 -0.0327
 7534TIP3    H144093   2.535   2.108  18.671 -0.8306 -0.5026  1.1220
 7534TIP3    H244094   2.538   2.258  18.650  0.9657 -0.5664  0.7685
 7535TIP3   OH244095   2.348   2.207  78.579 -0.1946  0.4023 -0.0581
 7535TIP3    H144096   2.427   2.188  78.529  1.2881  2.3525  1.3964
 7535TIP3    H244097   2.356   2.153  78.658  0.4430  1.6609  0.7594
 7536TIP3   OH244098   0.436   0.821  89.474  0.1548 -0.3122 -0.5664
 7536TIP3    H144099   0.473   0.909  89.476  2.1102 -0.9951 -2.3419
 7536TIP3    H244100   0.406   0.809  89.384 -2.0131 -0.7734  0.1575
 7537TIP3   OH244101   2.298   2.018   5.026  0.3998 -0.1292 -0.0887
 7537TIP3    H144102   2.216   2.024   4.976  0.3714  0.7819  0.0524
 7537TIP3    H244103   2.273   2.043   5.115  0.7147 -0.4676  0.0963
 7538TIP3   OH244104   1.591   0.428  14.277 -0.8083  0.8770 -0.5972
 7538TIP3    H144105   1.671   0.451  14.229 -0.1833 -0.3049 -0.1679
 7538TIP3    H244106   1.524   0.420  14.209 -0.0516 -0.2848 -1.2394
 7539TIP3   OH244107   0.926   0.968  73.818 -0.0843  0.1682 -0.0379
 7539TIP3    H144108   0.934   0.893  73.878  0.3674 -1.2878 -1.8185
 7539TIP3    H244109   1.016   0.995  73.801  0.1648 -2.0568 -3.0784
 7540TIP3   OH244110   1.235   1.472   3.070  0.0666  0.4274 -0.1769
 7540TIP3    H144111   1.150   1.505   3.097 -0.3260 -1.5916  1.3208
 7540TIP3    H244112   1.274   1.437   3.151  1.0873 -1.2284 -1.3248
 7541TIP3   OH244113   0.488   1.134 112.186 -0.1068  0.3061  0.1853
 7541TIP3    H144114   0.440   1.106 112.264 -1.0792 -1.2686 -0.9291
 7541TIP3    H244115   0.574   1.094 112.195 -0.9242 -1.7497 -0.5527
 7542TIP3   OH244116   2.101   1.583 108.250 -0.2722  0.3640 -0.5402
 7542TIP3    H144117   2.189   1.608 108.275 -0.1939  0.2489 -0.6960
 7542TIP3    H244118   2.044   1.623 108.317 -0.2600  2.0149 -1.4885
 7543TIP3   OH244119   1.299   1.772  13.157 -0.0545  0.8126 -0.4568
 7543TIP3    H144120   1.316   1.748  13.248 -0.3690 -1.5368 -0.9508
 7543TIP3    H244121   1.212   1.813  13.158  0.2211  1.4071  0.3611
 7544TIP3   OH244122   0.658   1.429  94.760 -0.6048  0.6527 -0.3144
 7544TIP3    H144123   0.733   1.459  94.812 -0.5231 -1.1287  0.6575
 7544TIP3    H244124   0.582   1.446  94.815 -0.5611 -0.7920  0.2356
 7545TIP3   OH244125   2.241   0.059  86.725  0.7457 -0.1497  0.2244
 7545TIP3    H144126   2.189   0.010  86.661  1.9090 -1.2942  0.1113
 7545TIP3    H244127   2.194   0.050  86.807  0.2802 -0.3805 -0.0679
 7546TIP3   OH244128   0.218   1.630  14.893 -0.1160  0.4123  0.1427
 7546TIP3    H144129   0.196   1.609  14.984 -0.7312 -0.3166 -0.1546
 7546TIP3    H244130   0.231   1.545  14.852  1.4421  0.7811 -0.1596
 7547TIP3   OH244131   0.698   2.062  73.191  0.2699  0.5587 -0.3433
 7547TIP3    H144132   0.650   2.145  73.197 -0.7540 -0.0637  0.3750
 7547TIP3    H244133   0.768   2.069  73.256  0.0194  0.7530 -0.0926
 7548TIP3   OH244134   0.451   1.690 105.925 -0.3883  0.3841 -0.0114
 7548TIP3    H144135   0.390   1.673 105.852  0.5977  0.8219 -0.9668
 7548TIP3    H244136   0.536   1.661 105.892  0.2631  1.5675  0.5709
 7549TIP3   OH244137   0.527   1.630  15.507 -0.5977 -0.3585  0.1435
 7549TIP3    H144138   0.456   1.647  15.445 -1.3064 -1.3827  0.6452
 7549TIP3    H244139   0.518   1.700  15.573  0.6212  1.1814 -1.2443
 7550TIP3   OH244140   1.071   2.414  29.212 -0.0671 -0.6665 -0.4032
 7550TIP3    H144141   1.045   2.329  29.177 -3.0276  0.8161 -2.2251
 7550TIP3    H244142   0.991   2.468  29.206  1.3308  1.8952  1.8228
 7551TIP3   OH244143   1.540   0.004  48.118  0.4918  1.0599  0.0179
 7551TIP3    H144144   1.476   0.066  48.084  0.7612  0.6769 -1.2485
 7551TIP3    H244145   1.489  -0.072  48.146  0.4225  0.3269 -1.9464
 7552TIP3   OH244146   2.651   0.274  12.024 -0.1910 -0.7763 -0.3058
 7552TIP3    H144147   2.584   0.267  12.092 -1.3570  1.1037 -1.1856
 7552TIP3    H244148   2.623   0.213  11.956 -0.5737 -0.5719 -0.3295
 7553TIP3   OH244149   0.707   1.334  28.596  0.1054  0.3647  0.0058
 7553TIP3    H144150   0.768   1.262  28.607 -1.4987 -1.3923 -1.9162
 7553TIP3    H244151   0.651   1.330  28.674  1.4037  1.0360  1.0183
 7554TIP3   OH244152   1.491   0.073  15.665 -0.6669 -0.0018  0.0657
 7554TIP3    H144153   1.483   0.015  15.741  1.3978  0.8158  0.9755
 7554TIP3    H244154   1.405   0.114  15.656 -0.6116  0.9053  2.8448
 7555TIP3   OH244155   0.120   1.337   9.329  0.2294  0.1363 -0.4213
 7555TIP3    H144156   0.143   1.259   9.278  0.9849  0.0671  0.0113
 7555TIP3    H244157   0.026   1.348   9.315  0.0404 -1.0690 -0.1837
 7556TIP3   OH244158   0.910   1.576  37.462  0.4589  0.1582  0.5431
 7556TIP3    H144159   0.850   1.645  37.434 -0.1834  0.5128  2.6218
 7556TIP3    H244160   0.966   1.617  37.528  1.2012 -0.8729  0.5900
 7557TIP3   OH244161   2.450   0.108  27.989 -0.0596  0.3624 -0.1644
 7557TIP3    H144162   2.362   0.094  28.025  0.1663  1.1741  0.7271
 7557TIP3    H244163   2.507   0.115  28.066  0.0766  4.7919 -0.4179
 7558TIP3   OH244164   1.212   0.174   2.357 -0.3209  0.3953 -0.1477
 7558TIP3    H144165   1.216   0.112   2.430  0.5446 -2.0589 -2.1499
 7558TIP3    H244166   1.129   0.154   2.313 -0.3279  1.0943 -0.4611
 7559TIP3   OH244167   1.464   1.450  24.787 -0.2915  0.2485  0.0346
 7559TIP3    H144168   1.462   1.412  24.699 -0.9951  2.5522 -1.0366
 7559TIP3    H244169   1.386   1.506  24.790  0.5471  1.4012  1.5480
 7560TIP3   OH244170   1.858   2.087 110.592 -0.3328 -0.5176 -0.0557
 7560TIP3    H144171   1.805   2.021 110.637 -2.3647  1.1662  0.1544
 7560TIP3    H244172   1.819   2.095 110.505 -0.9923  1.3231  0.3718
 7561TIP3   OH244173   0.149   1.061  95.650 -0.0326  0.0222 -0.0083
 7561TIP3    H144174   0.148   1.153  95.674  0.4375 -0.2549  1.1596
 7561TIP3    H244175   0.188   1.059  95.563 -0.7850  0.9867 -0.3820
 7562TIP3   OH244176   0.476   0.457 111.198 -0.3145  0.0527  0.4068
 7562TIP3    H144177   0.410   0.488 111.259 -1.0466 -0.0552 -0.3146
 7562TIP3    H244178   0.437   0.468 111.112  1.3036  1.7241 -0.1817
 7563TIP3   OH244179   0.310   1.267  95.164  0.6436  0.6715  0.2369
 7563TIP3    H144180   0.259   1.324  95.222  0.6840 -0.3952  1.3672
 7563TIP3    H244181   0.401   1.291  95.182  0.7770 -1.0047  2.1729
 7564TIP3   OH244182   2.606   1.240  84.515  0.2627  0.3756 -0.4366
 7564TIP3    H144183   2.530   1.185  84.534  0.1098  1.1166  1.3820
 7564TIP3    H244184   2.571   1.313  84.464 -0.4308  1.0763  0.9881
 7565TIP3   OH244185   0.052   1.312  21.012  0.4386  0.0310 -0.1824
 7565TIP3    H144186   0.005   1.228  21.014  2.4060 -1.1216 -0.1985
 7565TIP3    H244187   0.069   1.333  21.104  0.1793  0.3007 -0.1910
 7566TIP3   OH244188   1.497   1.485  80.359 -0.4802 -0.1750 -0.1489
 7566TIP3    H144189   1.452   1.506  80.277 -0.5146  1.8732  0.3291
 7566TIP3    H244190   1.427   1.467  80.421 -0.4457 -2.3046 -0.6410
 7567TIP3   OH244191   1.186   0.007  90.222 -0.2556  0.0547  0.6316
 7567TIP3    H144192   1.280   0.008  90.241 -0.0504  0.7484 -0.3601
 7567TIP3    H244193   1.172  -0.075  90.174 -0.7574 -1.6525  3.4659
 7568TIP3   OH244194   0.508   1.316   2.707  0.0376 -0.1109  0.1416
 7568TIP3    H144195   0.461   1.362   2.777  0.2614  0.4516 -0.0667
 7568TIP3    H244196   0.491   1.370   2.629  0.2084 -0.4536 -0.1314
 7569TIP3   OH244197   0.963   2.140  80.458  0.8065 -0.3568  0.3289
 7569TIP3    H144198   0.987   2.149  80.551 -1.3461  2.5436  0.7457
 7569TIP3    H244199   1.034   2.184  80.411  0.0588  1.6126  0.9544
 7570TIP3   OH244200   0.569   2.615  42.017  0.3198 -0.1532  0.6056
 7570TIP3    H144201   0.582   2.687  41.956 -0.6368 -0.0438  0.5048
 7570TIP3    H244202   0.477   2.591  42.005  0.6994 -1.5782  0.4376
 7571TIP3   OH244203   0.886   1.451  94.901  0.0384 -0.1656 -0.3360
 7571TIP3    H144204   0.882   1.377  94.961  0.7133 -0.0256 -0.1076
 7571TIP3    H244205   0.957   1.506  94.935 -0.1440  0.3523 -0.7653
 7572TIP3   OH244206   1.097   2.062  96.384 -0.2261  0.0246  0.1758
 7572TIP3    H144207   1.166   2.014  96.430  0.1760  0.4694  0.0432
 7572TIP3    H244208   1.026   1.998  96.375  0.4044 -0.6334 -0.2343
 7573TIP3   OH244209   0.322   1.075   0.814 -0.2268 -0.6320 -0.2044
 7573TIP3    H144210   0.326   1.145   0.749 -0.3462 -0.1086  0.3308
 7573TIP3    H244211   0.228   1.066   0.832 -0.3286 -1.9095 -1.2847
 7574TIP3   OH244212   1.706   1.390  19.739 -0.2857 -0.4426 -0.9056
 7574TIP3    H144213   1.793   1.423  19.715 -0.9164  1.1408 -1.1388
 7574TIP3    H244214   1.662   1.376  19.655 -0.6655 -0.0597 -0.7736
 7575TIP3   OH244215   0.799   0.337 106.900  0.0047  0.3464  0.0681
 7575TIP3    H144216   0.750   0.407 106.943  0.4191  0.6477  0.0554
 7575TIP3    H244217   0.755   0.326 106.816  0.9565  1.7750 -0.6647
 7576TIP3   OH244218   1.699   0.784   3.593  0.0991 -0.7574 -0.4337
 7576TIP3    H144219   1.739   0.842   3.657  1.0688 -0.8548 -0.9408
 7576TIP3    H244220   1.675   0.706   3.643  1.0911 -0.9432 -0.2292
 7577TIP3   OH244221   1.795   1.804  23.241 -0.3901 -0.0994  0.3547
 7577TIP3    H144222   1.767   1.805  23.333 -1.0225 -1.3845  0.1913
 7577TIP3    H244223   1.855   1.879  23.234 -1.7945  1.1914  1.3512
 7578TIP3   OH244224   1.210   1.734  89.209 -0.0874 -0.0742  0.7491
 7578TIP3    H144225   1.118   1.715  89.231  0.2038 -0.7912  1.3879
 7578TIP3    H244226   1.247   1.771  89.289  0.5922 -1.3098  1.0342
 7579TIP3   OH244227   1.132   0.507  98.558  0.0725  0.0599  0.6723
 7579TIP3    H144228   1.206   0.459  98.520 -1.0745 -1.3552  0.1368
 7579TIP3    H244229   1.055   0.460  98.529 -1.1416  2.1694  0.2555
 7580TIP3   OH244230   0.378   2.176  96.067 -0.1703  0.1052 -0.6682
 7580TIP3    H144231   0.349   2.087  96.049 -2.3820  0.3758  1.0586
 7580TIP3    H244232   0.323   2.231  96.012 -3.0511  0.6077  2.3657
 7581TIP3   OH244233   0.679   0.667  87.314  0.0134 -0.1143  0.4734
 7581TIP3    H144234   0.695   0.743  87.371  1.1580  0.6850 -0.8683
 7581TIP3    H244235   0.732   0.597  87.352  1.2200  0.5709  0.1010
 7582TIP3   OH244236   0.216   0.390  97.898 -0.1178  0.2022  0.0398
 7582TIP3    H144237   0.276   0.343  97.840  0.0970  0.8376 -0.2671
 7582TIP3    H244238   0.146   0.328  97.917  0.8560 -0.6969  0.7544
 7583TIP3   OH244239   1.200   0.447  32.665  0.4016 -0.1416  0.2486
 7583TIP3    H144240   1.166   0.416  32.749 -2.2819  0.2930 -0.5824
 7583TIP3    H244241   1.245   0.370  32.628  0.3875 -0.7518  1.4497
 7584TIP3   OH244242   1.235   2.194  82.835 -0.9361  0.0100  0.7052
 7584TIP3    H144243   1.184   2.204  82.915 -1.2655 -1.2060  0.6702
 7584TIP3    H244244   1.321   2.163  82.865 -1.5154 -1.8657  0.5224
 7585TIP3   OH244245   0.304   2.145  24.283  0.0242  0.6088 -0.9708
 7585TIP3    H144246   0.253   2.156  24.362  0.9528  1.1284 -0.4338
 7585TIP3    H244247   0.387   2.188  24.301  1.0728 -1.1103 -1.4226
 7586TIP3   OH244248   1.622   2.485  86.726  0.0135  0.0376 -0.0997
 7586TIP3    H144249   1.610   2.491  86.821  0.4492 -0.2923 -0.0233
 7586TIP3    H244250   1.574   2.560  86.691 -0.4781 -0.0616  0.3533
 7587TIP3   OH244251   2.386   0.265  10.239 -0.1751  0.1644 -0.0572
 7587TIP3    H144252   2.389   0.259  10.144  1.3022 -0.8070  0.0044
 7587TIP3    H244253   2.477   0.253  10.267 -0.7707 -1.1437  1.5313
 7588TIP3   OH244254   1.983   2.317 106.204 -0.1631  0.1554  0.4093
 7588TIP3    H144255   2.070   2.347 106.232 -0.0284 -0.9540  1.2097
 7588TIP3    H244256   2.002   2.258 106.130 -0.1553 -0.8243  1.1812
 7589TIP3   OH244257   2.563   0.154  83.690  0.5285  0.1806 -0.1310
 7589TIP3    H144258   2.612   0.231  83.661  0.9333 -1.0219 -2.9732
 7589TIP3    H244259   2.472   0.173  83.664  0.6786 -0.3793 -1.1130
 7590TIP3   OH244260   1.205   0.642  17.318 -0.1451  0.0041 -0.8185
 7590TIP3    H144261   1.160   0.568  17.278  0.4786 -0.3716 -0.8313
 7590TIP3    H244262   1.288   0.648  17.271  0.0441  0.3699 -0.4465
 7591TIP3   OH244263   1.909   2.460  78.824  0.8144 -0.2854  0.3937
 7591TIP3    H144264   1.940   2.433  78.911 -1.1533  0.2965  1.3523
 7591TIP3    H244265   1.851   2.535  78.842 -1.8062 -1.8179 -1.0698
 7592TIP3   OH244266   0.204   1.393   2.154  0.4222  0.0104 -0.2443
 7592TIP3    H144267   0.238   1.333   2.221 -0.2151  0.8090  0.8136
 7592TIP3    H244268   0.143   1.339   2.103  1.4503 -0.7984 -0.6637
 7593TIP3   OH244269   0.419   0.976   2.481  0.3963  0.1170 -0.2507
 7593TIP3    H144270   0.391   1.055   2.435  1.9511  1.6923  1.3254
 7593TIP3    H244271   0.340   0.942   2.522 -0.1354  1.5376 -0.0378
 7594TIP3   OH244272   0.786   2.229   9.406 -0.1379  0.2776 -0.4510
 7594TIP3    H144273   0.698   2.254   9.378 -0.5441  0.1575  0.6774
 7594TIP3    H244274   0.776   2.144   9.448  0.0368  1.3405  1.9531
 7595TIP3   OH244275   1.085   0.613  58.377  0.5683  0.0911 -0.2587
 7595TIP3    H144276   1.067   0.678  58.309 -2.3740  0.8093  1.0483
 7595TIP3    H244277   1.173   0.634  58.408  0.3965  2.3336 -1.0914
 7596TIP3   OH244278   1.495   1.648 108.066  0.0811  0.7440  0.1485
 7596TIP3    H144279   1.434   1.588 108.108  0.7198  0.1541  0.2621
 7596TIP3    H244280   1.448   1.731 108.060 -0.5794  0.4074  0.5941
 7597TIP3   OH244281   1.157   1.511 103.030 -0.2711 -0.6279  0.2414
 7597TIP3    H144282   1.232   1.472 102.985 -0.6478 -1.4297  0.2861
 7597TIP3    H244283   1.086   1.506 102.967 -0.1041  0.8722 -0.0921
 7598TIP3   OH244284   2.541   1.383 100.017 -0.0754  0.1150 -0.5565
 7598TIP3    H144285   2.542   1.474  99.987 -1.2229  0.9799  1.7944
 7598TIP3    H244286   2.507   1.388 100.106  1.6585 -2.4308  0.3512
 7599TIP3   OH244287   0.901   1.663 107.273  0.9444  0.5269  0.1848
 7599TIP3    H144288   0.937   1.689 107.358  0.6134  0.2802  0.4055
 7599TIP3    H244289   0.882   1.570 107.282  0.5477  0.5841 -0.0266
 7600TIP3   OH244290   0.875   0.277  10.354 -0.3799 -0.3760 -0.1055
 7600TIP3    H144291   0.913   0.343  10.296  0.3049  0.4727  1.2501
 7600TIP3    H244292   0.898   0.307  10.442 -2.0112 -1.2227  0.6560
 7601TIP3   OH244293   0.966   2.547 109.015  0.5105 -0.0684 -0.2066
 7601TIP3    H144294   0.876   2.578 109.004  0.7531  0.9586  0.6883
 7601TIP3    H244295   0.967   2.462 108.970 -1.2517 -0.7095  0.8818
 7602TIP3   OH244296   0.081   0.469  30.693 -0.7494  0.6836  0.5950
 7602TIP3    H144297   0.126   0.462  30.777  0.5207 -2.1076 -0.1737
 7602TIP3    H244298   0.137   0.526  30.640 -1.1783  1.8589  1.3768
 7603TIP3   OH244299   1.162   2.360  27.946 -0.2612 -0.0359  0.2575
 7603TIP3    H144300   1.123   2.412  27.876 -0.2887  2.0265  1.7335
 7603TIP3    H244301   1.119   2.390  28.026  0.6769 -1.4084  1.3335
 7604TIP3   OH244302   1.945   2.507  10.037 -0.2285  0.3054  0.4564
 7604TIP3    H144303   1.893   2.566   9.983 -0.5211 -0.8322 -0.5583
 7604TIP3    H244304   2.027   2.554  10.052 -0.4167  0.9283 -0.4013
 7605TIP3   OH244305   0.680   0.031  77.945  0.5777 -0.4389  0.6360
 7605TIP3    H144306   0.673   0.116  77.901 -0.1856 -0.2624  1.0839
 7605TIP3    H244307   0.734  -0.022  77.886 -1.9199 -0.8418 -1.4618
 7606TIP3   OH244308   0.765   1.473  13.362 -0.2268 -0.2062  0.6478
 7606TIP3    H144309   0.778   1.379  13.370 -0.0689 -0.0792  1.9814
 7606TIP3    H244310   0.694   1.493  13.423 -0.3460  0.5268  0.2824
 7607TIP3   OH244311   0.847   0.938  83.036 -0.3325 -0.6566 -0.4451
 7607TIP3    H144312   0.796   0.897  82.966 -0.7754  0.7590 -0.9916
 7607TIP3    H244313   0.805   1.022  83.050  1.2283  0.1175 -0.1732
 7608TIP3   OH244314   1.992   0.813  17.508 -0.6608 -0.2307 -0.3108
 7608TIP3    H144315   1.987   0.766  17.424  0.2032 -0.2047 -0.3812
 7608TIP3    H244316   2.082   0.800  17.537 -1.3856 -1.7453  1.4923
 7609TIP3   OH244317   1.065   2.682  15.574  0.3267  0.3048 -0.0323
 7609TIP3    H144318   0.984   2.723  15.542  0.6025  1.2238  0.4049
 7609TIP3    H244319   1.035   2.606  15.623 -0.3636  1.2319  1.0400
 7610TIP3   OH244320   0.460   0.084  15.660 -0.1558 -0.0496 -0.2736
 7610TIP3    H144321   0.426   0.164  15.699 -0.9879 -0.9008  0.8071
 7610TIP3    H244322   0.387   0.049  15.608  0.1419 -0.2098 -0.5928
 7611TIP3   OH244323   0.449   2.286  13.638  0.1443  0.3514  0.0654
 7611TIP3    H144324   0.370   2.271  13.586  0.4980 -1.1982 -0.0656
 7611TIP3    H244325   0.483   2.369  13.606 -0.2684 -0.0101 -1.3955
 7612TIP3   OH244326   2.138   2.073   7.584 -0.0437 -0.0170 -0.0442
 7612TIP3    H144327   2.192   2.081   7.662  1.5749 -0.7014 -1.0323
 7612TIP3    H244328   2.133   2.162   7.549  2.3561 -0.1987 -1.0888
 7613TIP3   OH244329   1.479   2.210  47.432  0.6163 -0.5760 -0.5529
 7613TIP3    H144330   1.527   2.194  47.514 -2.1138  0.9789  1.5238
 7613TIP3    H244331   1.430   2.129  47.417  0.1192 -0.4062  0.1194
 7614TIP3   OH244332   0.921   0.215  26.045  0.0558 -0.3047 -0.6120
 7614TIP3    H144333   0.984   0.223  25.973 -0.5324 -2.9488 -1.5315
 7614TIP3    H244334   0.838   0.246  26.009  0.5804  2.4890  0.3739
 7615TIP3   OH244335   1.089   0.292  85.926  0.2521  0.1286  0.2336
 7615TIP3    H144336   1.099   0.381  85.960 -1.8066  0.6095 -0.2928
 7615TIP3    H244337   1.001   0.291  85.887  0.9092 -1.6174 -1.3533
 7616TIP3   OH244338   0.265   0.828  28.299 -0.0385  0.1636  0.1068
 7616TIP3    H144339   0.201   0.756  28.305  0.3388 -0.1930 -0.0708
 7616TIP3    H244340   0.290   0.845  28.390  1.2992 -1.2506  0.0618
 7617TIP3   OH244341   1.061   0.793 104.909 -0.2375  0.8696 -0.3408
 7617TIP3    H144342   1.011   0.764 104.986  0.0019 -0.8041 -0.7725
 7617TIP3    H244343   1.139   0.738 104.909 -0.7088  0.1283 -2.3179
 7618TIP3   OH244344   0.828   1.641   9.960  0.0495 -0.1574  0.2836
 7618TIP3    H144345   0.734   1.660   9.959  0.0197 -0.2134  1.4748
 7618TIP3    H244346   0.842   1.589   9.881 -0.9723 -0.4083  0.2516
 7619TIP3   OH244347   1.185   1.474  80.291  0.3826  0.0158  0.3655
 7619TIP3    H144348   1.202   1.463  80.385 -2.2911 -2.8255  0.6536
 7619TIP3    H244349   1.164   1.567  80.281 -1.1278  0.0491  2.9900
 7620TIP3   OH244350   1.979   1.058  83.026 -0.2783  0.2024  0.7503
 7620TIP3    H144351   2.019   1.119  83.088  0.8185 -0.2525  0.5147
 7620TIP3    H244352   1.895   1.036  83.066  0.5167 -0.3149  2.2519
 7621TIP3   OH244353   0.204   0.668  77.281  0.6013 -0.9042 -0.3885
 7621TIP3    H144354   0.226   0.762  77.285 -0.3274 -0.6753 -0.4993
 7621TIP3    H244355   0.130   0.658  77.340  1.5710 -1.8420  0.7000
 7622TIP3   OH244356   0.804   1.136 107.148  0.1569 -0.6366 -0.6940
 7622TIP3    H144357   0.784   1.089 107.229 -0.1723 -1.0082 -0.9886
 7622TIP3    H244358   0.721   1.143 107.102 -0.1308  1.5940  0.0299
 7623TIP3   OH244359   1.709   1.992  28.720  0.3038 -0.1834 -0.0930
 7623TIP3    H144360   1.682   1.920  28.664 -0.0781  0.4783 -0.7762
 7623TIP3    H244361   1.629   2.042  28.736  0.7497  0.6919 -0.5184
 7624TIP3   OH244362   0.390   1.926  24.110 -0.0805 -0.1227  0.3790
 7624TIP3    H144363   0.479   1.962  24.116  0.2089 -0.9519  1.4511
 7624TIP3    H244364   0.334   1.992  24.150  0.3410 -0.4742  1.5989
 7625TIP3   OH244365   1.303   0.872 105.192  0.4835  0.0544 -0.2714
 7625TIP3    H144366   1.299   0.930 105.268  0.2776 -0.1753 -0.1058
 7625TIP3    H244367   1.389   0.887 105.154  0.5506  0.2393 -0.0465
 7626TIP3   OH244368   1.358   2.157  80.393  0.5831 -0.2958 -0.8588
 7626TIP3    H144369   1.419   2.220  80.432  0.3659 -0.2969 -0.5207
 7626TIP3    H244370   1.415   2.091  80.352  0.8198 -0.5953 -0.0706
 7627TIP3   OH244371   0.132   0.948  35.095  0.5728  0.4619 -0.3072
 7627TIP3    H144372   0.226   0.964  35.100  0.5197  0.5003  1.6598
 7627TIP3    H244373   0.096   1.025  35.052  1.3003  1.1998  0.3768
 7628TIP3   OH244374   0.756   1.183  74.948  0.2142 -0.3783  0.2057
 7628TIP3    H144375   0.734   1.100  74.989  0.5152 -1.0475 -0.9567
 7628TIP3    H244376   0.733   1.249  75.014 -0.0453 -1.3663  1.1280
 7629TIP3   OH244377   0.928   0.791  29.871 -0.6249 -0.2745  0.1357
 7629TIP3    H144378   0.982   0.851  29.923 -1.6940 -0.6378  1.7266
 7629TIP3    H244379   0.991   0.730  29.832  0.2934  0.6028  0.1915
 7630TIP3   OH244380   0.789   1.410 108.287 -0.5332  0.7864  0.6168
 7630TIP3    H144381   0.843   1.359 108.348 -1.6920  0.2914  1.2447
 7630TIP3    H244382   0.733   1.463 108.344 -0.2302  1.8425 -0.0373
 7631TIP3   OH244383   0.261   2.660  82.150  0.1026  0.2186  0.0727
 7631TIP3    H144384   0.171   2.629  82.141 -0.1462  1.2748 -1.2578
 7631TIP3    H244385   0.272   2.724  82.080  1.4612  1.1267  1.0704
 7632TIP3   OH244386   2.248   0.769  34.598  0.0001  0.4305 -0.1268
 7632TIP3    H144387   2.343   0.776  34.591  0.0042  0.0457 -0.5155
 7632TIP3    H244388   2.225   0.823  34.673  0.4940  0.7924 -0.2333
 7633TIP3   OH244389   1.277   2.192  37.250  0.0184  0.3285  0.2981
 7633TIP3    H144390   1.185   2.179  37.273  0.2348  0.2446  1.1548
 7633TIP3    H244391   1.276   2.266  37.189 -0.8582 -1.1757 -1.6412
 7634TIP3   OH244392   0.483   1.723  81.270 -0.3348 -0.1629 -0.0808
 7634TIP3    H144393   0.574   1.750  81.260 -0.2314 -0.4799 -0.0062
 7634TIP3    H244394   0.449   1.721  81.181 -0.2100 -0.2453 -0.1294
 7635TIP3   OH244395   0.266   1.014   4.538 -0.3717  0.1223 -0.1289
 7635TIP3    H144396   0.345   0.969   4.567 -0.4567 -0.0169 -0.1146
 7635TIP3    H244397   0.279   1.105   4.566 -0.5172 -0.0390  0.4788
 7636TIP3   OH244398   0.590   1.055  52.466 -0.0152  0.0000  0.2572
 7636TIP3    H144399   0.670   1.107  52.466  0.1239 -0.2066 -0.3211
 7636TIP3    H244400   0.520   1.117  52.487 -0.1583  0.9406 -2.5799
 7637TIP3   OH244401   0.686   2.609 105.867  0.5664  0.1657  0.7713
 7637TIP3    H144402   0.688   2.516 105.847  0.2091  0.7177 -2.2328
 7637TIP3    H244403   0.777   2.638 105.857  0.7204  0.1456  1.9354
 7638TIP3   OH244404   0.500   1.530  98.370  0.4155  0.2126  0.1884
 7638TIP3    H144405   0.523   1.622  98.356  1.0901 -0.1197 -0.9715
 7638TIP3    H244406   0.532   1.485  98.292 -0.0673 -0.9830  0.6631
 7639TIP3   OH244407   1.988   2.032  81.780  0.3738 -0.3558  0.0944
 7639TIP3    H144408   1.920   1.971  81.810  1.2586 -0.2026  2.7122
 7639TIP3    H244409   2.060   1.976  81.752  0.1313 -0.5246 -0.1895
 7640TIP3   OH244410   2.146   1.272   4.123 -0.8444 -0.0749 -0.1003
 7640TIP3    H144411   2.059   1.287   4.160 -1.8615 -2.7781 -1.1574
 7640TIP3    H244412   2.191   1.217   4.187 -0.2440  0.5259  0.0059
 7641TIP3   OH244413   2.214   2.280  82.102  0.5522  0.2478 -0.0560
 7641TIP3    H144414   2.163   2.296  82.023  0.7703 -0.9628 -0.4668
 7641TIP3    H244415   2.304   2.298  82.076  0.7411 -1.0765 -0.3834
 7642TIP3   OH244416   2.666   1.490  28.754  0.6170  0.5225  0.6094
 7642TIP3    H144417   2.731   1.538  28.703 -0.0879  0.0564 -0.7544
 7642TIP3    H244418   2.670   1.530  28.841  1.7083  1.4520  0.1508
 7643TIP3   OH244419   1.369   1.636  28.485  0.2018  0.3012 -0.0029
 7643TIP3    H144420   1.339   1.569  28.546  0.7400 -0.2540 -0.3431
 7643TIP3    H244421   1.325   1.616  28.402  0.2371  0.4652 -0.0630
 7644TIP3   OH244422   2.400   2.656  86.157  0.5371  0.4183  0.0693
 7644TIP3    H144423   2.383   2.580  86.102 -1.4576 -0.7271  2.0973
 7644TIP3    H244424   2.329   2.717  86.137  0.5932  0.5932  0.3918
 7645TIP3   OH244425   2.062   1.046  28.355 -0.2622  0.1238 -0.0025
 7645TIP3    H144426   2.069   1.126  28.304 -0.3265  1.3406  1.7954
 7645TIP3    H244427   2.151   1.030  28.388 -0.4217 -0.0248  0.3714
 7646TIP3   OH244428   0.079   1.647 108.729  0.0832 -0.0344 -0.0639
 7646TIP3    H144429   0.153   1.700 108.761  0.0897 -0.5720  0.8467
 7646TIP3    H244430   0.006   1.670 108.787 -0.1347 -0.4009 -0.1936
 7647TIP3   OH244431   1.400   0.599   8.402  0.1843 -0.2572  0.3701
 7647TIP3    H144432   1.349   0.680   8.391 -0.7146 -0.8973 -0.3338
 7647TIP3    H244433   1.386   0.574   8.493 -1.7637 -1.0357 -0.0870
 7648TIP3   OH244434   0.540   0.724   6.029 -0.1075  0.0832  0.0468
 7648TIP3    H144435   0.569   0.633   6.039 -2.6036 -0.7417  0.3742
 7648TIP3    H244436   0.446   0.718   6.012 -0.3457  2.6186  0.0975
 7649TIP3   OH244437   0.960   1.447  94.624 -0.5819 -0.0203  0.1851
 7649TIP3    H144438   0.976   1.540  94.640  1.1930 -0.4759  1.4292
 7649TIP3    H244439   0.934   1.413  94.710 -1.0719 -0.6996 -0.2300
 7650TIP3   OH244440   0.352   1.459  74.535 -0.5659  0.1544 -0.3877
 7650TIP3    H144441   0.273   1.512  74.529 -0.5509  0.3539  0.8414
 7650TIP3    H244442   0.370   1.432  74.445 -0.6535  2.1031 -1.0257
 7651TIP3   OH244443   1.649   0.840 107.212  0.2964  0.4870  0.3269
 7651TIP3    H144444   1.633   0.750 107.241 -0.1057 -0.1628 -1.7269
 7651TIP3    H244445   1.588   0.893 107.262  0.6068 -0.3630  1.6460
 7652TIP3   OH244446   1.194   1.729  69.370  0.9697 -0.4656 -0.3627
 7652TIP3    H144447   1.196   1.638  69.401  1.1412 -0.2936  0.1553
 7652TIP3    H244448   1.172   1.779  69.448 -0.2709 -0.1635 -0.8902
 7653TIP3   OH244449   2.537   1.084   8.705  0.3454 -0.7748 -0.1499
 7653TIP3    H144450   2.504   1.014   8.649 -0.4725  1.8552 -3.2959
 7653TIP3    H244451   2.631   1.083   8.692  0.6169 -2.4632  1.4836
 7654TIP3   OH244452   2.659   0.534  16.368 -0.2791 -0.3593 -0.1565
 7654TIP3    H144453   2.734   0.475  16.366  0.9914  1.1724 -2.5715
 7654TIP3    H244454   2.590   0.486  16.322  1.0736  0.2326 -3.1013
 7655TIP3   OH244455   0.723   2.519  96.366 -0.5093 -0.0301 -0.2686
 7655TIP3    H144456   0.707   2.428  96.342  0.4058 -0.3573  0.3489
 7655TIP3    H244457   0.786   2.550  96.301 -1.2117  0.3386 -0.7958
 7656TIP3   OH244458   2.647   0.655  76.964  0.4436 -0.1067  0.3458
 7656TIP3    H144459   2.691   0.738  76.982  1.2865 -0.6504  0.8609
 7656TIP3    H244460   2.692   0.620  76.887 -0.8816  0.5836 -0.8005
 7657TIP3   OH244461   1.987   1.444  32.360 -0.1654 -0.1136 -0.1478
 7657TIP3    H144462   2.041   1.394  32.299 -0.8335 -1.3374  0.2307
 7657TIP3    H244463   2.043   1.455  32.438 -0.8994 -2.7204  0.8552
 7658TIP3   OH244464   0.165   2.622  17.485 -0.5215  0.0091  0.0203
 7658TIP3    H144465   0.230   2.587  17.424 -1.2037 -0.0823 -0.6662
 7658TIP3    H244466   0.169   2.717  17.473 -0.8007 -0.0215 -0.3177
 7659TIP3   OH244467   0.955   2.345  18.955  0.0089  0.1698 -0.2537
 7659TIP3    H144468   1.037   2.348  18.906 -0.1490 -0.4663 -0.5709
 7659TIP3    H244469   0.889   2.320  18.890 -0.5951  1.4668 -0.1950
 7660TIP3   OH244470   2.003   1.272  33.289 -0.0347  0.0449  0.3027
 7660TIP3    H144471   2.090   1.232  33.293  0.1236  0.2051 -0.9494
 7660TIP3    H244472   1.954   1.231  33.359  0.5571 -1.2855 -0.0352
 7661TIP3   OH244473   1.388   1.072 101.286 -0.0122  0.1092  0.1756
 7661TIP3    H144474   1.428   0.996 101.328  1.2780  0.1101 -0.9843
 7661TIP3    H244475   1.420   1.070 101.196 -1.0568  1.2625 -0.2633
 7662TIP3   OH244476   0.619   1.374  79.114  0.0834 -0.3816 -0.5410
 7662TIP3    H144477   0.539   1.417  79.084 -0.3048 -0.3186  0.5594
 7662TIP3    H244478   0.654   1.331  79.036  0.9784  2.6324 -1.9624
 7663TIP3   OH244479   1.652   0.282 101.549 -0.5867 -0.3634  0.3464
 7663TIP3    H144480   1.649   0.301 101.643  0.7746  1.1874  0.1363
 7663TIP3    H244481   1.744   0.260 101.533 -0.4567  0.9016 -0.8481
 7664TIP3   OH244482   1.984   0.404 107.752 -0.6466  0.1435  0.1541
 7664TIP3    H144483   2.002   0.347 107.677  0.1074 -1.2364  1.3348
 7664TIP3    H244484   2.056   0.386 107.813 -0.4166  2.3476  0.5941
 7665TIP3   OH244485   1.582   1.484  35.823 -0.1085  0.3908 -0.6717
 7665TIP3    H144486   1.511   1.536  35.784  1.1902  1.7406 -1.3311
 7665TIP3    H244487   1.579   1.508  35.916 -0.2179  0.8050 -0.7778
 7666TIP3   OH244488   1.183   1.219  90.595 -0.4012  0.2951  0.0059
 7666TIP3    H144489   1.272   1.195  90.617 -0.2683  0.7728  0.0009
 7666TIP3    H244490   1.161   1.164  90.520  0.3392  1.0686 -0.7962
 7667TIP3   OH244491   0.449   2.034 103.795  0.0863  0.0065 -0.2805
 7667TIP3    H144492   0.495   1.977 103.857  1.4508  0.9076 -0.4031
 7667TIP3    H244493   0.451   2.120 103.836 -1.5862  0.0817 -0.2808
 7668TIP3   OH244494   0.491   0.213   8.024 -0.3864 -0.2379 -0.1463
 7668TIP3    H144495   0.496   0.240   8.116 -2.7315 -0.4100  0.0901
 7668TIP3    H244496   0.443   0.130   8.027  1.6750 -1.5590 -1.3508
 7669TIP3   OH244497   1.692   2.402  19.096  0.1039  0.0599  0.3610
 7669TIP3    H144498   1.739   2.356  19.027 -2.2744 -1.9181 -0.0722
 7669TIP3    H244499   1.696   2.343  19.171  0.5687  1.0847  1.1670
 7670TIP3   OH244500   0.239   2.282  21.890 -0.1294 -0.2725 -0.2318
 7670TIP3    H144501   0.319   2.332  21.903 -0.8896  0.8701  0.2693
 7670TIP3    H244502   0.242   2.215  21.959  0.1060  0.1583  0.1871
 7671TIP3   OH244503   0.963   0.879  85.004  0.3767 -0.1425  0.2422
 7671TIP3    H144504   0.922   0.792  85.002  0.3655 -0.1558  1.0320
 7671TIP3    H244505   1.039   0.869  85.060  0.0829  0.4850  0.7630
 7672TIP3   OH244506   2.157   1.019  12.925 -0.3166 -0.0256  0.0601
 7672TIP3    H144507   2.164   1.091  12.988  0.7450 -1.1793  1.3134
 7672TIP3    H244508   2.230   1.034  12.865 -0.0646 -0.0750  0.3490
 7673TIP3   OH244509   0.836   1.376  14.230 -0.4633 -0.3459  0.0866
 7673TIP3    H144510   0.922   1.416  14.246 -0.7964  0.0682  0.9216
 7673TIP3    H244511   0.850   1.283  14.248 -0.5911 -0.0302  2.0866
 7674TIP3   OH244512   0.137   1.865   2.379  0.4778  0.4097 -0.3357
 7674TIP3    H144513   0.124   1.807   2.304  1.0152 -0.8635  0.5040
 7674TIP3    H244514   0.051   1.903   2.396 -0.0781 -0.7541 -0.4536
 7675TIP3   OH244515   1.070   0.474 109.085  0.3415  0.5443 -0.5654
 7675TIP3    H144516   1.162   0.455 109.104  0.2399  0.3963 -0.2099
 7675TIP3    H244517   1.027   0.389 109.092 -0.4430  1.0783  2.8913
 7676TIP3   OH244518   1.691   0.565  23.298 -1.0099 -0.3346  0.2644
 7676TIP3    H144519   1.672   0.655  23.324 -2.2255 -0.8414  1.2156
 7676TIP3    H244520   1.779   0.549  23.333  0.4038  1.2913 -2.2065
 7677TIP3   OH244521   0.420   1.181  63.730 -0.0914 -0.5437  0.3669
 7677TIP3    H144522   0.450   1.264  63.693  2.6874 -1.6312 -0.0582
 7677TIP3    H244523   0.418   1.196  63.825  2.1391 -0.4349  0.4458
 7678TIP3   OH244524   2.263   2.273   2.672 -0.7010  0.1509 -0.5588
 7678TIP3    H144525   2.269   2.190   2.719  0.8044  0.4100 -0.2513
 7678TIP3    H244526   2.241   2.337   2.739 -2.2723 -0.0330 -0.8630
 7679TIP3   OH244527   1.301   0.339  91.006 -0.6715 -0.0486 -0.3360
 7679TIP3    H144528   1.355   0.410  90.970  0.4806 -1.3177 -1.2118
 7679TIP3    H244529   1.314   0.266  90.946 -0.7643 -1.4318  1.2561
 7680TIP3   OH244530   1.812   2.575  13.184  0.1686  0.1262  0.2860
 7680TIP3    H144531   1.727   2.593  13.225 -0.2301  0.6704 -0.7408
 7680TIP3    H244532   1.795   2.503  13.124  0.2228  0.8002 -0.5553
 7681TIP3   OH244533   1.532   0.324  23.681  0.0308  0.8467  0.0139
 7681TIP3    H144534   1.599   0.271  23.726  0.3769  1.5181  0.3108
 7681TIP3    H244535   1.468   0.260  23.650 -0.2269  0.3484  1.4830
 7682TIP3   OH244536   0.729   2.324  34.042 -0.6234 -0.3506 -0.0468
 7682TIP3    H144537   0.659   2.378  34.079  0.6240  0.8857  0.6207
 7682TIP3    H244538   0.775   2.290  34.119  1.5070  1.5842 -0.3361
 7683TIP3   OH244539   2.364   1.015   8.892 -0.2091 -0.1720  0.1798
 7683TIP3    H144540   2.336   0.934   8.848 -1.3573  0.5202 -0.4138
 7683TIP3    H244541   2.418   1.060   8.826  1.0765 -0.7828  0.7787
 7684TIP3   OH244542   2.257   0.157  89.261  0.5224 -0.0401 -0.1905
 7684TIP3    H144543   2.262   0.173  89.356  0.0672  0.2773 -0.2161
 7684TIP3    H244544   2.219   0.069  89.254  0.4201 -0.0050 -0.0793
 7685TIP3   OH244545   1.178   0.093 107.749  0.7072 -0.0694  0.1530
 7685TIP3    H144546   1.098   0.047 107.776  1.1451 -1.0697 -0.2197
 7685TIP3    H244547   1.149   0.182 107.732 -0.2095 -0.2520  0.6678
 7686TIP3   OH244548   1.744   2.615  92.998 -1.0188 -0.1005  0.4312
 7686TIP3    H144549   1.811   2.631  92.932 -1.6053 -2.0665 -0.7003
 7686TIP3    H244550   1.661   2.636  92.954 -1.3081  0.2773  1.1379
 7687TIP3   OH244551   2.312   2.463  76.522  0.4339  0.2672  0.5562
 7687TIP3    H144552   2.258   2.482  76.444 -0.0156  0.9781  1.0252
 7687TIP3    H244553   2.366   2.541  76.533  1.6309 -0.4730  0.0482
 7688TIP3   OH244554   0.894   1.776  14.265 -0.2897 -0.0142  0.2569
 7688TIP3    H144555   0.925   1.828  14.339  1.3144  0.7569 -0.8771
 7688TIP3    H244556   0.955   1.702  14.261 -1.3690 -0.9465  0.6755
 7689TIP3   OH244557   1.977   0.846  78.006  0.3534 -0.6608  0.0741
 7689TIP3    H144558   2.012   0.780  78.065 -1.6709 -1.4099  0.5411
 7689TIP3    H244559   1.915   0.798  77.951 -0.4355  0.6687 -0.2439
 7690TIP3   OH244560   0.894   1.993  95.210  0.0066  0.2734  0.3476
 7690TIP3    H144561   0.842   1.922  95.246  1.9579 -1.2961  0.2334
 7690TIP3    H244562   0.830   2.063  95.192 -2.2687 -2.0157 -1.1115
 7691TIP3   OH244563   2.589   0.644  94.599 -0.5248 -0.2990  0.0915
 7691TIP3    H144564   2.541   0.705  94.543 -2.2056 -0.4344  1.3124
 7691TIP3    H244565   2.609   0.694  94.678  2.6430  0.1774 -0.8757
 7692TIP3   OH244566   1.157   2.139  24.294  0.1365  0.4026 -0.3523
 7692TIP3    H144567   1.163   2.230  24.264 -1.3121  0.3107 -1.0053
 7692TIP3    H244568   1.136   2.089  24.215 -1.7747 -0.1248  0.4304
 7693TIP3   OH244569   0.661   0.986  24.261 -0.4810  0.1919 -0.0402
 7693TIP3    H144570   0.719   1.003  24.187 -0.4844  0.2211 -0.0364
 7693TIP3    H244571   0.579   0.957  24.220 -0.6351  0.6566 -0.0637
 7694TIP3   OH244572   1.250   1.784  23.400 -0.6513 -0.4973 -0.1324
 7694TIP3    H144573   1.275   1.711  23.457 -0.0935 -3.1115 -3.3635
 7694TIP3    H244574   1.157   1.797  23.416 -0.8381 -2.1857  0.3435
 7695TIP3   OH244575   2.538   1.415  21.584  0.1450 -0.4170  0.0709
 7695TIP3    H144576   2.515   1.433  21.675  0.7618  1.1434 -0.0445
 7695TIP3    H244577   2.557   1.501  21.546 -0.9543 -0.9330 -1.7911
 7696TIP3   OH244578   0.855   1.049   2.378 -0.1771 -0.2792 -0.0318
 7696TIP3    H144579   0.836   0.957   2.362  0.8975 -0.5680  0.2336
 7696TIP3    H244580   0.810   1.070   2.459 -1.4705 -0.2081 -0.7401
 7697TIP3   OH244581   2.567   1.624   1.196  0.1861  0.0891 -0.0676
 7697TIP3    H144582   2.646   1.579   1.164 -0.5009 -0.6800 -0.7419
 7697TIP3    H244583   2.496   1.563   1.176 -0.6410  0.9983  0.0548
 7698TIP3   OH244584   1.074   0.784  30.522  0.1273  0.3670 -0.3170
 7698TIP3    H144585   1.147   0.726  30.502  1.2610  2.2591 -2.0091
 7698TIP3    H244586   1.070   0.786  30.618  3.3510  1.3862 -0.0796
 7699TIP3   OH244587   0.285   0.164 101.379 -0.0971  0.1783  0.1523
 7699TIP3    H144588   0.308   0.080 101.419 -0.5354  0.5979  1.3262
 7699TIP3    H244589   0.339   0.169 101.301  1.0020 -0.5618  0.8315
 7700TIP3   OH244590   0.927   1.966   1.079 -0.0834 -0.4773  0.1256
 7700TIP3    H144591   0.837   1.959   1.110 -0.0831  0.6636  0.4621
 7700TIP3    H244592   0.955   1.876   1.064 -1.3763 -0.8379 -0.2873
 7701TIP3   OH244593   2.325   1.530 108.924 -0.1873 -0.1591 -0.0766
 7701TIP3    H144594   2.330   1.478 109.004 -2.6526 -0.2352  0.1158
 7701TIP3    H244595   2.247   1.584 108.935  1.0281  1.9733 -1.2396
 7702TIP3   OH244596   1.016   0.760   0.310 -0.1856 -0.3048 -0.1400
 7702TIP3    H144597   1.112   0.766   0.310 -0.0808 -1.6575  0.0389
 7702TIP3    H244598   0.988   0.821   0.377  0.7486 -2.1258  2.0379
 7703TIP3   OH244599   1.744   0.715 110.737 -0.1956  0.6076  0.8582
 7703TIP3    H144600   1.719   0.623 110.735 -2.2424  1.1111  0.8721
 7703TIP3    H244601   1.800   0.723 110.814  2.9117 -1.2285 -1.0212
 7704TIP3   OH244602   1.826   0.877  34.056  0.4234  0.1231  0.0821
 7704TIP3    H144603   1.845   0.886  34.149 -1.7402  1.8364  0.4480
 7704TIP3    H244604   1.877   0.947  34.015 -1.1015  1.5094  0.4469
 7705TIP3   OH244605   1.633   2.436  75.590 -0.3025  0.5335 -0.2629
 7705TIP3    H144606   1.544   2.459  75.566 -0.4784 -1.0083 -1.3211
 7705TIP3    H244607   1.632   2.340  75.596  1.2094  0.5003 -0.0407
 7706TIP3   OH244608   1.730   0.634  18.741 -0.2033  0.0130 -0.2758
 7706TIP3    H144609   1.754   0.553  18.786 -0.9097 -0.6184 -1.0048
 7706TIP3    H244610   1.814   0.677  18.723  0.2196 -0.8222 -0.3574
 7707TIP3   OH244611   0.930   1.857  25.491 -0.1247 -0.1295  0.0540
 7707TIP3    H144612   0.878   1.910  25.552 -0.6500 -0.2034 -0.3157
 7707TIP3    H244613   0.865   1.820  25.431  0.1826 -1.6679  0.6556
 7708TIP3   OH244614   2.677   1.690  21.688 -0.2634 -0.1667 -0.2850
 7708TIP3    H144615   2.660   1.679  21.595  1.7362 -1.8759 -0.5340
 7708TIP3    H244616   2.590   1.695  21.728 -1.1571  1.6261 -2.2977
 7709TIP3   OH244617   1.497   1.785  87.714 -0.1238  0.0995 -0.0738
 7709TIP3    H144618   1.554   1.852  87.752  0.0555 -0.7558  1.2014
 7709TIP3    H244619   1.556   1.715  87.688 -0.6691 -1.7265  3.1812
 7710TIP3   OH244620   1.088   0.625  10.088 -0.2398  0.5332  0.0753
 7710TIP3    H144621   1.025   0.657  10.023 -0.2273 -0.0328 -0.2174
 7710TIP3    H244622   1.080   0.687  10.160  0.1601  1.5050 -0.6963
 7711TIP3   OH244623   2.298   1.695  77.551  0.1443  0.3290  0.1796
 7711TIP3    H144624   2.256   1.653  77.477  0.2619  0.8678 -0.1961
 7711TIP3    H244625   2.378   1.643  77.566  0.0114  0.0923  0.0705
 7712TIP3   OH244626   1.352   1.127  87.638  0.3005  0.1839  0.3187
 7712TIP3    H144627   1.276   1.184  87.635  0.5216  0.4890  0.4653
 7712TIP3    H244628   1.317   1.038  87.628  0.0428  0.4041 -0.8253
 7713TIP3   OH244629   0.422   1.712 110.448  0.3761 -0.2357 -0.0885
 7713TIP3    H144630   0.471   1.657 110.388 -0.9522 -0.6576 -0.8311
 7713TIP3    H244631   0.464   1.698 110.533  2.4211  0.5237 -0.8987
 7714TIP3   OH244632   2.411   0.372  87.856  0.2221  0.5318 -0.4469
 7714TIP3    H144633   2.410   0.276  87.858  1.5859  0.4913 -0.8675
 7714TIP3    H244634   2.495   0.395  87.816 -1.2634  1.8890 -3.0644
 7715TIP3   OH244635   0.496   2.230  94.754 -0.2848 -0.6537 -0.5339
 7715TIP3    H144636   0.491   2.247  94.848 -0.9913 -0.5324 -0.5856
 7715TIP3    H244637   0.575   2.176  94.744  1.0067  1.0858 -0.1528
 7716TIP3   OH244638   1.975   1.832   2.369  0.0379 -0.3505 -0.2948
 7716TIP3    H144639   1.969   1.909   2.426 -1.9616 -0.5589 -0.1732
 7716TIP3    H244640   2.005   1.762   2.427 -1.0585 -0.3409  0.3076
 7717TIP3   OH244641   0.210   0.510  27.501  0.3651  0.1085 -0.4548
 7717TIP3    H144642   0.208   0.536  27.409 -0.6661  3.3224  0.3426
 7717TIP3    H244643   0.215   0.593  27.549 -0.4198 -1.3881  2.4340
 7718TIP3   OH244644   2.390   0.511  15.720 -0.1331  0.4483 -0.3438
 7718TIP3    H144645   2.297   0.528  15.705 -0.6447 -2.4038 -0.9371
 7718TIP3    H244646   2.407   0.548  15.807 -2.3583 -0.7498  0.6777
 7719TIP3   OH244647   2.253   0.025 103.784  0.3631  0.2198 -0.3498
 7719TIP3    H144648   2.242   0.010 103.690 -0.6641 -0.6211 -0.1109
 7719TIP3    H244649   2.309  -0.047 103.814 -0.3614 -0.2552 -0.1088
 7720TIP3   OH244650   0.017   1.181  96.694 -0.5832 -0.0490 -0.3283
 7720TIP3    H144651   0.093   1.157  96.748 -1.3780  1.2953  1.4770
 7720TIP3    H244652   0.049   1.250  96.637 -0.6503  1.2200  1.1221
 7721TIP3   OH244653   0.753   1.440  99.479  0.3352 -0.6895 -0.2102
 7721TIP3    H144654   0.755   1.379  99.553 -0.3167 -0.5009 -0.0213
 7721TIP3    H244655   0.805   1.515  99.508 -1.6076  0.3017  0.9308
 7722TIP3   OH244656   1.069   1.194  81.699  0.1566 -0.3691 -0.1413
 7722TIP3    H144657   1.086   1.140  81.776 -0.7613 -0.3140  0.1172
 7722TIP3    H244658   1.107   1.279  81.719  0.3859 -0.5134  0.0288
 7723TIP3   OH244659   2.529   1.701  99.607  0.4552  0.2102 -0.3914
 7723TIP3    H144660   2.573   1.617  99.617  1.2348  0.5931 -0.5526
 7723TIP3    H244661   2.474   1.691  99.530  1.0028  0.0353 -0.7676
 7724TIP3   OH244662   1.794   0.844  30.605 -0.0579  0.0359  0.6032
 7724TIP3    H144663   1.713   0.895  30.614 -0.6445 -0.9845  1.2812
 7724TIP3    H244664   1.774   0.760  30.645  1.1043 -0.5114  0.0798
 7725TIP3   OH244665   1.356   1.283  35.718 -0.0744  0.1457  0.2288
 7725TIP3    H144666   1.431   1.317  35.669 -0.1338 -1.2131 -0.8634
 7725TIP3    H244667   1.283   1.338  35.692  0.3658  0.9615  0.6746
 7726TIP3   OH244668   1.642   1.822  26.287  0.4164  0.8100 -0.5743
 7726TIP3    H144669   1.562   1.813  26.340  1.2318 -0.6688  0.4809
 7726TIP3    H244670   1.610   1.844  26.200 -1.1627  0.2688 -0.1724
 7727TIP3   OH244671   1.763   0.307  46.875  0.5224  0.0389  0.6538
 7727TIP3    H144672   1.765   0.261  46.791  0.6613 -1.3462  1.3893
 7727TIP3    H244673   1.670   0.314  46.896  0.5097 -0.0295  0.6200
 7728TIP3   OH244674   0.160   1.162  34.497 -0.4096 -0.4569  0.0925
 7728TIP3    H144675   0.179   1.247  34.457  0.8229 -0.3083  0.9480
 7728TIP3    H244676   0.067   1.149  34.480 -0.8513  1.4965  0.7033
 7729TIP3   OH244677   0.420   2.149 111.115  0.0141 -0.0174  0.3775
 7729TIP3    H144678   0.363   2.089 111.163 -0.2116 -1.8402 -2.0079
 7729TIP3    H244679   0.509   2.121 111.137 -0.0783 -0.6243 -0.0359
 7730TIP3   OH244680   2.580   1.910  95.009  0.0290  0.1324 -0.8410
 7730TIP3    H144681   2.553   1.840  94.950  1.7319 -1.2465 -0.0745
 7730TIP3    H244682   2.673   1.925  94.988  0.7715 -0.5715  1.5446
 7731TIP3   OH244683   1.569   1.535  47.147 -0.7311  0.7272  0.3587
 7731TIP3    H144684   1.649   1.587  47.154 -1.1342  1.1775  2.1039
 7731TIP3    H244685   1.592   1.463  47.088  0.0965  2.3682 -1.4338
 7732TIP3   OH244686   0.519   1.379  35.932  0.5251 -0.3894  0.5267
 7732TIP3    H144687   0.610   1.355  35.914  0.2729 -0.3198 -0.9570
 7732TIP3    H244688   0.470   1.344  35.858 -0.5100  0.5353  0.7552
 7733TIP3   OH244689   1.570   0.141  78.352  0.0685  0.6202  1.0377
 7733TIP3    H144690   1.500   0.099  78.302  0.3726 -0.7861  1.7281
 7733TIP3    H244691   1.606   0.070  78.406  0.4838  1.8344  2.4130
 7734TIP3   OH244692   2.189   1.445  21.825  0.0945 -0.1449 -0.0838
 7734TIP3    H144693   2.214   1.487  21.743  2.0811  1.2010  1.1119
 7734TIP3    H244694   2.114   1.496  21.856  1.2830  1.3591  0.4086
 7735TIP3   OH244695   1.114   1.962  14.089  0.4804 -0.4144 -0.1122
 7735TIP3    H144696   1.187   2.014  14.124  1.1736 -0.2991 -1.6673
 7735TIP3    H244697   1.055   1.950  14.164  0.9866  1.4093  0.6202
 7736TIP3   OH244698   0.224   0.901  25.065 -0.0522 -0.3097 -0.2470
 7736TIP3    H144699   0.141   0.905  25.113  0.7111  1.9269  1.0230
 7736TIP3    H244700   0.280   0.846  25.120  0.6213  1.7385  1.2451
 7737TIP3   OH244701   2.290   1.758  36.009  0.0128  0.2402 -0.6621
 7737TIP3    H144702   2.241   1.781  35.929  0.0269 -1.5166 -1.2146
 7737TIP3    H244703   2.229   1.707  36.061  0.5334 -0.0185 -0.2992
 7738TIP3   OH244704   2.521   2.164  68.292  1.1092 -0.3693 -0.4000
 7738TIP3    H144705   2.459   2.121  68.233  0.0514 -1.0265  1.1323
 7738TIP3    H244706   2.597   2.183  68.237  0.1604 -0.9198 -1.9715
 7739TIP3   OH244707   0.956   0.959  95.317 -0.5076 -0.1951 -0.4604
 7739TIP3    H144708   0.987   0.903  95.388 -1.7781 -0.0615  0.2392
 7739TIP3    H244709   0.918   0.898  95.254  1.7437 -0.4314 -1.7010
 7740TIP3   OH244710   2.215   0.174  86.100  0.2759 -0.1145  0.3502
 7740TIP3    H144711   2.170   0.238  86.155 -0.5043 -0.7141  0.4216
 7740TIP3    H244712   2.219   0.215  86.014 -1.2865 -0.4434  0.1064
 7741TIP3   OH244713   0.549   1.547 111.388  0.2975 -0.3370  0.4747
 7741TIP3    H144714   0.540   1.623 111.331 -0.1132 -0.3749  0.4884
 7741TIP3    H244715   0.497   1.568 111.465  0.7618 -0.3308  0.7939
 7742TIP3   OH244716   1.544   1.202   9.764  0.1602 -0.6426 -0.4178
 7742TIP3    H144717   1.502   1.284   9.737  0.3989 -0.1022  0.8125
 7742TIP3    H244718   1.626   1.201   9.715 -0.0321 -0.3610 -0.7583
 7743TIP3   OH244719   1.116   1.484 106.016  0.3653 -0.1310 -0.1884
 7743TIP3    H144720   1.118   1.422 105.943  0.4393 -3.6226  2.5290
 7743TIP3    H244721   1.042   1.541 105.996 -1.6664 -2.9893 -1.5728
 7744TIP3   OH244722   2.396   2.179  31.349  0.5458  0.0918 -0.2066
 7744TIP3    H144723   2.372   2.087  31.350  2.0963 -0.3542  1.1944
 7744TIP3    H244724   2.481   2.182  31.304 -0.5685  1.1923 -2.3589
 7745TIP3   OH244725   0.133   0.863   0.590 -0.4320 -0.2128 -0.0783
 7745TIP3    H144726   0.093   0.779   0.567  1.0362 -0.5102 -1.7606
 7745TIP3    H244727   0.095   0.885   0.675 -1.3623 -2.2318  0.0898
 7746TIP3   OH244728   0.329   0.643  16.968  0.3977 -0.1470  0.7561
 7746TIP3    H144729   0.315   0.693  17.048  0.8496  0.7331  0.2930
 7746TIP3    H244730   0.366   0.706  16.906  1.5388 -1.1986  0.3435
 7747TIP3   OH244731   1.753   2.329  23.298 -0.1203 -0.0524 -0.0771
 7747TIP3    H144732   1.773   2.294  23.212  1.0326 -0.2027  0.2358
 7747TIP3    H244733   1.838   2.354  23.335 -0.5739 -0.1139  1.0684
 7748TIP3   OH244734   2.231   1.175  37.221 -0.5795 -0.6644  0.2819
 7748TIP3    H144735   2.254   1.236  37.151 -0.2260  0.0504  1.0154
 7748TIP3    H244736   2.142   1.201  37.246  0.5581  1.4455  2.5097
 7749TIP3   OH244737   2.477   2.339  28.644  0.1747  0.0486  0.0860
 7749TIP3    H144738   2.571   2.339  28.625  0.2896 -0.4785  0.6127
 7749TIP3    H244739   2.439   2.399  28.580  0.4108 -2.3590 -2.5107
 7750TIP3   OH244740   0.414   2.094 107.132  0.3757 -0.0346  0.8828
 7750TIP3    H144741   0.460   2.162 107.182  2.6646 -0.4555 -0.4949
 7750TIP3    H244742   0.431   2.013 107.180 -0.0054 -0.0219  1.0429
 7751TIP3   OH244743   2.404   0.311  76.404 -0.3845  0.2247 -0.2206
 7751TIP3    H144744   2.376   0.371  76.334  0.1295  0.9761  0.2053
 7751TIP3    H244745   2.498   0.304  76.392 -0.3413  0.0962  0.1945
 7752TIP3   OH244746   0.688   2.321 106.437  0.1535 -0.2911 -0.2881
 7752TIP3    H144747   0.686   2.416 106.446 -0.1875 -0.4163  1.0899
 7752TIP3    H244748   0.769   2.304 106.388  0.3196  0.6909 -0.3779
 7753TIP3   OH244749   0.435   1.172  30.618 -0.2868 -0.4088 -0.2478
 7753TIP3    H144750   0.406   1.115  30.547 -1.1536 -0.3920  0.0832
 7753TIP3    H244751   0.529   1.153  30.626  0.0046  0.1362 -1.8849
 7754TIP3   OH244752   0.645   0.762  98.398  0.0924  0.0909  0.0600
 7754TIP3    H144753   0.576   0.697  98.409  0.0888  0.2264  0.8911
 7754TIP3    H244754   0.600   0.840  98.365  0.0459 -0.2161 -0.6113
 7755TIP3   OH244755   0.307   1.599  19.993 -0.5518 -0.0939 -0.0554
 7755TIP3    H144756   0.309   1.554  20.078  1.1668 -0.3734 -0.2106
 7755TIP3    H244757   0.392   1.580  19.954 -0.9842  0.7634 -1.4746
 7756TIP3   OH244758   1.567   2.541  78.809  0.0077 -0.1947 -0.0628
 7756TIP3    H144759   1.619   2.483  78.754  2.7221  0.1829  1.9131
 7756TIP3    H244760   1.593   2.520  78.899 -1.1748  1.9891  0.8825
 7757TIP3   OH244761   2.647   1.481  96.945 -0.1467 -0.8342 -0.3287
 7757TIP3    H144762   2.631   1.574  96.957 -1.1093 -1.1357  1.0186
 7757TIP3    H244763   2.737   1.475  96.913  0.3112  0.5055  0.6319
 7758TIP3   OH244764   2.384   0.686  87.980  0.1984  0.0088 -0.6928
 7758TIP3    H144765   2.423   0.714  87.896  0.9776  0.1083 -0.3096
 7758TIP3    H244766   2.358   0.768  88.022 -0.7036 -0.0756 -1.0677
 7759TIP3   OH244767   0.505   0.557 107.115  0.2405 -0.0862  0.6515
 7759TIP3    H144768   0.587   0.551 107.165  1.0764 -0.0947 -0.6766
 7759TIP3    H244769   0.533   0.565 107.024 -1.2674 -0.9112  0.0849
 7760TIP3   OH244770   2.275   2.271  14.867  0.1781  0.3684 -0.4104
 7760TIP3    H144771   2.352   2.230  14.827  0.1342 -1.2470  1.0825
 7760TIP3    H244772   2.204   2.208  14.853  0.0382 -0.0017  1.6432
 7761TIP3   OH244773   0.086   1.497  87.218 -0.0302 -0.0025  0.1649
 7761TIP3    H144774   0.177   1.474  87.198 -0.1104  0.4147 -0.7461
 7761TIP3    H244775   0.058   1.548  87.143 -1.1507 -0.4672  0.2523
 7762TIP3   OH244776   1.918   0.616   1.201  0.1895 -0.4379 -0.3469
 7762TIP3    H144777   1.876   0.671   1.266 -0.0639  1.0726 -1.7049
 7762TIP3    H244778   1.897   0.527   1.227  0.8157  0.0525  2.0815
 7763TIP3   OH244779   0.892   1.682  79.418  0.2646 -0.2164  0.3822
 7763TIP3    H144780   0.902   1.751  79.483  0.1923 -0.6901  0.9111
 7763TIP3    H244781   0.942   1.609  79.453  2.1880  0.2527 -1.2298
 7764TIP3   OH244782   1.655   0.083  47.307 -0.4193 -0.6272  0.1058
 7764TIP3    H144783   1.564   0.072  47.280 -0.3781 -1.9404  0.3991
 7764TIP3    H244784   1.706   0.063  47.229 -0.3719 -0.3134  0.0557
 7765TIP3   OH244785   1.241   1.606  18.197  0.1285  0.3720 -0.1481
 7765TIP3    H144786   1.146   1.611  18.189  0.0816 -0.6978 -0.4049
 7765TIP3    H244787   1.258   1.624  18.290 -0.3505  0.2536 -0.0343
 7766TIP3   OH244788   0.895   1.251  37.401  0.0742  0.4247  0.1822
 7766TIP3    H144789   0.902   1.157  37.383  0.4800  0.9329 -3.0086
 7766TIP3    H244790   0.802   1.271  37.391  0.0982  0.4830  0.0720
 7767TIP3   OH244791   2.522   1.457  10.697  0.2414  0.7827 -0.3123
 7767TIP3    H144792   2.530   1.370  10.737 -0.5318  0.8060 -0.0882
 7767TIP3    H244793   2.484   1.440  10.611  1.2274  0.7991 -0.7665
 7768TIP3   OH244794   1.447   2.562 104.805  0.0902  0.1821 -0.0132
 7768TIP3    H144795   1.523   2.516 104.769  0.3718  0.2675  0.4671
 7768TIP3    H244796   1.442   2.532 104.896  0.7606  1.7043  0.5517
 7769TIP3   OH244797   0.828   2.658 100.097 -0.1786  0.0156  0.1723
 7769TIP3    H144798   0.889   2.592 100.062 -1.3625 -0.9915 -0.0828
 7769TIP3    H244799   0.800   2.622 100.182  0.0452  0.7658  0.5676
 7770TIP3   OH244800   1.691   1.984  82.974  0.2559  0.3750  0.0987
 7770TIP3    H144801   1.692   1.890  82.993  1.4988  0.2524 -0.5016
 7770TIP3    H244802   1.607   2.014  83.009 -0.0915 -0.9226  0.4453
 7771TIP3   OH244803   1.053   1.016  91.409  0.3483 -0.7838 -0.2014
 7771TIP3    H144804   1.051   0.920  91.413  0.5859 -0.8747 -1.8066
 7771TIP3    H244805   1.144   1.039  91.428  1.3321 -1.1741 -3.6873
 7772TIP3   OH244806   2.473   1.234 102.210  0.1411  0.0307  0.1968
 7772TIP3    H144807   2.532   1.220 102.136 -0.7227  0.9531 -0.7019
 7772TIP3    H244808   2.405   1.167 102.200 -0.1313  0.3344 -0.0268
 7773TIP3   OH244809   0.644   0.895  20.562 -0.5271 -0.0974 -0.2709
 7773TIP3    H144810   0.554   0.926  20.565 -0.5470 -0.1971  1.1995
 7773TIP3    H244811   0.691   0.954  20.621  0.5656  0.4929 -1.6770
 7774TIP3   OH244812   0.321   0.323  94.430 -0.1259  0.1226 -0.2120
 7774TIP3    H144813   0.300   0.239  94.472  0.3569  0.2319  0.2550
 7774TIP3    H244814   0.245   0.378  94.449  0.2671  0.3037  0.8942
 7775TIP3   OH244815   0.642   0.843  90.182  0.0057  0.2292  0.0279
 7775TIP3    H144816   0.629   0.918  90.240 -1.8238  0.0059 -0.0304
 7775TIP3    H244817   0.605   0.769  90.230  0.3395 -0.3503 -0.5842
 7776TIP3   OH244818   1.667   1.663  27.509  0.4970  0.2544  0.2855
 7776TIP3    H144819   1.591   1.636  27.560  0.7903 -1.6016 -0.1801
 7776TIP3    H244820   1.691   1.748  27.545  0.1854 -0.5941  2.6579
 7777TIP3   OH244821   1.906   2.177  77.478  0.3890  0.5790 -0.4671
 7777TIP3    H144822   1.877   2.169  77.387  1.5299  0.1538 -0.8176
 7777TIP3    H244823   1.988   2.127  77.481  2.1576  3.2712 -0.0546
 7778TIP3   OH244824   2.434   1.319   3.104  0.2678  0.1953  0.1947
 7778TIP3    H144825   2.430   1.404   3.148 -0.2132 -0.0391  0.6106
 7778TIP3    H244826   2.471   1.260   3.170 -0.0716 -0.0701  0.1504
 7779TIP3   OH244827   0.466   1.624  73.874  0.2699  0.0856 -0.6130
 7779TIP3    H144828   0.387   1.604  73.825  0.0369  0.8465 -0.5577
 7779TIP3    H244829   0.506   1.539  73.890 -1.9701 -0.6335  1.8155
 7780TIP3   OH244830   2.463   1.886  94.297  0.3525 -0.4243  0.3910
 7780TIP3    H144831   2.558   1.898  94.299  0.2391  0.6767 -0.1049
 7780TIP3    H244832   2.450   1.807  94.246  0.9147  0.8370 -1.8556
 7781TIP3   OH244833   2.142   1.484  92.260  0.3362 -0.6276 -0.3664
 7781TIP3    H144834   2.116   1.477  92.168  0.4774  1.1345 -0.5760
 7781TIP3    H244835   2.064   1.516  92.305 -0.0759 -2.5048  0.3713
 7782TIP3   OH244836   2.628   1.735  44.849  1.1040 -0.3891  0.5372
 7782TIP3    H144837   2.702   1.777  44.893  0.7026 -1.3522  2.2072
 7782TIP3    H244838   2.630   1.644  44.879 -1.1316 -0.2967  1.1874
 7783TIP3   OH244839   0.485   1.746   8.835  0.1936 -0.2107 -0.0176
 7783TIP3    H144840   0.486   1.761   8.740  0.2974 -0.8799 -0.1309
 7783TIP3    H244841   0.575   1.764   8.863  0.2282 -0.2681 -0.0905
 7784TIP3   OH244842   1.351   0.771  17.071 -0.4905 -0.0546  0.1200
 7784TIP3    H144843   1.375   0.762  16.979 -0.2514 -0.6243  0.2335
 7784TIP3    H244844   1.419   0.827  17.107 -1.3201  1.2887 -0.3297
 7785TIP3   OH244845   0.838   2.610  10.932  0.5334 -0.0435  0.1152
 7785TIP3    H144846   0.800   2.580  10.849 -1.1360  1.5673  0.2371
 7785TIP3    H244847   0.779   2.576  10.999  1.4690 -0.7123  0.6258
 7786TIP3   OH244848   0.972   1.118  94.624 -0.2201 -0.1322 -0.0865
 7786TIP3    H144849   0.963   1.062  94.547 -2.4786 -0.9118  0.6580
 7786TIP3    H244850   0.884   1.151  94.639  0.2129  0.1503  2.0609
 7787TIP3   OH244851   1.136   2.361  31.815  1.0896 -0.0556 -0.3072
 7787TIP3    H144852   1.060   2.342  31.759  0.7861 -0.7985  0.3407
 7787TIP3    H244853   1.149   2.281  31.866  0.9533  0.8304  1.1613
 7788TIP3   OH244854   1.362   1.940  96.885  0.1990 -0.1842 -0.5561
 7788TIP3    H144855   1.380   1.895  96.968  0.6200  0.3055 -0.3786
 7788TIP3    H244856   1.415   1.892  96.821  0.1618 -0.3321 -0.4802
 7789TIP3   OH244857   2.595   1.395  17.768 -0.2781 -0.1083  0.1638
 7789TIP3    H144858   2.558   1.470  17.721 -0.4351 -0.1790  0.1726
 7789TIP3    H244859   2.551   1.398  17.854 -0.4117 -0.3102  0.1029
 7790TIP3   OH244860   2.266   1.963  46.018 -0.2442 -0.2282 -0.0385
 7790TIP3    H144861   2.233   1.937  45.932 -1.1814 -1.5970  0.6987
 7790TIP3    H244862   2.331   2.031  45.999 -1.1426  0.2066 -1.7508
 7791TIP3   OH244863   1.964   0.993 107.922  0.0003  0.2448 -0.3276
 7791TIP3    H144864   2.055   1.004 107.894  0.1502 -1.2815 -0.4996
 7791TIP3    H244865   1.960   1.032 108.009  0.9740 -0.2060 -0.0660
 7792TIP3   OH244866   2.117   0.998  29.518  0.0588 -0.1337  0.3480
 7792TIP3    H144867   2.048   0.945  29.557  0.3844 -1.1432 -0.3985
 7792TIP3    H244868   2.094   1.088  29.539 -1.6019 -0.4381 -0.0558
 7793TIP3   OH244869   1.341   2.609  89.833  1.0292  0.2568  0.3553
 7793TIP3    H144870   1.292   2.638  89.757  1.4153  1.4279  0.5331
 7793TIP3    H244871   1.423   2.575  89.797  0.8398 -0.0364  0.1973
 7794TIP3   OH244872   1.289   2.376   3.445 -0.5934  0.1326  0.3007
 7794TIP3    H144873   1.303   2.419   3.529  0.2555 -1.2051  0.8813
 7794TIP3    H244874   1.293   2.283   3.465  0.9509 -0.2178 -1.4347
 7795TIP3   OH244875   1.011   1.189  14.499  0.3855  0.2367  0.3179
 7795TIP3    H144876   0.937   1.238  14.534  1.4110  0.6584  2.0513
 7795TIP3    H244877   1.086   1.247  14.512  1.1476 -0.4678 -0.7083
 7796TIP3   OH244878   0.313   2.182 112.170  0.0209 -0.3210  0.5367
 7796TIP3    H144879   0.249   2.136 112.224 -0.5144 -0.1096  0.0977
 7796TIP3    H244880   0.313   2.133 112.087  1.4087 -1.1155  0.9811
 7797TIP3   OH244881   2.171   0.893  14.607  0.0991  0.2702  0.2989
 7797TIP3    H144882   2.075   0.895  14.603 -0.1633 -2.5665  2.4672
 7797TIP3    H244883   2.191   0.869  14.697  2.9837  2.5308  0.4095
 7798TIP3   OH244884   0.286   2.670  78.730 -0.0597 -0.5535  0.5422
 7798TIP3    H144885   0.339   2.724  78.789  0.9373 -1.4307  0.4697
 7798TIP3    H244886   0.257   2.731  78.662  0.5788  0.0032  0.7577
 7799TIP3   OH244887   1.041   2.227   5.114  0.4904 -0.1722 -0.4052
 7799TIP3    H144888   1.071   2.145   5.154 -0.6004 -0.2189  0.3558
 7799TIP3    H244889   1.063   2.218   5.021 -0.0521 -1.5346 -0.4231
 7800TIP3   OH244890   2.018   0.764 102.367  0.0553  0.2970  0.2004
 7800TIP3    H144891   1.982   0.806 102.288 -0.9055 -1.2912 -0.2637
 7800TIP3    H244892   2.016   0.833 102.433  1.6998  1.9477 -1.3373
 7801TIP3   OH244893   0.439   1.953  94.583  0.1395 -0.2007  0.9885
 7801TIP3    H144894   0.346   1.971  94.574  0.1036 -0.1509  1.4745
 7801TIP3    H244895   0.482   2.020  94.530 -0.2103 -2.3280 -2.3290
 7802TIP3   OH244896   0.945   1.418   4.256 -0.4929 -0.0971 -0.1568
 7802TIP3    H144897   0.853   1.407   4.232 -0.5648  1.0494 -0.4622
 7802TIP3    H244898   0.983   1.467   4.183  0.2989 -0.3518  0.0792
 7803TIP3   OH244899   0.818   0.192  22.200 -0.6131  0.0861  0.3621
 7803TIP3    H144900   0.795   0.105  22.233 -0.8875  0.5716  1.5193
 7803TIP3    H244901   0.874   0.175  22.124 -1.1194 -1.0952  0.2325
 7804TIP3   OH244902   1.911   0.806  15.084 -0.2585  0.4474  0.1430
 7804TIP3    H144903   1.957   0.724  15.070  1.6087  1.5942 -0.8525
 7804TIP3    H244904   1.818   0.784  15.078  0.2130 -1.5007 -0.4288
 7805TIP3   OH244905   1.478   1.214  32.280  0.2267  0.3779 -0.2278
 7805TIP3    H144906   1.402   1.161  32.306 -0.2790  0.6873 -1.0102
 7805TIP3    H244907   1.478   1.287  32.341 -0.7817  0.9512 -0.8741
 7806TIP3   OH244908   0.313   1.524  23.093 -0.4608 -0.0667 -0.4502
 7806TIP3    H144909   0.298   1.430  23.106 -0.3580 -0.0678 -0.3425
 7806TIP3    H244910   0.227   1.564  23.108 -0.2766 -0.0322  0.5664
 7807TIP3   OH244911   2.321   2.366  22.968  0.2271  0.1272 -0.5797
 7807TIP3    H144912   2.236   2.329  22.944  0.5446 -0.4223 -0.8708
 7807TIP3    H244913   2.310   2.461  22.955 -0.6979  0.1825  0.5104
 7808TIP3   OH244914   2.594   0.062  16.115 -0.3116  0.3328 -0.2323
 7808TIP3    H144915   2.673   0.097  16.156 -0.4094  0.7225 -0.3697
 7808TIP3    H244916   2.623  -0.019  16.073 -0.5825 -1.0944  2.1601
 7809TIP3   OH244917   1.351   1.847  85.750 -0.2774 -0.1076  0.1941
 7809TIP3    H144918   1.307   1.810  85.827  0.8496 -0.2900  0.7595
 7809TIP3    H244919   1.427   1.893  85.785  0.3079 -0.2845 -0.8211
 7810TIP3   OH244920   1.306   1.130  57.573  0.0676 -0.5570 -0.3239
 7810TIP3    H144921   1.260   1.188  57.635  0.4261 -0.4608 -0.1481
 7810TIP3    H244922   1.268   1.151  57.488  1.7589  1.5600 -0.6352
 7811TIP3   OH244923   2.143   2.166  76.798  0.0876  0.3812  0.3328
 7811TIP3    H144924   2.210   2.188  76.863  0.0919 -0.0433  0.4729
 7811TIP3    H244925   2.131   2.072  76.806 -0.6998  0.4827  0.4769
 7812TIP3   OH244926   1.055   1.093   6.305 -0.1344 -0.5697  0.1748
 7812TIP3    H144927   1.118   1.117   6.238 -0.6514 -1.0233 -0.4897
 7812TIP3    H244928   1.084   1.007   6.336  0.4046 -0.1280  0.9145
 7813TIP3   OH244929   0.278   1.463  80.157 -0.0464 -0.5210  0.4344
 7813TIP3    H144930   0.208   1.454  80.093  0.4167 -2.4065  0.1234
 7813TIP3    H244931   0.292   1.557  80.165  0.2758 -0.2056 -2.6906
 7814TIP3   OH244932   1.431   2.122  23.815  0.1759  0.3741  0.3557
 7814TIP3    H144933   1.418   2.076  23.732 -1.4398  1.0606  0.1827
 7814TIP3    H244934   1.356   2.182  23.821  0.8453  1.1179  1.7921
 7815TIP3   OH244935   2.528   1.336  22.767 -0.4500  0.3662  0.0146
 7815TIP3    H144936   2.520   1.267  22.833 -0.2025  0.2593 -0.0689
 7815TIP3    H244937   2.550   1.289  22.686 -3.0825  0.2087 -0.7215
 7816TIP3   OH244938   2.289   2.534 100.255  0.5678  0.3541  0.2456
 7816TIP3    H144939   2.294   2.439 100.266  0.7632  0.2774 -0.4724
 7816TIP3    H244940   2.243   2.546 100.172  0.3059  0.8969  0.4613
 7817TIP3   OH244941   1.864   0.008   6.287  0.2224  0.3595  0.4002
 7817TIP3    H144942   1.826   0.020   6.375  0.1952  3.0612  0.0995
 7817TIP3    H244943   1.951  -0.028   6.303 -0.6599 -1.5363  1.3461
 7818TIP3   OH244944   1.943   2.613   2.960  0.3853 -0.3594  0.2100
 7818TIP3    H144945   1.848   2.627   2.952  0.2654 -1.1156  0.2361
 7818TIP3    H244946   1.981   2.701   2.952 -0.3763  0.0755  1.1282
 7819TIP3   OH244947   0.084   1.003 101.181 -0.1882 -0.0016  0.5306
 7819TIP3    H144948   0.072   0.908 101.175  0.3734 -0.0719  0.4244
 7819TIP3    H244949   0.138   1.015 101.259 -0.4374  0.2477  0.6625
 7820TIP3   OH244950   0.624   0.228  42.187 -0.1789 -0.3767 -0.1677
 7820TIP3    H144951   0.628   0.156  42.124 -0.4767 -1.9657  1.5364
 7820TIP3    H244952   0.557   0.287  42.152  0.0912 -0.9000 -1.6246
 7821TIP3   OH244953   0.655   0.893  87.479 -0.6040 -0.1077 -0.4336
 7821TIP3    H144954   0.663   0.958  87.410  0.8643 -0.8541 -1.0165
 7821TIP3    H244955   0.613   0.940  87.552  2.0441  2.0613 -0.1539
 7822TIP3   OH244956   0.616   0.888  32.878  0.3649  0.0137  0.3665
 7822TIP3    H144957   0.612   0.835  32.958 -2.4033 -0.4701  0.0094
 7822TIP3    H244958   0.624   0.978  32.909  0.3631 -0.2490  1.1637
 7823TIP3   OH244959   1.965   0.950  96.908  0.3849  0.2083  0.7250
 7823TIP3    H144960   1.960   1.036  96.867 -0.6090 -0.3933 -0.4895
 7823TIP3    H244961   1.922   0.960  96.992  1.2669  1.1532  1.0771
 7824TIP3   OH244962   2.637   1.295  15.057 -0.3099 -0.0309  0.3964
 7824TIP3    H144963   2.670   1.207  15.040  0.5579 -0.0336  1.9109
 7824TIP3    H244964   2.669   1.348  14.984  1.1987 -0.5070  0.6677
 7825TIP3   OH244965   1.039   0.130 111.296  0.4635 -0.4464 -0.3216
 7825TIP3    H144966   1.015   0.045 111.259  0.6267 -0.7966  0.3564
 7825TIP3    H244967   1.121   0.114 111.342  0.5271  0.0917 -0.2424
 7826TIP3   OH244968   0.186   2.301 103.574  0.4717  0.1189  0.1803
 7826TIP3    H144969   0.231   2.381 103.549  0.1569  0.3549  0.3667
 7826TIP3    H244970   0.123   2.285 103.504  1.1933 -0.4966 -0.3459
 7827TIP3   OH244971   0.898   1.900  20.955  0.4798 -0.7189  0.0970
 7827TIP3    H144972   0.834   1.896  20.885  1.3949 -0.9654 -0.7418
 7827TIP3    H244973   0.846   1.916  21.034 -0.6918 -1.8176 -0.4225
 7828TIP3   OH244974   0.221   0.751 111.988  0.3410 -0.1667 -0.1048
 7828TIP3    H144975   0.191   0.833 111.948 -3.3951 -1.1470  0.3073
 7828TIP3    H244976   0.251   0.698 111.914  0.3874  0.6361 -0.6724
 7829TIP3   OH244977   2.561   1.289   8.117  0.3423  0.0119 -0.5413
 7829TIP3    H144978   2.618   1.353   8.160  1.7453 -1.1692 -0.5736
 7829TIP3    H244979   2.524   1.336   8.043  1.0619  0.8887 -0.3615
 7830TIP3   OH244980   0.586   2.025  96.676 -0.1801 -0.4030 -0.1568
 7830TIP3    H144981   0.678   2.026  96.702 -0.0384 -0.7812 -0.6199
 7830TIP3    H244982   0.545   2.093  96.730  0.0724 -1.2133  1.1107
 7831TIP3   OH244983   0.130   0.187 102.440 -0.2944  0.4041  0.2606
 7831TIP3    H144984   0.170   0.238 102.511  0.0508 -0.2864  0.5645
 7831TIP3    H244985   0.202   0.136 102.403 -0.3566  1.1337 -0.9430
 7832TIP3   OH244986   1.312   0.683  87.142  0.5855  0.2833  0.0479
 7832TIP3    H144987   1.297   0.635  87.223  1.3341 -0.2529 -0.1155
 7832TIP3    H244988   1.253   0.757  87.146  0.7124  0.3310  1.1392
 7833TIP3   OH244989   2.296   1.590 102.902 -0.2572  0.0227  0.2401
 7833TIP3    H144990   2.325   1.644 102.976  0.9547 -1.2577  0.7254
 7833TIP3    H244991   2.216   1.549 102.933  0.6845 -1.1638  1.1994
 7834TIP3   OH244992   1.635   0.512  78.488 -0.0488  0.2578  0.3722
 7834TIP3    H144993   1.570   0.444  78.505 -0.4957  0.8518  1.0778
 7834TIP3    H244994   1.687   0.517  78.568 -0.0262  0.7635  0.3252
 7835TIP3   OH244995   1.337   2.623  83.258 -0.1193 -0.9085  0.6476
 7835TIP3    H144996   1.305   2.699  83.211 -2.0200 -0.4471  2.5556
 7835TIP3    H244997   1.317   2.549  83.201  1.2678 -0.0885 -0.9839
 7836TIP3   OH244998   1.908   0.340  90.005  0.3016  0.2645 -0.2071
 7836TIP3    H144999   1.883   0.368  89.917  2.7926  0.1949 -0.9966
 7836TIP3    H245000   1.938   0.250  89.994 -1.6038 -0.6020  1.1861
 7837TIP3   OH245001   2.168   0.755  39.755  0.0612  0.5500 -0.4713
 7837TIP3    H145002   2.170   0.732  39.848  2.6116  0.2368 -0.5106
 7837TIP3    H245003   2.115   0.687  39.714  1.8293 -1.4480  0.3467
 7838TIP3   OH245004   1.505   1.173  20.328 -0.0827 -0.4555 -0.2474
 7838TIP3    H145005   1.450   1.146  20.402 -0.4092 -0.3411 -0.4447
 7838TIP3    H245006   1.487   1.109  20.260 -1.3604  0.6034 -0.9486
 7839TIP3   OH245007   1.456   2.128  80.744  0.1416  0.7549 -0.1032
 7839TIP3    H145008   1.417   2.164  80.664 -1.5760 -0.8809 -0.0801
 7839TIP3    H245009   1.423   2.184  80.814 -2.1991 -0.4918 -0.1042
 7840TIP3   OH245010   1.097   1.899   2.882  0.0687  0.3312 -0.0009
 7840TIP3    H145011   1.004   1.888   2.898  0.1605  0.2101  0.4480
 7840TIP3    H245012   1.102   1.938   2.794 -0.3589 -0.8180 -0.5511
 7841TIP3   OH245013   0.632   0.275  30.736 -0.2241  0.3739  0.0151
 7841TIP3    H145014   0.636   0.180  30.730  2.4436  0.3074  1.2115
 7841TIP3    H245015   0.601   0.292  30.825 -0.7839  0.6359 -0.2264
 7842TIP3   OH245016   1.942   0.876  18.997  0.1547  0.3212 -0.3612
 7842TIP3    H145017   1.982   0.796  18.964 -1.4248  0.0531 -1.7511
 7842TIP3    H245018   1.942   0.936  18.923  0.4596  1.3059  0.4037
 7843TIP3   OH245019   2.306   0.495   5.205  0.2126  0.0134  0.4941
 7843TIP3    H145020   2.263   0.472   5.287 -3.1769 -0.2635 -1.1764
 7843TIP3    H245021   2.290   0.589   5.195 -1.3047 -0.3461 -0.7893
 7844TIP3   OH245022   2.368   1.419  87.513  0.2322 -0.2089  0.2879
 7844TIP3    H145023   2.362   1.364  87.591  1.0846 -1.5555 -0.5423
 7844TIP3    H245024   2.323   1.369  87.445 -0.3608  0.8718 -0.1391
 7845TIP3   OH245025   1.752   0.560  10.849 -0.3920  0.0425 -0.1813
 7845TIP3    H145026   1.694   0.631  10.823  0.0076  0.7648  0.8209
 7845TIP3    H245027   1.807   0.598  10.917  0.6823 -0.8728 -0.5108
 7846TIP3   OH245028   2.063   0.762  28.279 -0.2433 -0.4663 -0.3656
 7846TIP3    H145029   2.060   0.850  28.317  0.6284  0.0165 -1.3564
 7846TIP3    H245030   2.126   0.714  28.333 -0.9578 -0.6052  0.3742
 7847TIP3   OH245031   1.816   0.468  15.145  0.3746  1.1610 -0.2351
 7847TIP3    H145032   1.788   0.542  15.199 -0.9810  0.2251  0.4017
 7847TIP3    H245033   1.824   0.395  15.206  1.9765  0.8080 -0.8035
 7848TIP3   OH245034   0.332   1.021   0.495 -0.5697  0.1721  0.0268
 7848TIP3    H145035   0.274   1.087   0.457 -0.6471  0.2401  0.2578
 7848TIP3    H245036   0.274   0.969   0.551 -0.4559  0.0808  0.0591
 7849TIP3   OH245037   0.234   1.504 110.667  0.0738  0.0352  0.7529
 7849TIP3    H145038   0.289   1.488 110.743 -0.1258  0.7002  1.0524
 7849TIP3    H245039   0.287   1.477 110.592  0.4558 -0.1662  1.0954
 7850TIP3   OH245040   0.296   1.567  11.213 -0.2142 -0.1822 -0.1125
 7850TIP3    H145041   0.213   1.539  11.175  0.1475 -0.2762 -0.8513
 7850TIP3    H245042   0.313   1.505  11.284 -1.2678  0.4449  0.7220
 7851TIP3   OH245043   0.727   0.159 107.767  0.1897  0.0649  0.0894
 7851TIP3    H145044   0.646   0.142 107.718  0.0778 -0.6104  0.4971
 7851TIP3    H245045   0.699   0.206 107.845  0.2824  0.5142 -0.1449
 7852TIP3   OH245046   0.207   2.083  28.145  0.1276 -0.0755  0.4112
 7852TIP3    H145047   0.226   2.070  28.238  0.0966 -1.3201  0.2562
 7852TIP3    H245048   0.265   2.155  28.119  0.3375  0.0997  1.3255
 7853TIP3   OH245049   0.437   0.770  23.480 -0.4684 -0.1999 -0.0376
 7853TIP3    H145050   0.344   0.791  23.467 -0.7508 -1.0924  0.4926
 7853TIP3    H245051   0.465   0.736  23.395 -1.1700 -1.8557  0.3616
 7854TIP3   OH245052   2.598   0.799  86.748  0.1860 -0.3567 -0.3066
 7854TIP3    H145053   2.626   0.886  86.777 -0.9509 -0.2510  0.5634
 7854TIP3    H245054   2.671   0.767  86.695  0.3005  1.4558 -1.3481
 7855TIP3   OH245055   1.164   1.978  78.336  0.0881 -0.0458 -0.4666
 7855TIP3    H145056   1.123   2.055  78.297 -1.5182 -1.4263 -1.6213
 7855TIP3    H245057   1.123   1.903  78.293  1.3779 -1.5911  0.8173
 7856TIP3   OH245058   0.626   2.588  76.913 -0.2862  0.1768 -0.4028
 7856TIP3    H145059   0.546   2.535  76.908 -0.5672  0.6052 -0.4898
 7856TIP3    H245060   0.599   2.668  76.958  0.3297 -0.1044  0.5115
 7857TIP3   OH245061   2.447   1.190  74.783 -0.1897  0.5949 -0.0047
 7857TIP3    H145062   2.534   1.173  74.819  0.0035  1.7542  0.1249
 7857TIP3    H245063   2.433   1.283  74.799 -1.2516  0.5275 -0.4773
 7858TIP3   OH245064   1.717   0.821  16.248  0.0341 -0.7663 -0.2359
 7858TIP3    H145065   1.642   0.775  16.210 -0.2867 -0.6328  0.2290
 7858TIP3    H245066   1.757   0.866  16.174 -0.4740 -0.6592 -0.4535
 7859TIP3   OH245067   2.002   2.085  99.733  0.3884 -0.2273 -0.4554
 7859TIP3    H145068   1.976   2.088  99.641  1.6669  0.6193 -0.8227
 7859TIP3    H245069   2.082   2.033  99.733  1.2349  1.0241 -0.0726
 7860TIP3   OH245070   1.449   1.439 107.461  0.2393 -0.0337 -0.1665
 7860TIP3    H145071   1.482   1.427 107.372 -0.3090  0.2347 -0.4118
 7860TIP3    H245072   1.426   1.351 107.491 -0.1803 -0.0502 -0.5329
 7861TIP3   OH245073   1.789   1.818  97.767  0.3283 -0.3158 -0.3659
 7861TIP3    H145074   1.733   1.875  97.820  0.6175 -0.5098  0.1592
 7861TIP3    H245075   1.737   1.800  97.689 -1.2736 -2.2865  1.0400
 7862TIP3   OH245076   2.181   0.350  62.811  0.7638 -0.3492 -0.3413
 7862TIP3    H145077   2.228   0.285  62.760 -1.2696  0.1304 -3.1153
 7862TIP3    H245078   2.093   0.352  62.771 -0.4832  1.2400  2.2377
 7863TIP3   OH245079   1.523   2.454 100.068  0.2281  0.1854  0.5162
 7863TIP3    H145080   1.575   2.408 100.002  2.2970 -0.2968  2.3515
 7863TIP3    H245081   1.569   2.538 100.080 -0.4235  0.4864  0.9638
 7864TIP3   OH245082   1.222   0.071  93.337 -0.0741 -0.0659 -0.8287
 7864TIP3    H145083   1.131   0.059  93.310 -0.5041  0.5152  0.3088
 7864TIP3    H245084   1.254   0.144  93.284  0.7398 -2.1528 -3.4750
 7865TIP3   OH245085   0.203   0.193  19.970  0.6506  0.0138  0.1004
 7865TIP3    H145086   0.200   0.256  20.042 -0.2813  2.8505 -2.2171
 7865TIP3    H245087   0.117   0.151  19.971 -0.0927  1.4577 -0.4501
 7866TIP3   OH245088   1.457   0.527  86.586 -0.3238 -0.0657 -0.2659
 7866TIP3    H145089   1.425   0.466  86.652 -2.3016 -0.8584 -1.8203
 7866TIP3    H245090   1.379   0.577  86.560  0.6776  1.1529 -1.0318
 7867TIP3   OH245091   0.747   1.490  83.966  0.2341  0.6991  0.3411
 7867TIP3    H145092   0.836   1.518  83.986  0.5927  0.4382 -0.7905
 7867TIP3    H245093   0.726   1.425  84.032  0.2881  1.8540  1.5465
 7868TIP3   OH245094   1.113   2.306  52.059  0.3581 -0.4254  0.2050
 7868TIP3    H145095   1.160   2.245  52.003  0.9875 -0.1007  0.3627
 7868TIP3    H245096   1.181   2.365  52.092 -0.0523 -0.4011  1.0288
 7869TIP3   OH245097   0.475   2.268  95.016  0.2564 -0.3442  0.0981
 7869TIP3    H145098   0.495   2.343  95.072  0.7132 -2.3951  2.9459
 7869TIP3    H245099   0.380   2.271  95.005  0.4118  1.4284 -1.1304
 7870TIP3   OH245100   1.593   0.647  80.418  0.1214  0.3654  0.8019
 7870TIP3    H145101   1.628   0.711  80.357  2.0987 -0.7450  0.6839
 7870TIP3    H245102   1.553   0.580  80.363  1.4217 -0.3608  0.6928
 7871TIP3   OH245103   2.019   2.611  96.109  0.0781  0.2707 -0.5131
 7871TIP3    H145104   2.063   2.542  96.158  0.6769  1.0030 -0.0049
 7871TIP3    H245105   1.991   2.569  96.028  1.8861 -0.1649 -0.9445
 7872TIP3   OH245106   1.422   0.701  14.027 -0.4008  0.5127  0.3899
 7872TIP3    H145107   1.492   0.763  14.047 -0.7784  1.0375  0.1061
 7872TIP3    H245108   1.400   0.661  14.112 -0.7823  1.4357  0.7416
 7873TIP3   OH245109   2.155   0.056  90.817  0.0585  0.7950 -0.1542
 7873TIP3    H145110   2.135   0.146  90.843  0.4388  0.2448  2.2548
 7873TIP3    H245111   2.072   0.020  90.786 -0.3407  1.6289 -0.0554
 7874TIP3   OH245112   1.896   0.854  96.649  0.1729 -0.0460 -0.0084
 7874TIP3    H145113   1.985   0.841  96.617 -0.1565 -3.6567  0.0560
 7874TIP3    H245114   1.907   0.901  96.732  2.2523 -1.7696  0.7943
 7875TIP3   OH245115   2.593   2.646  89.468  0.0317 -0.2149  0.0866
 7875TIP3    H145116   2.592   2.551  89.482 -1.9954 -0.2325  0.0503
 7875TIP3    H245117   2.581   2.684  89.555 -2.0256 -0.0988 -0.1987
 7876TIP3   OH245118   1.913   2.221   4.075  0.1346 -0.5829  0.2993
 7876TIP3    H145119   1.879   2.132   4.068 -0.7736 -0.4469  2.3639
 7876TIP3    H245120   1.864   2.260   4.147  0.5220  1.6040 -0.5436
 7877TIP3   OH245121   2.490   0.492  10.614 -0.0162 -0.6584  0.2505
 7877TIP3    H145122   2.473   0.398  10.603  0.8277 -0.7029 -0.8920
 7877TIP3    H245123   2.558   0.511  10.549 -0.9633  0.9783 -0.3214
 7878TIP3   OH245124   0.730   2.134   8.586 -0.2963 -0.1544 -0.8059
 7878TIP3    H145125   0.669   2.173   8.648 -1.6635 -1.5540 -1.2028
 7878TIP3    H245126   0.676   2.112   8.510  0.8828 -0.6519 -1.5231
 7879TIP3   OH245127   1.913   1.122 100.482  0.2017  0.2979 -0.0759
 7879TIP3    H145128   1.958   1.066 100.546  0.3092  0.4256 -0.0386
 7879TIP3    H245129   1.871   1.190 100.535 -0.1781  0.0800 -0.0969
 7880TIP3   OH245130   1.277   0.795   0.413 -0.0886 -0.4924 -0.0881
 7880TIP3    H145131   1.351   0.840   0.371 -0.9666  0.6798 -0.4310
 7880TIP3    H245132   1.288   0.815   0.506  0.6304 -1.2595  0.0082
 7881TIP3   OH245133   1.375   0.541  88.562 -0.1091 -0.0219  0.4547
 7881TIP3    H145134   1.377   0.459  88.611  0.1787 -0.8154 -0.8229
 7881TIP3    H245135   1.318   0.523  88.487  2.7908 -0.3164 -1.8684
 7882TIP3   OH245136   1.286   0.761  86.024  0.4369  0.4941 -0.0268
 7882TIP3    H145137   1.234   0.818  86.081  0.0627  0.2366 -0.1072
 7882TIP3    H245138   1.376   0.793  86.033 -0.0809  2.8824 -2.1646
 7883TIP3   OH245139   1.448   2.003  27.409  0.0328  0.0557  0.3160
 7883TIP3    H145140   1.367   1.981  27.456 -1.4655  0.4889 -1.8992
 7883TIP3    H245141   1.516   1.954  27.454 -1.7426 -1.7529  1.1900
 7884TIP3   OH245142   2.194   2.525  76.249  0.3636 -0.3049  0.1306
 7884TIP3    H145143   2.114   2.482  76.278 -0.7169  0.9098 -0.9227
 7884TIP3    H245144   2.167   2.579  76.175  2.0237  0.6914  0.1965
 7885TIP3   OH245145   0.808   0.881  82.255 -0.2632  0.9837  0.5014
 7885TIP3    H145146   0.827   0.940  82.328  1.4566  2.2561 -0.8869
 7885TIP3    H245147   0.890   0.833  82.241 -0.6483  0.5673 -0.4119
 7886TIP3   OH245148   0.088   2.195  33.869  0.2435  0.5399  0.1973
 7886TIP3    H145149   0.125   2.111  33.843 -0.4104  0.8918 -2.1271
 7886TIP3    H245150   0.121   2.257  33.803 -1.9234  1.4408 -0.1149
 7887TIP3   OH245151   1.585   2.458   9.897  0.4754 -0.0261 -0.0616
 7887TIP3    H145152   1.595   2.455   9.992 -1.3335 -0.7552  0.1394
 7887TIP3    H245153   1.644   2.528   9.869  0.7987  0.4125  1.6219
 7888TIP3   OH245154   0.358   0.461  29.659  0.1303 -0.1772 -0.5982
 7888TIP3    H145155   0.415   0.386  29.671 -0.6035 -0.5488  0.8485
 7888TIP3    H245156   0.416   0.531  29.628  1.0744 -0.9419 -0.6020
 7889TIP3   OH245157   2.671   1.139  93.036 -0.1912  0.0050 -0.2809
 7889TIP3    H145158   2.671   1.097  93.122  2.1130  0.3510 -0.0440
 7889TIP3    H245159   2.762   1.137  93.008 -0.3066  2.8697 -1.2264
 7890TIP3   OH245160   0.092   1.195 110.872  0.2604  0.1984  0.0004
 7890TIP3    H145161   0.162   1.142 110.910  0.5774  1.8786  1.9537
 7890TIP3    H245162   0.087   1.272 110.929 -3.6638 -0.1697  0.4381
 7891TIP3   OH245163   0.899   0.610  92.675  0.1289 -0.1965 -0.3476
 7891TIP3    H145164   0.955   0.682  92.645  1.2122 -0.9315 -0.1642
 7891TIP3    H245165   0.960   0.548  92.716 -0.8890 -0.8125  0.2709
 7892TIP3   OH245166   2.102   0.459  92.903 -0.1548 -0.4688 -0.0403
 7892TIP3    H145167   2.183   0.417  92.932 -0.3521 -0.5242  0.4368
 7892TIP3    H245168   2.063   0.395  92.843 -0.4067 -0.9329  0.6167
 7893TIP3   OH245169   2.606   0.172 100.354 -0.0036  0.1801  0.2025
 7893TIP3    H145170   2.621   0.264 100.333 -0.2193  0.2634  0.4187
 7893TIP3    H245171   2.552   0.139 100.281 -0.0572  0.2641  0.2060
 7894TIP3   OH245172   2.133   0.453   5.408  0.3447 -0.4903  0.5303
 7894TIP3    H145173   2.092   0.539   5.405  0.5099 -0.4341 -1.3537
 7894TIP3    H245174   2.060   0.391   5.409  0.2181 -0.3463  0.2433
 7895TIP3   OH245175   0.001   0.894  27.925 -0.2315 -0.5485 -0.0367
 7895TIP3    H145176  -0.057   0.875  27.999 -0.4417 -0.7302 -0.2457
 7895TIP3    H245177  -0.001   0.989  27.917 -1.6297 -0.6295 -0.9277
 7896TIP3   OH245178   1.968   2.568  37.949 -0.2016  0.4286 -0.0133
 7896TIP3    H145179   1.932   2.513  38.019 -0.3912 -1.1605 -1.2860
 7896TIP3    H245180   2.040   2.616  37.990 -0.8342  0.1698  1.4560
 7897TIP3   OH245181   0.591   1.269  28.294 -0.1897  0.1850 -0.4006
 7897TIP3    H145182   0.600   1.327  28.218  0.5653 -0.7275 -1.0391
 7897TIP3    H245183   0.668   1.287  28.347 -0.0154 -0.1374 -0.5399
 7898TIP3   OH245184   1.363   0.733  94.330 -0.0864  0.4873  0.2705
 7898TIP3    H145185   1.278   0.768  94.305 -0.3032 -1.2556 -1.7456
 7898TIP3    H245186   1.424   0.805  94.314 -1.1622  1.8642  2.0524
 7899TIP3   OH245187   2.072   0.606  11.396 -0.2059 -0.2232 -0.1400
 7899TIP3    H145188   2.086   0.558  11.478 -0.2786  2.1021  1.3122
 7899TIP3    H245189   2.150   0.660  11.386 -0.1974 -0.4705 -1.6470
 7900TIP3   OH245190   2.215   0.631  40.021  0.4109  0.7581  0.0608
 7900TIP3    H145191   2.282   0.651  40.086  1.0840 -0.3149 -0.2783
 7900TIP3    H245192   2.155   0.572  40.066 -0.3842  1.7921  0.3912
 7901TIP3   OH245193   2.008   1.334  94.657 -0.0809 -0.2868  0.4289
 7901TIP3    H145194   2.051   1.359  94.739  0.1117 -1.7258  0.7846
 7901TIP3    H245195   2.075   1.287  94.608 -0.9072 -1.6571  0.5554
 7902TIP3   OH245196   0.242   0.483  99.958 -0.4356 -0.2927  0.2680
 7902TIP3    H145197   0.149   0.465  99.964 -0.4626  0.1514  1.8215
 7902TIP3    H245198   0.276   0.416  99.899 -1.9892  0.6908 -1.8669
 7903TIP3   OH245199   1.041   1.598  12.113 -0.0308 -0.2507  0.6916
 7903TIP3    H145200   1.101   1.554  12.052 -0.4078  0.7938 -0.4639
 7903TIP3    H245201   0.986   1.653  12.057 -1.4149 -0.4270  1.8310
 7904TIP3   OH245202   0.837   0.356   5.751 -0.1338  0.3615  0.2611
 7904TIP3    H145203   0.751   0.352   5.709 -0.2130 -0.4256  0.4810
 7904TIP3    H245204   0.846   0.448   5.777 -0.9615  0.4306  0.3440
 7905TIP3   OH245205   1.306   2.680  81.910  0.0239 -0.2468 -0.4972
 7905TIP3    H145206   1.231   2.718  81.865  0.1182  0.4499 -0.0676
 7905TIP3    H245207   1.286   2.688  82.003  0.4213 -0.4792 -0.3838
 7906TIP3   OH245208   1.182   1.543  94.284 -0.2174 -0.2919  0.5562
 7906TIP3    H145209   1.251   1.545  94.350  0.8966  1.8457 -0.5618
 7906TIP3    H245210   1.224   1.503  94.208 -1.7900 -3.7179  1.3241
 7907TIP3   OH245211   1.994   1.996 100.892 -0.5069  0.4610  0.1050
 7907TIP3    H145212   2.051   1.978 100.967  1.0047 -1.4270 -1.3730
 7907TIP3    H245213   1.912   1.953 100.913 -0.6418  1.2814  1.3242
 7908TIP3   OH245214   0.775   0.945  15.338  0.6308  0.0043  0.2004
 7908TIP3    H145215   0.863   0.920  15.310  0.7550  0.6818 -0.0238
 7908TIP3    H245216   0.724   0.865  15.329  1.0936 -0.2525 -0.2113
 7909TIP3   OH245217   2.391   1.016  94.695 -0.2678 -0.1603  0.1398
 7909TIP3    H145218   2.431   1.020  94.608 -0.4020  0.4352  0.0924
 7909TIP3    H245219   2.399   0.925  94.721  0.3222 -0.2273 -0.2440
 7910TIP3   OH245220   0.878   1.417  21.365  0.5729 -0.2770 -0.6532
 7910TIP3    H145221   0.885   1.441  21.458 -0.6753 -0.1171 -0.5856
 7910TIP3    H245222   0.860   1.499  21.320 -1.0021 -0.6522 -0.7526
 7911TIP3   OH245223   1.773   0.215   0.174 -0.2440  0.4609 -0.1873
 7911TIP3    H145224   1.781   0.211   0.269  1.9347 -1.6390 -0.3527
 7911TIP3    H245225   1.844   0.274   0.147 -1.3264  1.6528 -0.5134
 7912TIP3   OH245226   2.439   1.473   1.927  0.0716  0.4365  0.0868
 7912TIP3    H145227   2.421   1.433   1.842  0.5993 -0.6711  0.4774
 7912TIP3    H245228   2.356   1.470   1.974  0.3192 -1.1655  0.4817
 7913TIP3   OH245229   2.137   2.354  25.422 -0.0184  0.4339  0.3120
 7913TIP3    H145230   2.114   2.261  25.418  0.2383  0.3634  0.4678
 7913TIP3    H245231   2.063   2.398  25.381  0.4733  0.0707 -1.0281
 7914TIP3   OH245232   2.331   0.350  32.324 -0.7201 -0.7551  0.3041
 7914TIP3    H145233   2.329   0.304  32.240  2.1692 -1.6785  0.6395
 7914TIP3    H245234   2.355   0.440  32.301 -1.1064 -0.7042  0.0773
 7915TIP3   OH245235   2.581   2.380  94.424  0.1260 -0.1043  0.0238
 7915TIP3    H145236   2.518   2.317  94.389  0.2921 -0.1600 -0.1811
 7915TIP3    H245237   2.616   2.424  94.347 -0.1498  0.3951  0.1828
 7916TIP3   OH245238   2.276   0.441 104.415  0.2740  0.2736  0.1755
 7916TIP3    H145239   2.328   0.490 104.351 -0.0750  0.7335  0.2338
 7916TIP3    H245240   2.186   0.445 104.381  0.2823 -0.5979  0.0129
 7917TIP3   OH245241   2.021   0.259  56.561  0.1563 -0.3487 -0.5981
 7917TIP3    H145242   2.020   0.277  56.655  0.4598  4.9132 -1.3184
 7917TIP3    H245243   1.929   0.259  56.535  0.0876 -1.4987 -0.4018
 7918TIP3   OH245244   0.744   0.040   2.433 -0.4089 -0.0351  0.0922
 7918TIP3    H145245   0.756   0.113   2.494 -0.5235 -0.5000  0.6897
 7918TIP3    H245246   0.787   0.068   2.352  2.0472 -0.4038  1.1673
 7919TIP3   OH245247   1.003   0.840  13.906  0.2851 -0.2180 -0.2096
 7919TIP3    H145248   1.080   0.881  13.867  0.0029  0.8524  0.3106
 7919TIP3    H245249   1.004   0.750  13.873  1.8876 -0.2995 -0.0191
 7920TIP3   OH245250   2.412   0.918   4.997  0.2097 -0.0966 -0.2024
 7920TIP3    H145251   2.491   0.883   4.954  0.8061 -0.9604  1.4835
 7920TIP3    H245252   2.440   1.002   5.032  0.4189 -0.4430  0.4717
 7921TIP3   OH245253   0.436   2.085   2.223  0.2627  0.0798 -0.2157
 7921TIP3    H145254   0.437   2.000   2.180  0.7551  0.0567 -0.1624
 7921TIP3    H245255   0.343   2.107   2.230  0.1726  0.0632 -1.2357
 7922TIP3   OH245256   0.558   0.506  84.772  0.0143  0.2641  0.4310
 7922TIP3    H145257   0.591   0.537  84.688 -0.1947  1.6687  0.8459
 7922TIP3    H245258   0.609   0.427  84.790  1.8415  1.3249  0.1521
 7923TIP3   OH245259   2.608   2.348  94.975 -0.1391 -0.2447 -0.8072
 7923TIP3    H145260   2.581   2.439  94.988 -3.7785 -1.2248 -0.3821
 7923TIP3    H245261   2.599   2.333  94.881  0.9018 -0.1198 -0.9460
 7924TIP3   OH245262   0.182   0.753 106.384  0.0857  0.3247 -0.0181
 7924TIP3    H145263   0.109   0.793 106.432 -0.9149 -1.3835 -0.0315
 7924TIP3    H245264   0.255   0.753 106.447 -1.0003 -1.2187  1.3331
 7925TIP3   OH245265   1.551   1.040  92.146  0.4636 -0.1827 -0.2802
 7925TIP3    H145266   1.616   1.095  92.102  0.2530  1.1078  0.9360
 7925TIP3    H245267   1.467   1.068  92.109  0.3088  0.7324  0.7070
 7926TIP3   OH245268   1.726   2.417  15.658  0.2080 -0.3640  0.0000
 7926TIP3    H145269   1.691   2.347  15.603  0.1899 -0.2972 -0.0726
 7926TIP3    H245270   1.782   2.467  15.599  0.2191 -0.3160  0.0527
 7927TIP3   OH245271   1.199   2.322  18.044 -0.0019 -0.0868  0.1792
 7927TIP3    H145272   1.144   2.297  17.969  0.9970 -0.3047 -0.5114
 7927TIP3    H245273   1.244   2.401  18.014  1.3129 -0.8444  0.0583
 7928TIP3   OH245274   2.284   0.844  80.023 -0.6344 -0.2818 -0.5428
 7928TIP3    H145275   2.363   0.789  80.023 -0.1719  0.2426  1.9179
 7928TIP3    H245276   2.219   0.791  80.069 -0.5323  0.7040  0.8029
 7929TIP3   OH245277   0.916   0.263   9.324 -0.4412 -0.7566  0.7712
 7929TIP3    H145278   1.006   0.274   9.352 -0.6509  1.2109  0.7690
 7929TIP3    H245279   0.922   0.208   9.245  0.8697  0.2907  0.0997
 7930TIP3   OH245280   1.880   1.726  80.857 -0.1828 -0.3086 -0.2878
 7930TIP3    H145281   1.901   1.642  80.815 -0.2016 -0.8364  0.7089
 7930TIP3    H245282   1.786   1.723  80.871 -0.1051 -0.3953  0.2730
 7931TIP3   OH245283   1.976   0.388  94.160 -0.3610 -0.6734  0.3744
 7931TIP3    H145284   2.027   0.323  94.114 -1.0954 -1.0232  0.0377
 7931TIP3    H245285   1.944   0.447  94.092 -2.0449 -1.6010  0.2953
 7932TIP3   OH245286   0.244   1.669  36.411  0.1124  0.3326 -0.2381
 7932TIP3    H145287   0.329   1.641  36.447 -1.7123 -1.1223  3.4765
 7932TIP3    H245288   0.209   1.591  36.369 -0.1037  0.4732 -0.3199
 7933TIP3   OH245289   0.344   1.303  83.027  0.1526  0.1089  0.2052
 7933TIP3    H145290   0.271   1.335  82.974  0.6507 -0.8636 -1.1200
 7933TIP3    H245291   0.360   1.373  83.090 -1.5572  0.5731  0.1667
 7934TIP3   OH245292   1.208   1.592  74.021 -0.0178 -0.7534 -0.4801
 7934TIP3    H145293   1.192   1.640  73.939  0.9401 -2.0690 -1.4640
 7934TIP3    H245294   1.299   1.563  74.015 -0.1371 -1.4465  0.7589
 7935TIP3   OH245295   2.498   2.407  97.207  0.0680  0.3502 -0.1260
 7935TIP3    H145296   2.492   2.444  97.295  0.3576 -0.3324  0.1899
 7935TIP3    H245297   2.591   2.409  97.186  0.0503  0.0992 -0.2292
 7936TIP3   OH245298   1.863   0.158   1.992 -0.1666  0.1995 -0.5093
 7936TIP3    H145299   1.910   0.164   1.909  0.7810  0.1693  0.0095
 7936TIP3    H245300   1.829   0.068   1.994 -1.1842  0.5467 -1.3670
 7937TIP3   OH245301   1.040   1.050  99.951  0.4782  0.1039  0.0576
 7937TIP3    H145302   1.038   1.086  99.863  2.2338 -0.5355 -0.2898
 7937TIP3    H245303   0.948   1.036  99.974 -0.0044  0.2180 -1.6875
 7938TIP3   OH245304   0.847   2.583 105.482 -0.1211 -0.2274 -0.0897
 7938TIP3    H145305   0.914   2.518 105.501  0.2685  0.5043  1.1638
 7938TIP3    H245306   0.767   2.532 105.468  0.1296 -0.9903  1.0938
 7939TIP3   OH245307   0.146   0.959  24.807  0.0887  0.1591  0.6181
 7939TIP3    H145308   0.208   0.932  24.740 -0.1338  0.7907  0.1482
 7939TIP3    H245309   0.177   0.916  24.887 -1.0693 -2.6928 -0.3218
 7940TIP3   OH245310   2.134   0.062  78.253  0.6341  0.3990 -0.3978
 7940TIP3    H145311   2.103  -0.028  78.249  0.0620  0.4633  1.4365
 7940TIP3    H245312   2.175   0.078  78.168  3.1001 -2.4430  0.0791
 7941TIP3   OH245313   1.481   1.648  33.863  0.7511  0.7786 -0.3007
 7941TIP3    H145314   1.508   1.590  33.935  0.1975  1.7054  0.6837
 7941TIP3    H245315   1.463   1.732  33.905 -1.6128  0.7914 -1.2001
 7942TIP3   OH245316   2.017   2.678  34.522 -0.1954  0.2649 -0.0437
 7942TIP3    H145317   1.998   2.638  34.607 -4.0975 -1.2509 -1.4117
 7942TIP3    H245318   2.018   2.772  34.540 -0.4611 -0.0303  1.7239
 7943TIP3   OH245319   1.858   0.859  14.629 -0.0566  0.9503  0.4434
 7943TIP3    H145320   1.829   0.837  14.540 -0.5581 -0.1306  0.8601
 7943TIP3    H245321   1.887   0.775  14.666 -2.0520  0.9381  2.1135
 7944TIP3   OH245322   1.020   2.355  86.693  0.0351 -0.5581  0.3764
 7944TIP3    H145323   1.066   2.433  86.725 -0.0900 -0.2667 -0.1404
 7944TIP3    H245324   1.063   2.282  86.737  0.3242 -0.2157  0.6703
 7945TIP3   OH245325   0.030   0.856  18.638  0.1909 -0.0243 -0.3671
 7945TIP3    H145326   0.035   0.930  18.698  2.7178 -0.6025  0.2679
 7945TIP3    H245327   0.031   0.895  18.551 -0.2024  0.7281 -0.0396
 7946TIP3   OH245328   1.333   0.090  32.228  0.2289 -0.0464 -0.4826
 7946TIP3    H145329   1.396   0.156  32.257  1.1819 -0.9671 -0.3790
 7946TIP3    H245330   1.376   0.045  32.155 -0.7741  0.0342 -1.1518
 7947TIP3   OH245331   2.368   0.541 107.600  0.7880 -0.0277  0.0296
 7947TIP3    H145332   2.354   0.446 107.592 -0.2938  0.1495 -0.2892
 7947TIP3    H245333   2.298   0.570 107.658  0.6367  0.6967 -0.5121
 7948TIP3   OH245334   0.591   1.079   1.940  0.2843  0.0493  0.3586
 7948TIP3    H145335   0.652   1.033   1.998  1.2340 -0.1161 -0.7339
 7948TIP3    H245336   0.626   1.168   1.935 -0.2756  0.2952  0.6861
 7949TIP3   OH245337   0.303   1.621  30.988  0.1337 -0.0784  0.2405
 7949TIP3    H145338   0.304   1.651  30.897  3.4287 -1.3278 -0.2725
 7949TIP3    H245339   0.255   1.539  30.986 -3.5213  1.8651  0.5379
 7950TIP3   OH245340   1.682   2.058 106.125 -0.1097 -0.0413 -0.1064
 7950TIP3    H145341   1.723   2.080 106.208  1.7099 -0.1068 -0.9415
 7950TIP3    H245342   1.609   2.121 106.117  0.2900  0.5928  1.0746
 7951TIP3   OH245343   1.424   0.405 104.998 -0.2790  0.1401  0.0924
 7951TIP3    H145344   1.442   0.392 104.905 -0.5166 -1.1566  0.2095
 7951TIP3    H245345   1.329   0.395 105.006 -0.1088 -1.1905  0.6687
 7952TIP3   OH245346   2.036   0.664 106.017  0.2911 -0.0155 -0.0401
 7952TIP3    H145347   2.065   0.668 105.926 -0.3307  0.5912 -0.2248
 7952TIP3    H245348   2.089   0.595 106.056  0.2793 -0.5650 -0.9645
 7953TIP3   OH245349   2.653   2.541  36.489  0.2053 -0.4480  0.0490
 7953TIP3    H145350   2.663   2.541  36.585  0.4886 -1.1513  0.0265
 7953TIP3    H245351   2.570   2.496  36.474 -0.3117  0.5104 -0.0006
 7954TIP3   OH245352   0.455   1.018   3.733  0.1188 -0.1751 -0.1447
 7954TIP3    H145353   0.382   0.986   3.787 -0.2392  1.8071  0.6231
 7954TIP3    H245354   0.422   1.015   3.644 -0.8977  0.5880  0.1835
 7955TIP3   OH245355   2.512   0.965  37.009 -0.3499 -0.3153  0.4828
 7955TIP3    H145356   2.470   0.928  36.932 -0.6598 -0.3631  0.6721
 7955TIP3    H245357   2.483   1.056  37.011 -0.0994 -0.2324  0.3747
 7956TIP3   OH245358   0.906   1.623  95.294  0.2878  0.2361 -0.2627
 7956TIP3    H145359   0.936   1.659  95.211  0.9047 -0.2442 -0.2566
 7956TIP3    H245360   0.960   1.545  95.307  1.2392  1.0910  1.3034
 7957TIP3   OH245361   0.667   0.776  92.680  0.3660 -0.4648  0.5293
 7957TIP3    H145362   0.648   0.697  92.730  0.8456 -0.5502  0.5840
 7957TIP3    H245363   0.738   0.750  92.620 -0.2918 -0.4031 -0.2959
 7958TIP3   OH245364   0.753   0.508  99.678  0.0174 -0.2802 -0.2977
 7958TIP3    H145365   0.719   0.439  99.735 -1.4783 -0.5178 -1.4190
 7958TIP3    H245366   0.793   0.571  99.738 -0.4765 -1.0869  0.9091
 7959TIP3   OH245367   0.431   2.213  82.678 -0.1636  0.9374 -0.2049
 7959TIP3    H145368   0.386   2.172  82.752 -1.6422 -0.1100 -1.6171
 7959TIP3    H245369   0.387   2.297  82.666 -0.3161  0.8505 -0.2540
 7960TIP3   OH245370   1.468   0.026   8.321  0.2605 -0.0278 -0.3319
 7960TIP3    H145371   1.511   0.093   8.374  1.6060 -0.0976 -1.2826
 7960TIP3    H245372   1.498  -0.057   8.358 -0.3339 -0.0991 -0.0012
 7961TIP3   OH245373   2.609   0.833  88.951  0.3195 -0.0881  0.3611
 7961TIP3    H145374   2.658   0.782  89.016  0.5179 -1.5546 -0.8845
 7961TIP3    H245375   2.557   0.768  88.905  1.9534  0.5149 -2.5476
 7962TIP3   OH245376   0.042   0.407  84.870  0.3911 -0.2725 -0.0094
 7962TIP3    H145377   0.123   0.458  84.872  0.4975 -0.4599  0.6081
 7962TIP3    H245378   0.050   0.352  84.792  2.0575 -2.2171  1.4040
 7963TIP3   OH245379   2.210   0.178 105.059  0.0930  0.1299  0.0039
 7963TIP3    H145380   2.219   0.185 104.964 -0.1587 -2.7235 -0.3317
 7963TIP3    H245381   2.297   0.198 105.093  0.7731 -0.9383 -1.0410
 7964TIP3   OH245382   2.433   0.275  28.447  0.5340 -1.1863 -0.4803
 7964TIP3    H145383   2.525   0.263  28.472  0.0295 -0.5279  1.9407
 7964TIP3    H245384   2.427   0.367  28.424  0.3213 -1.0516  0.1140
 7965TIP3   OH245385   1.395   2.670 106.050 -0.3115  0.2801 -0.2845
 7965TIP3    H145386   1.478   2.697 106.090 -0.3268  0.8840 -0.6415
 7965TIP3    H245387   1.418   2.649 105.959 -0.7757  1.8396 -0.7940
 7966TIP3   OH245388   0.916   2.197  29.089  0.9037  0.1291  0.5642
 7966TIP3    H145389   0.928   2.105  29.069 -0.5758  0.0792 -0.2508
 7966TIP3    H245390   0.858   2.197  29.166  0.7147  0.3733  0.4237
 7967TIP3   OH245391   1.612   2.308   9.528 -0.0911 -0.0623  0.6771
 7967TIP3    H145392   1.532   2.301   9.476  2.0983 -0.5045 -3.0211
 7967TIP3    H245393   1.615   2.399   9.556 -0.9529  0.5093 -0.9411
 7968TIP3   OH245394   1.809   1.502  83.337 -0.0773 -0.1444 -0.0965
 7968TIP3    H145395   1.715   1.514  83.345 -0.0554  0.5881 -0.8296
 7968TIP3    H245396   1.820   1.408  83.322 -0.6565 -0.2953  0.3859
 7969TIP3   OH245397   2.477   2.525  17.142 -0.1591 -0.0273  0.3085
 7969TIP3    H145398   2.478   2.529  17.046  1.7333 -0.7971  0.2532
 7969TIP3    H245399   2.518   2.607  17.169  1.3246 -0.7510  0.3573
 7970TIP3   OH245400   1.407   0.431  17.185  0.2341 -0.4452 -0.1728
 7970TIP3    H145401   1.456   0.350  17.193 -0.0229 -0.7216 -1.2714
 7970TIP3    H245402   1.457   0.495  17.237  0.7729 -1.1464  0.1822
 7971TIP3   OH245403   0.798   1.868 105.854  0.7751  0.5693 -0.4835
 7971TIP3    H145404   0.778   1.952 105.896  0.8057  0.7025 -0.7380
 7971TIP3    H245405   0.839   1.816 105.923 -0.0317  0.4520 -0.0921
 7972TIP3   OH245406   1.520   1.806  13.984  0.6129  0.2422  0.5944
 7972TIP3    H145407   1.616   1.807  13.983  0.6611 -0.6610 -1.7397
 7972TIP3    H245408   1.495   1.866  13.914 -0.5790  0.7910  1.4509
 7973TIP3   OH245409   1.711   1.729  33.331  0.7612  0.0300  0.0908
 7973TIP3    H145410   1.720   1.664  33.262  0.8313  0.0551  0.0763
 7973TIP3    H245411   1.762   1.694  33.404  0.2330 -0.2591  0.3242
 7974TIP3   OH245412   2.479   1.098 109.603 -0.6048  0.2255 -0.1881
 7974TIP3    H145413   2.511   1.066 109.686 -0.1905  0.3292 -0.3113
 7974TIP3    H245414   2.404   1.153 109.626 -0.7358 -0.0628  0.0789
 7975TIP3   OH245415   1.562   0.662  85.405 -0.5530 -0.2309 -0.0504
 7975TIP3    H145416   1.556   0.688  85.497  2.1107 -2.3551  0.8543
 7975TIP3    H245417   1.622   0.726  85.366 -0.2272 -0.3813  0.1919
 7976TIP3   OH245418   2.118   0.608  29.381 -0.8170 -0.2836  0.3838
 7976TIP3    H145419   2.175   0.684  29.384  0.3183 -1.1234  0.7294
 7976TIP3    H245420   2.078   0.604  29.467  0.4446 -1.0401  0.9580
 7977TIP3   OH245421   0.491   0.166  69.084 -0.1392  0.4750  0.2287
 7977TIP3    H145422   0.516   0.258  69.095  0.0805  0.2087  2.6539
 7977TIP3    H245423   0.569   0.118  69.113 -0.2665 -0.4948 -0.9883
 7978TIP3   OH245424   0.111   1.645  26.340  0.0813 -0.0668  0.5431
 7978TIP3    H145425   0.124   1.687  26.425 -0.8370  0.4505  0.4433
 7978TIP3    H245426   0.044   1.579  26.356  0.3191 -0.3587  0.3410
 7979TIP3   OH245427   2.307   1.149  95.715 -0.9469  0.3185  0.5612
 7979TIP3    H145428   2.221   1.181  95.743 -1.2702 -1.0611  1.2727
 7979TIP3    H245429   2.295   1.126  95.623 -1.1796  0.6508  0.5086
 7980TIP3   OH245430   0.564   0.737  85.575 -0.0801  0.0462 -0.0996
 7980TIP3    H145431   0.590   0.663  85.521 -0.4738 -1.4613  1.6859
 7980TIP3    H245432   0.573   0.706  85.665 -1.4057  1.7726  0.6860
 7981TIP3   OH245433   0.248   0.236  42.229  0.3659 -0.6741 -0.8266
 7981TIP3    H145434   0.158   0.267  42.224 -0.1715 -1.9347  0.4068
 7981TIP3    H245435   0.250   0.159  42.172  0.5347 -0.9328 -0.4760
 7982TIP3   OH245436   1.099   0.957  30.035 -0.2297  0.0438  0.3291
 7982TIP3    H145437   1.159   0.957  30.110  0.2847  0.2995 -0.0711
 7982TIP3    H245438   1.012   0.965  30.074  0.0981  1.3328  0.8562
 7983TIP3   OH245439   0.653   2.027  10.199  0.3796 -0.0163 -0.0166
 7983TIP3    H145440   0.564   2.049  10.171 -0.0125 -0.8802  0.5157
 7983TIP3    H245441   0.660   2.061  10.288  1.0930  1.3397 -0.5635
 7984TIP3   OH245442   0.126   1.690  97.445 -0.2989  0.6966 -0.0569
 7984TIP3    H145443   0.081   1.610  97.473 -0.3725  0.7258 -0.0914
 7984TIP3    H245444   0.215   1.680  97.478 -0.2413  0.4903 -0.2724
 7985TIP3   OH245445   1.784   1.257  89.104  0.4548 -0.1750  0.0410
 7985TIP3    H145446   1.874   1.228  89.089 -0.5767 -3.5948 -0.5103
 7985TIP3    H245447   1.739   1.237  89.022 -0.5971  2.8441 -0.2245
 7986TIP3   OH245448   1.183   1.169  24.090  0.1322  0.1879  0.7264
 7986TIP3    H145449   1.177   1.253  24.044 -1.1189 -1.0136 -1.4493
 7986TIP3    H245450   1.129   1.110  24.039  2.1081 -2.3346  1.3520
 7987TIP3   OH245451   1.381   2.216  91.888 -0.0075 -0.1093  0.4760
 7987TIP3    H145452   1.324   2.214  91.812 -0.3038  0.1328  0.6954
 7987TIP3    H245453   1.380   2.126  91.921  0.8508 -0.4390 -0.3269
 7988TIP3   OH245454   1.861   0.186  22.861 -0.0102 -0.3821 -0.0629
 7988TIP3    H145455   1.860   0.228  22.947 -0.9751 -0.6538  0.0648
 7988TIP3    H245456   1.857   0.092  22.880  2.1520 -0.5820 -0.3460
 7989TIP3   OH245457   1.845   1.062  78.145 -0.2241 -0.6658 -0.4897
 7989TIP3    H145458   1.750   1.058  78.159 -0.1662  1.8564  1.1930
 7989TIP3    H245459   1.873   0.971  78.151 -2.1478 -1.2179  2.3474
 7990TIP3   OH245460   2.434   0.520  92.929 -0.1051  0.1813 -0.3213
 7990TIP3    H145461   2.529   0.527  92.934  0.2207 -2.8733 -0.3902
 7990TIP3    H245462   2.413   0.549  92.840  0.5260  2.3035  0.1762
 7991TIP3   OH245463   2.407   0.593  78.321  0.3883  0.0881 -0.6835
 7991TIP3    H145464   2.349   0.571  78.248  0.3487 -0.6088 -0.4525
 7991TIP3    H245465   2.473   0.650  78.283 -0.5055  0.9768 -0.9308
 7992TIP3   OH245466   1.761   1.380  24.940 -0.4939 -0.1088  0.4716
 7992TIP3    H145467   1.731   1.289  24.932  0.2470 -0.3077 -0.1532
 7992TIP3    H245468   1.813   1.395  24.861  0.7909  0.3256  1.3710
 7993TIP3   OH245469   1.600   0.915  82.259 -0.2938  0.1444 -0.5735
 7993TIP3    H145470   1.622   1.008  82.274  0.7256 -0.1353 -0.2399
 7993TIP3    H245471   1.559   0.887  82.341  0.0149  0.1229 -0.4241
 7994TIP3   OH245472   1.965   2.592   0.624  0.5787  0.4465 -0.2176
 7994TIP3    H145473   1.912   2.591   0.544  1.0164  1.1987 -0.5217
 7994TIP3    H245474   1.943   2.675   0.666  0.9617  0.4234  0.0306
 7995TIP3   OH245475   0.591   1.857   6.414  0.1995 -0.0869 -0.0185
 7995TIP3    H145476   0.668   1.914   6.418 -0.2761  0.6538 -0.9758
 7995TIP3    H245477   0.627   1.769   6.403  1.0380  0.6221 -5.5515
 7996TIP3   OH245478   0.924   0.171  99.344 -0.2762  0.2348 -0.2608
 7996TIP3    H145479   0.857   0.187  99.411 -0.3572  0.0277 -0.2928
 7996TIP3    H245480   0.989   0.116  99.388  0.0452  0.7101 -0.1369
 7997TIP3   OH245481   2.099   0.296  96.388 -0.4110  0.0177  0.4308
 7997TIP3    H145482   2.019   0.322  96.432 -0.6873  0.6536 -0.4292
 7997TIP3    H245483   2.070   0.256  96.305  0.1615  0.4689  0.0010
 7998TIP3   OH245484   0.903   1.664  75.811 -0.4213  0.2319  0.6148
 7998TIP3    H145485   0.850   1.717  75.871 -1.3660 -0.2355  0.2025
 7998TIP3    H245486   0.978   1.720  75.790 -1.3401  1.3804  0.2840
 7999TIP3   OH245487   0.632   1.118 110.982  0.4255  0.1376  0.2142
 7999TIP3    H145488   0.576   1.138 110.907  1.0423 -1.1139 -0.6122
 7999TIP3    H245489   0.653   1.204 111.019 -1.0287  0.7008 -0.1848
 8000TIP3   OH245490   2.138   0.701   2.062 -0.2366 -0.1621  0.1490
 8000TIP3    H145491   2.230   0.676   2.071  0.0897  1.0905  0.5417
 8000TIP3    H245492   2.098   0.629   2.014  1.1664 -0.2863 -0.9075
 8001TIP3   OH245493   1.839   1.568 111.140 -0.2650  0.5702 -0.6119
 8001TIP3    H145494   1.816   1.516 111.217 -0.1943  0.6067 -0.5669
 8001TIP3    H245495   1.787   1.530 111.069  0.9578 -0.5834 -0.9179
 8002TIP3   OH245496   2.064   2.604  13.941 -0.3370 -0.0100  0.4448
 8002TIP3    H145497   2.077   2.520  13.897 -2.0831 -0.6875  1.1269
 8002TIP3    H245498   2.048   2.666  13.870 -0.1299 -0.4728 -0.0111
 8003TIP3   OH245499   2.304   1.865  36.460 -0.0310 -0.3312  0.6819
 8003TIP3    H145500   2.345   1.796  36.409 -2.2556 -0.1763 -1.5323
 8003TIP3    H245501   2.285   1.934  36.396 -0.8921  0.8902  2.1823
 8004TIP3   OH245502   0.764   1.611  89.130  0.1332 -0.8177 -0.0000
 8004TIP3    H145503   0.712   1.553  89.186 -1.4813  1.2212  0.7386
 8004TIP3    H245504   0.720   1.607  89.045 -0.6454  0.0892  0.3408
 8005TIP3   OH245505   2.076   0.179 105.317 -0.3090 -0.1052  0.4759
 8005TIP3    H145506   2.160   0.177 105.363  0.3096 -0.5150 -0.6273
 8005TIP3    H245507   2.099   0.168 105.225 -1.5590  0.0798  0.1203
 8006TIP3   OH245508   1.116   2.432 105.549 -0.1077 -0.5407  0.5256
 8006TIP3    H145509   1.159   2.347 105.537  1.0827  0.2674 -1.3784
 8006TIP3    H245510   1.177   2.496 105.513 -2.6005  0.7364 -1.7766
 8007TIP3   OH245511   2.129   1.510  75.444  0.0229  0.3432  0.0289
 8007TIP3    H145512   2.103   1.475  75.359 -0.8109 -1.7037  1.0494
 8007TIP3    H245513   2.173   1.593  75.424  0.6091 -0.4867 -2.4433
 8008TIP3   OH245514   0.571   0.963  87.979  0.1098  0.1478 -0.3274
 8008TIP3    H145515   0.493   0.957  88.034 -0.7655 -0.0688 -1.5400
 8008TIP3    H245516   0.638   0.915  88.026 -0.4495  0.4378  0.8059
 8009TIP3   OH245517   1.580   0.020 103.048  0.1243  0.3070  0.6397
 8009TIP3    H145518   1.595  -0.045 103.117 -0.4073  1.1494  1.5824
 8009TIP3    H245519   1.662   0.071 103.046 -0.6111  1.6516  2.1942
 8010TIP3   OH245520   0.104   1.265  11.465 -0.6839 -0.0934 -0.5465
 8010TIP3    H145521   0.154   1.199  11.515 -2.3465 -0.5322  0.6058
 8010TIP3    H245522   0.095   1.338  11.526 -2.5159 -0.5316 -0.2392
 8011TIP3   OH245523   2.388   1.527  98.078  0.0173  0.0036 -0.3713
 8011TIP3    H145524   2.370   1.433  98.081 -0.0880  0.0457  0.3408
 8011TIP3    H245525   2.420   1.549  98.165  0.6494  0.5123 -0.7197
 8012TIP3   OH245526   2.163   1.240 105.669 -0.2304  0.5874  0.0539
 8012TIP3    H145527   2.210   1.159 105.650 -0.3923  0.6618 -0.6675
 8012TIP3    H245528   2.223   1.310 105.645 -0.2690  0.6854  0.2396
 8013TIP3   OH245529   1.918   0.143 107.102  0.4727  0.0706 -0.2010
 8013TIP3    H145530   1.912   0.234 107.075 -0.7322 -0.2378 -1.0199
 8013TIP3    H245531   2.012   0.124 107.101  0.6600  0.9833 -1.0827
 8014TIP3   OH245532   1.788   0.578 109.549 -0.4509 -0.7193 -0.0209
 8014TIP3    H145533   1.847   0.555 109.621  1.0737  0.2052 -0.9146
 8014TIP3    H245534   1.705   0.598 109.591  0.3060 -0.5431  1.4552
 8015TIP3   OH245535   1.339   1.444  98.397  0.6859  0.1826 -0.4828
 8015TIP3    H145536   1.397   1.516  98.424  0.4864  0.0893  0.2083
 8015TIP3    H245537   1.391   1.365  98.410  1.1757  0.2372 -1.9656
 8016TIP3   OH245538   0.653   2.338  67.737 -0.8928 -0.2384 -0.0116
 8016TIP3    H145539   0.718   2.315  67.803  0.5761  3.2440  0.0225
 8016TIP3    H245540   0.615   2.255  67.709  1.4810 -2.1864  2.1109
 8017TIP3   OH245541   0.202   0.354   4.379  0.3872  0.4970 -0.9048
 8017TIP3    H145542   0.286   0.308   4.384 -0.2328 -0.6596 -0.9195
 8017TIP3    H245543   0.197   0.404   4.461  1.1068  0.6011 -0.9223
 8018TIP3   OH245544   0.104   1.194   0.424 -0.0454  1.0005  0.1066
 8018TIP3    H145545   0.057   1.270   0.391 -1.1264  0.4634  0.3371
 8018TIP3    H245546   0.067   1.179   0.511  0.2638  0.3184  0.1345
 8019TIP3   OH245547   0.164   1.864  31.017 -0.4079  0.2498  0.2098
 8019TIP3    H145548   0.210   1.781  31.020 -0.3301  0.1766 -1.6285
 8019TIP3    H245549   0.071   1.840  31.017 -0.3813  0.0953 -1.1142
 8020TIP3   OH245550   0.430   0.496  91.799  0.5254  0.0346 -0.6319
 8020TIP3    H145551   0.352   0.441  91.809  0.5199 -0.1489 -1.6619
 8020TIP3    H245552   0.426   0.556  91.874  0.4041 -1.1873  0.3842
 8021TIP3   OH245553   1.802   2.377   4.333  0.2486 -0.1834 -0.0712
 8021TIP3    H145554   1.874   2.320   4.360  0.0465 -0.4262 -0.0407
 8021TIP3    H245555   1.734   2.365   4.400 -0.6534 -1.5499 -1.1690
 8022TIP3   OH245556   1.905   0.398  87.047 -0.0309  0.4691 -0.1792
 8022TIP3    H145557   1.934   0.420  87.135  1.0732 -1.3406 -0.0192
 8022TIP3    H245558   1.872   0.308  87.055  0.0061  0.3099 -1.5931
 8023TIP3   OH245559   2.523   2.322  69.108 -0.7908 -0.1278 -0.6452
 8023TIP3    H145560   2.515   2.346  69.016  0.6602  1.5861 -0.3805
 8023TIP3    H245561   2.470   2.387  69.155 -0.2373 -0.0123 -0.1767
 8024TIP3   OH245562   1.463   2.121  16.204 -0.2496 -0.1113  0.4268
 8024TIP3    H145563   1.521   2.046  16.220  0.4394  0.3707  0.2276
 8024TIP3    H245564   1.406   2.124  16.280  0.3031 -0.3083  0.8542
 8025TIP3   OH245565   1.724   1.720  21.821  0.3440  0.2062  0.0663
 8025TIP3    H145566   1.703   1.809  21.793 -0.5651 -0.1598 -0.4624
 8025TIP3    H245567   1.663   1.664  21.772  1.1975 -0.7414  0.0602
 8026TIP3   OH245568   1.147   0.927 104.014  0.1840 -0.4024  0.3865
 8026TIP3    H145569   1.150   1.021 104.029  0.7070 -0.3821  0.1855
 8026TIP3    H245570   1.197   0.889 104.086  1.5552 -0.3941 -0.5285
 8027TIP3   OH245571   0.898   0.120  94.818  0.1852  0.4855 -0.3200
 8027TIP3    H145572   0.968   0.059  94.838  1.1201  1.5850 -0.1440
 8027TIP3    H245573   0.884   0.111  94.723  0.2104 -0.0925 -0.2682
 8028TIP3   OH245574   1.002   0.970  11.043  0.8281 -0.3030 -0.4250
 8028TIP3    H145575   1.042   1.041  11.093  0.7054 -0.5159 -0.0212
 8028TIP3    H245576   1.074   0.907  11.030  0.7350 -0.4860 -0.0696
 8029TIP3   OH245577   2.421   2.229  48.959  0.0513  0.6901  0.7847
 8029TIP3    H145578   2.429   2.182  48.877 -1.4056  1.9950 -0.1583
 8029TIP3    H245579   2.368   2.306  48.938  0.1342  1.3670  2.8167
 8030TIP3   OH245580   2.161   0.030  90.192  0.0780  0.6814 -0.0667
 8030TIP3    H145581   2.163   0.124  90.173 -0.5202  0.2463 -2.5272
 8030TIP3    H245582   2.101   0.022  90.266  1.1316  2.3248  1.0465
 8031TIP3   OH245583   0.640   1.285 105.525  0.0600  0.0535 -0.1646
 8031TIP3    H145584   0.686   1.205 105.553 -1.1219  0.0064  1.8627
 8031TIP3    H245585   0.578   1.255 105.458  0.6121 -0.4668 -0.4477
 8032TIP3   OH245586   2.246   1.827 110.162 -0.4996 -0.5579 -0.0517
 8032TIP3    H145587   2.211   1.832 110.251 -0.6539 -0.9531 -0.0841
 8032TIP3    H245588   2.213   1.744 110.127 -0.1777 -0.5614 -0.3651
 8033TIP3   OH245589   1.986   2.463 109.341  0.2511 -0.3415  0.0431
 8033TIP3    H145590   1.927   2.426 109.275  0.6615  0.2074 -0.6381
 8033TIP3    H245591   2.068   2.476 109.295  0.6787 -0.3595  0.7891
 8034TIP3   OH245592   1.004   0.320  25.802  0.3261 -0.1884 -0.1001
 8034TIP3    H145593   1.007   0.384  25.873 -1.9224 -0.5074  0.3885
 8034TIP3    H245594   1.033   0.368  25.725 -1.0972  1.4238  0.2924
 8035TIP3   OH245595   1.124   0.172  13.627 -0.1614  0.6516  0.0587
 8035TIP3    H145596   1.201   0.166  13.684 -0.6856 -0.0346  0.6941
 8035TIP3    H245597   1.078   0.090  13.639 -1.1279  1.1514 -0.1486
 8036TIP3   OH245598   1.678   1.402  81.157 -0.2212 -0.0459 -0.2525
 8036TIP3    H145599   1.743   1.332  81.163 -2.0504 -1.8159 -0.1808
 8036TIP3    H245600   1.656   1.422  81.248 -0.4590 -0.1269 -0.2873
 8037TIP3   OH245601   1.258   2.660 109.780 -0.1349  0.2614  0.5240
 8037TIP3    H145602   1.174   2.632 109.745  0.9225  1.1575 -3.0650
 8037TIP3    H245603   1.266   2.752 109.755  2.0821  0.0829  0.4019
 8038TIP3   OH245604   1.943   0.826  10.371 -0.0830  0.5179  0.3813
 8038TIP3    H145605   2.012   0.781  10.323 -0.1411  0.7157  0.1118
 8038TIP3    H245606   1.875   0.760  10.383  0.3905  0.1514  1.1567
 8039TIP3   OH245607   0.643   2.591  90.790  0.0099 -0.6295  0.3202
 8039TIP3    H145608   0.693   2.535  90.731  1.1585  0.5479  0.1452
 8039TIP3    H245609   0.583   2.639  90.732  1.5180  0.9380 -0.0391
 8040TIP3   OH245610   2.159   1.189 107.465  0.2532 -0.8862 -0.2046
 8040TIP3    H145611   2.236   1.193 107.409  0.7539  0.1429  0.5084
 8040TIP3    H245612   2.155   1.276 107.506 -0.8814 -1.1612  0.3003
 8041TIP3   OH245613   1.668   0.092  76.884 -0.2506  0.0368 -0.2211
 8041TIP3    H145614   1.697   0.072  76.973  1.5622  3.2485  0.0715
 8041TIP3    H245615   1.590   0.145  76.895  0.9041  1.8693 -0.3485
 8042TIP3   OH245616   2.322   0.333  48.667  0.5631  0.0336  0.3291
 8042TIP3    H145617   2.264   0.409  48.666  0.9263  0.3744  1.8325
 8042TIP3    H245618   2.263   0.258  48.676  0.2849  0.4629  3.4274
 8043TIP3   OH245619   1.155   0.906  12.905 -0.2360  0.2114  0.0173
 8043TIP3    H145620   1.129   0.984  12.856  0.1445  1.0910  1.1553
 8043TIP3    H245621   1.193   0.847  12.840  0.6663  1.5192 -0.6693
 8044TIP3   OH245622   0.666   0.917 103.581  0.2060  0.0934 -0.3521
 8044TIP3    H145623   0.693   0.957 103.498  1.1186  1.1189  0.4160
 8044TIP3    H245624   0.733   0.850 103.598  0.3222  0.2612 -0.1569
 8045TIP3   OH245625   1.135   0.636  91.801  0.4366  0.0096 -0.1715
 8045TIP3    H145626   1.080   0.713  91.783  1.2937  0.8239  0.5483
 8045TIP3    H245627   1.204   0.640  91.735  0.6459  0.0377  0.0457
 8046TIP3   OH245628   1.035   1.651  36.000 -0.3004  0.2983 -0.8974
 8046TIP3    H145629   1.073   1.604  35.925  3.4777  0.3247  0.7655
 8046TIP3    H245630   1.035   1.587  36.071 -1.1450  1.0705 -0.1722
 8047TIP3   OH245631   0.228   0.054  67.426 -0.6928  0.3344  0.0587
 8047TIP3    H145632   0.171   0.025  67.355  0.9435 -0.2356 -1.0850
 8047TIP3    H245633   0.216  -0.012  67.495 -1.2906  0.1469 -0.2198
 8048TIP3   OH245634   2.416   1.913  98.753 -0.0566 -0.2163  0.1570
 8048TIP3    H145635   2.383   1.963  98.679  1.8727  0.3446 -0.3790
 8048TIP3    H245636   2.394   1.966  98.830 -0.6199  0.0006 -0.1540
 8049TIP3   OH245637   0.799   1.389   6.077 -0.6184  0.0309  0.5672
 8049TIP3    H145638   0.816   1.482   6.064  0.4663 -0.1610  0.4613
 8049TIP3    H245639   0.784   1.354   5.989 -0.8136  0.0662  0.5860
 8050TIP3   OH245640   1.551   1.276  14.084  0.8728 -0.3643  0.2983
 8050TIP3    H145641   1.550   1.267  13.988  0.6814 -0.9815  0.3518
 8050TIP3    H245642   1.643   1.291  14.105  0.7112  1.4822 -0.1093
 8051TIP3   OH245643   1.426   2.070  32.885 -0.4245 -0.0480 -0.2340
 8051TIP3    H145644   1.445   2.017  32.963 -0.6155  1.4429  0.8591
 8051TIP3    H245645   1.508   2.115  32.866 -0.2320 -0.7801 -1.2282
 8052TIP3   OH245646   2.663   0.794  85.190 -0.1697  0.5049  0.1837
 8052TIP3    H145647   2.626   0.857  85.128  0.5791  0.5004 -0.2650
 8052TIP3    H245648   2.753   0.822  85.202 -0.2969  0.4939  1.2661
 8053TIP3   OH245649   0.539   2.631  11.879  0.1109 -0.2657  0.1082
 8053TIP3    H145650   0.520   2.613  11.786  0.4677 -0.2500  0.0312
 8053TIP3    H245651   0.604   2.701  11.877 -0.5466  0.3598  0.3941
 8054TIP3   OH245652   1.989   0.026  28.997 -0.1474  0.2122 -0.1572
 8054TIP3    H145653   1.894   0.039  29.003 -0.1152 -0.2663  2.3339
 8054TIP3    H245654   2.008  -0.043  29.060  1.8197 -0.0812 -0.9911
 8055TIP3   OH245655   0.400   0.901 110.149  0.1739 -0.4754 -0.1575
 8055TIP3    H145656   0.326   0.948 110.112 -0.2627 -0.4181  0.7708
 8055TIP3    H245657   0.363   0.849 110.220  0.9774 -0.6671  0.1345
 8056TIP3   OH245658   2.005   0.520  13.425 -0.3387  0.6894  0.6331
 8056TIP3    H145659   2.061   0.500  13.350  0.5382 -0.1135  1.4881
 8056TIP3    H245660   1.921   0.480  13.403  0.1076 -0.1162  0.3699
 8057TIP3   OH245661   2.638   0.118   6.415 -0.5439 -0.2380 -0.0761
 8057TIP3    H145662   2.574   0.055   6.384  0.1439 -0.7442 -0.4963
 8057TIP3    H245663   2.652   0.096   6.507 -0.7549 -0.3055 -0.0604
 8058TIP3   OH245664   1.990   1.174  25.029  0.0406  0.2561 -0.0272
 8058TIP3    H145665   1.976   1.122  25.108 -0.1419  0.9751  0.4238
 8058TIP3    H245666   2.075   1.216  25.043 -0.3085  0.9306  0.1040
 8059TIP3   OH245667   2.573   1.672  88.323  0.2450 -0.2873  0.3565
 8059TIP3    H145668   2.567   1.661  88.418 -1.7184 -1.1650  0.1822
 8059TIP3    H245669   2.489   1.711  88.297  0.5110 -0.5849 -1.0753
 8060TIP3   OH245670   2.399   0.197 104.445  0.6169 -0.0183  0.0633
 8060TIP3    H145671   2.365   0.285 104.430  0.3043  0.0342  0.9902
 8060TIP3    H245672   2.451   0.205 104.525 -0.6323 -0.9565  1.0165
 8061TIP3   OH245673   1.098   1.605 100.224 -0.0158  0.1600  0.3232
 8061TIP3    H145674   1.184   1.630 100.259  0.6131  0.4414 -1.2845
 8061TIP3    H245675   1.072   1.680 100.171 -0.5566 -0.5108 -0.3865
 8062TIP3   OH245676   1.472   0.610  92.947  0.0350 -0.2789  0.3124
 8062TIP3    H145677   1.564   0.588  92.933 -0.0668 -0.6401  0.2118
 8062TIP3    H245678   1.433   0.610  92.860 -0.1515 -0.5084  0.3987
 8063TIP3   OH245679   1.934   2.200  27.411  0.2366 -0.2928 -0.2733
 8063TIP3    H145680   1.972   2.117  27.440  2.0006 -0.2072 -2.1261
 8063TIP3    H245681   2.009   2.253  27.386 -0.8694  1.8084  0.6173
 8064TIP3   OH245682   2.016   0.968  95.630 -0.1839 -0.3911 -0.0157
 8064TIP3    H145683   1.976   0.937  95.711  0.7210 -1.7825 -0.0641
 8064TIP3    H245684   2.094   0.913  95.620  0.2123  0.3790 -1.3589
 8065TIP3   OH245685   2.038   2.616  79.317 -0.3346  0.2353  0.0380
 8065TIP3    H145686   2.123   2.660  79.321  0.1032 -0.3825 -1.5503
 8065TIP3    H245687   2.044   2.546  79.381  0.1240  0.5723  0.3708
 8066TIP3   OH245688   2.359   0.122  82.610  0.4967 -0.2023 -0.3446
 8066TIP3    H145689   2.422   0.146  82.677 -1.2150  1.0428  0.9143
 8066TIP3    H245690   2.333   0.205  82.570 -3.3450 -0.0026  2.0396
 8067TIP3   OH245691   0.774   0.945  18.566 -0.0293 -0.2544  0.0007
 8067TIP3    H145692   0.821   0.969  18.646 -0.3782  0.8059 -0.0996
 8067TIP3    H245693   0.704   0.886  18.596 -0.5136  0.5880  0.5734
 8068TIP3   OH245694   2.415   0.899  40.055  0.0512 -0.2440  0.4980
 8068TIP3    H145695   2.465   0.960  40.109  2.4277 -2.3645  0.8727
 8068TIP3    H245696   2.374   0.839  40.118  0.8603 -1.2761  0.0657
 8069TIP3   OH245697   2.462   0.635 101.533 -0.0813 -0.4797  0.6417
 8069TIP3    H145698   2.503   0.719 101.553 -1.7342  1.3946 -2.9192
 8069TIP3    H245699   2.524   0.592 101.474 -0.7134 -0.1246 -0.3110
 8070TIP3   OH245700   1.446   0.886  32.247  0.0242  0.3247  0.2000
 8070TIP3    H145701   1.482   0.910  32.162  0.3631 -0.5956  0.0692
 8070TIP3    H245702   1.353   0.870  32.231  0.0500  0.3343  0.0461
 8071TIP3   OH245703   2.569   2.591  17.886  0.0172  0.1121 -0.0654
 8071TIP3    H145704   2.636   2.547  17.939 -1.3062  0.2733  1.8781
 8071TIP3    H245705   2.546   2.527  17.819  2.2158  0.1371 -0.9087
 8072TIP3   OH245706   2.618   0.251  40.234  0.3496  0.4354 -0.3122
 8072TIP3    H145707   2.633   0.257  40.329 -0.1542 -0.8424 -0.1307
 8072TIP3    H245708   2.686   0.306  40.195  0.8118  0.6529  0.7724
 8073TIP3   OH245709   1.723   1.573  20.260  0.1355  0.1164 -0.2654
 8073TIP3    H145710   1.630   1.592  20.272  0.2095  0.2424  0.1321
 8073TIP3    H245711   1.768   1.641  20.311  0.4056 -1.2954  1.4734
 8074TIP3   OH245712   1.337   2.204  76.757 -0.2903  0.0117 -0.0412
 8074TIP3    H145713   1.360   2.127  76.704 -1.2356 -1.2687  1.3313
 8074TIP3    H245714   1.395   2.199  76.833 -0.5194  0.5331  0.1701
 8075TIP3   OH245715   2.557   2.116  33.068  0.1647 -0.0323 -0.0568
 8075TIP3    H145716   2.652   2.122  33.071  0.1595  1.6050 -1.4865
 8075TIP3    H245717   2.528   2.202  33.036 -1.8613 -0.1318  1.2812
 8076TIP3   OH245718   1.158   0.814 100.014 -0.1056  0.5444 -0.8444
 8076TIP3    H145719   1.091   0.765 100.062  1.3472 -0.4044  0.3159
 8076TIP3    H245720   1.113   0.892  99.983 -1.7141  0.0003  0.0022
 8077TIP3   OH245721   1.591   0.524  22.188 -0.2077  0.0861  0.3109
 8077TIP3    H145722   1.642   0.463  22.242 -0.6986 -1.1059 -0.5277
 8077TIP3    H245723   1.531   0.566  22.249 -0.6800 -1.1547  0.7430
 8078TIP3   OH245724   0.442   0.513  68.008  0.6700 -0.2795  0.0670
 8078TIP3    H145725   0.382   0.575  68.050 -0.0891 -0.7669 -0.2760
 8078TIP3    H245726   0.454   0.444  68.074  1.0163 -0.0905  0.2078
 8079TIP3   OH245727   2.267   0.375  29.562 -0.0091 -0.0669  0.4812
 8079TIP3    H145728   2.331   0.404  29.497  0.5536 -0.5952  0.7841
 8079TIP3    H245729   2.283   0.430  29.638 -1.0242  0.9159  0.0146
 8080TIP3   OH245730   1.271   0.308  13.166 -0.1035  0.3165  0.4857
 8080TIP3    H145731   1.235   0.364  13.097  0.6173  0.2618  0.0473
 8080TIP3    H245732   1.243   0.349  13.247  0.0710  1.0953  0.1663
 8081TIP3   OH245733   0.787   0.980  91.631  0.5573 -0.4016  0.6578
 8081TIP3    H145734   0.706   0.999  91.677  0.1187 -1.5123  0.3647
 8081TIP3    H245735   0.787   1.041  91.557 -0.5288 -1.0756  0.0721
 8082TIP3   OH245736   0.389   1.790  23.866 -0.5095 -0.3731 -0.5208
 8082TIP3    H145737   0.376   1.795  23.961 -1.3549 -2.1239 -0.5043
 8082TIP3    H245738   0.410   1.879  23.840 -2.7109  0.6821  0.9898
 8083TIP3   OH245739   0.580   1.277 101.219  0.1996  0.0421 -0.4763
 8083TIP3    H145740   0.672   1.277 101.246  0.3708  0.4332 -1.0630
 8083TIP3    H245741   0.561   1.185 101.200  0.8709  0.1344 -1.6982
 8084TIP3   OH245742   1.026   1.456  90.682 -0.0728  0.0393  0.5644
 8084TIP3    H145743   1.056   1.404  90.756 -0.1880 -0.1127  0.5078
 8084TIP3    H245744   0.936   1.479  90.704 -0.3649 -0.6478  0.1446
 8085TIP3   OH245745   0.449   0.694 102.544  0.6000  0.4084  0.1818
 8085TIP3    H145746   0.495   0.634 102.603  2.2540  0.9276 -0.5135
 8085TIP3    H245747   0.517   0.753 102.513 -0.7255  1.7268 -0.2920
 8086TIP3   OH245748   0.844   1.836  80.022  0.1682  0.1529  0.0971
 8086TIP3    H145749   0.843   1.805  79.931  1.5923 -1.4799  0.5742
 8086TIP3    H245750   0.878   1.925  80.016 -0.5565  0.3755 -1.0335
 8087TIP3   OH245751   1.247   1.650  89.784  0.3813 -0.0871  0.4654
 8087TIP3    H145752   1.313   1.652  89.715  0.5068 -0.4761  0.5673
 8087TIP3    H245753   1.164   1.659  89.737  0.3992 -1.3531  0.1364
 8088TIP3   OH245754   0.513   1.729  37.322 -0.2614  0.1736  0.0429
 8088TIP3    H145755   0.579   1.662  37.305  0.2485 -0.4177  3.5398
 8088TIP3    H245756   0.564   1.805  37.352 -0.9365  1.7253 -2.4408
 8089TIP3   OH245757   1.153   2.096   4.430 -0.1741  0.0390  0.1310
 8089TIP3    H145758   1.125   2.178   4.389  2.2824  0.6429 -0.5066
 8089TIP3    H245759   1.072   2.057   4.462 -1.7221  1.5268 -1.6927
 8090TIP3   OH245760   1.151   0.214  87.793  0.4899  0.6830 -0.4044
 8090TIP3    H145761   1.057   0.227  87.779  0.9469  1.6662 -3.0765
 8090TIP3    H245762   1.177   0.151  87.725  1.9007  1.0458 -0.2292
 8091TIP3   OH245763   1.531   0.736 108.069 -0.0991  0.5089  0.1606
 8091TIP3    H145764   1.572   0.821 108.088  0.4542  0.3401 -0.2565
 8091TIP3    H245765   1.439   0.749 108.092  0.2837  0.7200  1.6469
 8092TIP3   OH245766   0.843   0.505   1.924  0.1880  0.1795 -0.5610
 8092TIP3    H145767   0.916   0.560   1.894 -0.1644  1.5720  0.9726
 8092TIP3    H245768   0.873   0.470   2.008  0.8200 -2.9436 -1.9504
 8093TIP3   OH245769   1.823   0.032  96.328 -0.7403  0.0379 -0.5061
 8093TIP3    H145770   1.842  -0.011  96.411 -0.5020  1.9324  0.4599
 8093TIP3    H245771   1.859  -0.027  96.262 -1.3963 -1.7652  0.6768
 8094TIP3   OH245772   0.155   1.529   3.105  0.1814 -0.2030 -0.3208
 8094TIP3    H145773   0.117   1.450   3.145  0.6774 -0.5872 -0.5904
 8094TIP3    H245774   0.234   1.546   3.158  0.1047  0.0855 -0.2966
 8095TIP3   OH245775   1.547   1.194 105.136 -0.4031 -0.0087  0.3521
 8095TIP3    H145776   1.550   1.235 105.222 -0.5206  0.4949  0.1110
 8095TIP3    H245777   1.520   1.104 105.154  1.1926 -0.4003  1.0100
 8096TIP3   OH245778   0.484   1.147  27.466  0.3551  0.3212 -0.5706
 8096TIP3    H145779   0.564   1.199  27.470  0.3677  0.2738 -0.1276
 8096TIP3    H245780   0.478   1.120  27.375  1.9830 -1.4403 -0.2176
 8097TIP3   OH245781   0.477   0.302  94.206 -0.0469  0.0560 -0.0520
 8097TIP3    H145782   0.399   0.313  94.262 -1.0500 -1.0556 -1.1682
 8097TIP3    H245783   0.478   0.379  94.150 -2.0871 -1.2243 -2.0130
 8098TIP3   OH245784   2.396   0.600  63.932  0.3880 -1.2581 -0.3245
 8098TIP3    H145785   2.483   0.577  63.966  0.6744 -0.3142 -0.4053
 8098TIP3    H245786   2.409   0.682  63.886 -0.3167 -1.7357 -1.3983
 8099TIP3   OH245787   1.274   0.682  26.581  0.6332 -0.6400  0.2568
 8099TIP3    H145788   1.200   0.739  26.599  0.8117 -0.0872 -0.6735
 8099TIP3    H245789   1.238   0.593  26.590 -1.1528 -0.5176 -3.4180
 8100TIP3   OH245790   0.240   0.407  31.915 -0.1576 -0.7433 -0.3961
 8100TIP3    H145791   0.287   0.486  31.941 -0.7016 -1.1968  2.1791
 8100TIP3    H245792   0.306   0.337  31.919 -0.2611 -0.8295 -0.2251
 8101TIP3   OH245793   2.423   0.174  17.939 -0.1808 -0.7729 -0.2324
 8101TIP3    H145794   2.353   0.164  17.875  0.5558 -0.3536 -1.1305
 8101TIP3    H245795   2.471   0.091  17.936 -0.7249 -1.1233  0.5045
 8102TIP3   OH245796   1.915   2.349  80.069 -0.1459 -0.4225  0.0352
 8102TIP3    H145797   1.935   2.296  79.991 -1.4199 -1.6475  0.4947
 8102TIP3    H245798   1.935   2.439  80.043 -2.8077 -0.4307 -2.6199
 8103TIP3   OH245799   0.526   1.282 108.342  0.2536  0.2744 -0.1055
 8103TIP3    H145800   0.438   1.261 108.311  0.1695  0.3066  0.1128
 8103TIP3    H245801   0.556   1.351 108.283  0.5758 -0.5193 -0.9045
 8104TIP3   OH245802   1.345   1.527  75.774 -0.0953 -0.2650  0.4725
 8104TIP3    H145803   1.309   1.472  75.844 -0.7189 -1.2051 -0.5529
 8104TIP3    H245804   1.306   1.492  75.694  0.3158  1.0233 -0.3240
 8105TIP3   OH245805   0.688   0.269   3.533  0.0329 -0.3179 -0.6772
 8105TIP3    H145806   0.710   0.232   3.618 -2.5636  1.1999  0.7654
 8105TIP3    H245807   0.677   0.192   3.476  1.3298 -1.3798  0.4337
 8106TIP3   OH245808   0.508   0.549  19.263  0.2913  0.5569 -0.7229
 8106TIP3    H145809   0.526   0.616  19.328 -0.3070 -0.3803  0.4694
 8106TIP3    H245810   0.412   0.550  19.254  0.0551 -1.4565  0.8647
 8107TIP3   OH245811   2.620   1.801  36.314 -0.2172  0.6205  0.0206
 8107TIP3    H145812   2.622   1.896  36.328 -0.0768  0.4377  1.4249
 8107TIP3    H245813   2.697   1.769  36.361 -2.3465 -0.5643  3.0172
 8108TIP3   OH245814   2.626   0.348  22.115 -0.0655  0.0590  0.3692
 8108TIP3    H145815   2.659   0.363  22.026  0.6934  0.1317  0.6606
 8108TIP3    H245816   2.566   0.274  22.105 -0.4216  0.4233 -0.3018
 8109TIP3   OH245817   0.949   0.694   4.426 -0.3345  0.2071 -0.4475
 8109TIP3    H145818   0.910   0.781   4.435 -0.9087 -0.0087 -0.8151
 8109TIP3    H245819   1.040   0.711   4.400  0.2437  0.7525  1.7553
 8110TIP3   OH245820   2.284   1.081  11.078  0.0468 -0.3629 -0.4395
 8110TIP3    H145821   2.316   1.119  11.159  0.1797 -0.7313 -0.3137
 8110TIP3    H245822   2.333   0.999  11.070  0.1398 -0.2578 -0.9653
 8111TIP3   OH245823   2.358   0.844 106.625 -0.5739 -0.3411 -0.4020
 8111TIP3    H145824   2.368   0.901 106.550 -0.6306 -1.4318 -1.2626
 8111TIP3    H245825   2.356   0.755 106.588 -0.6716 -0.8966  0.8715
 8112TIP3   OH245826   1.923   0.326  30.510 -0.7552 -0.0191  0.2879
 8112TIP3    H145827   1.993   0.287  30.563  0.5039  0.5627 -0.8849
 8112TIP3    H245828   1.919   0.271  30.432 -1.3023  0.2267  0.1408
 8113TIP3   OH245829   2.608   2.302  30.985 -0.5876 -0.2320 -0.4247
 8113TIP3    H145830   2.619   2.263  31.072 -1.4592 -0.7469 -0.5316
 8113TIP3    H245831   2.559   2.383  31.002  0.4332  0.3790 -0.3035
 8114TIP3   OH245832   1.557   2.286   1.705  0.1752 -0.6513 -0.2423
 8114TIP3    H145833   1.490   2.338   1.749 -0.5540 -1.2004 -0.6909
 8114TIP3    H245834   1.571   2.330   1.621  1.1139  0.0323  0.2423
 8115TIP3   OH245835   0.145   0.014 106.156  0.1644  0.2784 -0.3199
 8115TIP3    H145836   0.130  -0.065 106.103 -1.3918  0.0077  0.4867
 8115TIP3    H245837   0.108  -0.007 106.242  0.6101  1.5419  0.2008
 8116TIP3   OH245838   1.980   1.473  13.092  0.4518 -0.5045  0.3528
 8116TIP3    H145839   1.956   1.487  13.001  2.7284  2.3676  0.0589
 8116TIP3    H245840   1.899   1.487  13.141 -0.6123 -1.2484 -1.1259
 8117TIP3   OH245841   0.429   0.846   6.242 -0.7786 -0.3114  0.3235
 8117TIP3    H145842   0.466   0.780   6.183 -0.5371 -0.9169  1.1359
 8117TIP3    H245843   0.427   0.926   6.190 -2.6644 -1.3053 -1.2668
 8118TIP3   OH245844   1.894   1.196  32.872  0.1153 -0.5695  0.1271
 8118TIP3    H145845   1.933   1.266  32.925  1.2897 -2.1593  1.4744
 8118TIP3    H245846   1.940   1.199  32.789 -2.1396  2.3425 -1.2187
 8119TIP3   OH245847   1.529   0.846  24.105  0.2632 -0.3331 -0.6244
 8119TIP3    H145848   1.568   0.827  24.019 -0.0413 -0.5286 -0.7185
 8119TIP3    H245849   1.464   0.915  24.087  0.4833 -0.0862 -0.4846
 8120TIP3   OH245850   1.890   0.391  20.690  0.5566  0.7605 -0.1905
 8120TIP3    H145851   1.979   0.369  20.716  0.2243  0.6567  0.9194
 8120TIP3    H245852   1.898   0.422  20.600  1.7203  0.8205 -0.0827
 8121TIP3   OH245853   0.782   2.129   0.392  0.2674 -0.0907 -0.2978
 8121TIP3    H145854   0.700   2.137   0.343  0.8572  1.3175 -1.0832
 8121TIP3    H245855   0.811   2.219   0.406  1.0368 -0.5323  1.0956
 8122TIP3   OH245856   2.252   1.267  26.988 -0.3225 -0.2379 -0.0577
 8122TIP3    H145857   2.254   1.318  26.907 -0.4708 -1.4213 -0.8499
 8122TIP3    H245858   2.339   1.278  27.026 -1.1074  2.5447  1.0999
 8123TIP3   OH245859   2.596   1.963  21.243  0.5951 -0.0147 -0.0343
 8123TIP3    H145860   2.689   1.941  21.239  0.5666  0.0603 -1.4610
 8123TIP3    H245861   2.552   1.881  21.262  0.9241 -0.1193  0.2797
 8124TIP3   OH245862   0.825   2.217  14.712  0.2436  0.3852 -0.2561
 8124TIP3    H145863   0.748   2.273  14.710  0.3273  0.5012 -0.2049
 8124TIP3    H245864   0.828   2.177  14.625 -0.4166 -0.3476  0.0440
 8125TIP3   OH245865   1.609   0.876   3.089 -0.1628  0.4001 -0.5041
 8125TIP3    H145866   1.523   0.840   3.109 -0.3317  0.7434 -0.6050
 8125TIP3    H245867   1.650   0.890   3.174 -0.8698  1.8343 -0.3634
 8126TIP3   OH245868   1.672   0.415 110.450  0.0099 -0.0909  0.5372
 8126TIP3    H145869   1.678   0.435 110.356  0.7974 -1.7133  0.2051
 8126TIP3    H245870   1.582   0.437 110.473  0.2342  1.8130 -0.2069
 8127TIP3   OH245871   1.709   0.522   2.253 -0.0265 -0.1137  0.0395
 8127TIP3    H145872   1.655   0.450   2.223 -0.3599 -1.0197  2.5237
 8127TIP3    H245873   1.794   0.482   2.270  0.2797  0.4509 -0.1554
 8128TIP3   OH245874   0.158   0.928 100.458 -0.2762 -0.3001  0.2867
 8128TIP3    H145875   0.150   0.877 100.538 -1.3284  1.2153  1.2020
 8128TIP3    H245876   0.220   0.998 100.481  0.1150 -0.3666 -0.5171
 8129TIP3   OH245877   0.737   0.892 107.836  0.5904 -0.0173 -0.2353
 8129TIP3    H145878   0.793   0.817 107.855  0.4668  0.0017  0.2070
 8129TIP3    H245879   0.658   0.854 107.797  1.5882  0.0644 -2.5149
 8130TIP3   OH245880   1.173   2.475  99.751  0.1176 -0.0673  0.4364
 8130TIP3    H145881   1.232   2.514  99.687  0.0236  2.1222  1.6018
 8130TIP3    H245882   1.216   2.393  99.776  1.6037  0.4562 -0.2607
 8131TIP3   OH245883   1.700   0.535  19.078 -0.1606  0.3175  0.7017
 8131TIP3    H145884   1.784   0.572  19.104 -0.9177  3.0528 -0.4242
 8131TIP3    H245885   1.722   0.470  19.011  1.1356 -0.2047  1.6083
 8132TIP3   OH245886   2.300   1.153  15.585  0.3272 -0.1732 -0.6377
 8132TIP3    H145887   2.332   1.177  15.672 -0.0391  0.7180 -0.7470
 8132TIP3    H245888   2.315   1.058  15.580 -0.9643 -0.5107  0.9511
 8133TIP3   OH245889   0.452   0.686  66.685  0.4384 -0.1133 -0.6580
 8133TIP3    H145890   0.390   0.655  66.619 -0.7069  1.4790 -0.3773
 8133TIP3    H245891   0.530   0.711  66.635 -0.6981  1.8171 -1.5700
 8134TIP3   OH245892   1.417   1.572  23.093 -0.0843  0.4289 -0.1510
 8134TIP3    H145893   1.491   1.550  23.150 -0.9807  0.6717  1.1562
 8134TIP3    H245894   1.434   1.524  23.012 -0.7201 -3.1794  1.6546
 8135TIP3   OH245895   0.957   0.477  79.595 -0.1220  0.6170 -0.1168
 8135TIP3    H145896   0.875   0.438  79.565 -1.0415 -1.0491  3.8797
 8135TIP3    H245897   0.938   0.571  79.601 -1.1099  0.4880 -0.9290
 8136TIP3   OH245898   2.589   1.602  86.771 -0.0566 -0.1486 -0.0730
 8136TIP3    H145899   2.671   1.648  86.752  0.5793 -0.9354  0.6848
 8136TIP3    H245900   2.542   1.600  86.688 -0.1448  1.9302 -0.1215
 8137TIP3   OH245901   0.004   0.084  85.301  0.1651 -0.1266 -0.4974
 8137TIP3    H145902  -0.084   0.069  85.265 -0.0418  0.8490 -0.4317
 8137TIP3    H245903  -0.012   0.119  85.389  0.6229  0.0527 -0.4849
 8138TIP3   OH245904   2.513   1.409  81.838  0.4611 -0.6200 -0.0914
 8138TIP3    H145905   2.578   1.340  81.830 -0.7464 -1.6366 -1.6995
 8138TIP3    H245906   2.493   1.413  81.932  3.8642  0.8120  0.7315
 8139TIP3   OH245907   2.341   0.818  33.176 -0.3215  0.0568 -0.3200
 8139TIP3    H145908   2.433   0.842  33.172 -0.4587  0.4882 -1.3406
 8139TIP3    H245909   2.308   0.834  33.087 -1.4337  0.1326  0.0855
 8140TIP3   OH245910   2.272   0.974  30.136  0.1580  0.4495 -0.5685
 8140TIP3    H145911   2.259   0.888  30.176  2.2111 -0.1193 -0.9884
 8140TIP3    H245912   2.350   1.009  30.179 -1.2583  2.6401  0.3750
 8141TIP3   OH245913   1.871   2.343  18.883  0.2913  0.2779  0.5231
 8141TIP3    H145914   1.942   2.407  18.883  0.9912 -0.4756  1.3557
 8141TIP3    H245915   1.872   2.306  18.794  2.5032 -1.3734  1.1591
 8142TIP3   OH245916   1.132   1.353   1.602 -0.1621  0.2022 -0.4161
 8142TIP3    H145917   1.211   1.393   1.638 -0.8567  1.4213 -0.1853
 8142TIP3    H245918   1.136   1.262   1.632  0.4593  0.5921  0.7684
 8143TIP3   OH245919   0.103   1.792  34.886 -0.1286  0.0641  0.1232
 8143TIP3    H145920   0.047   1.752  34.820  0.3500 -1.4579  0.5914
 8143TIP3    H245921   0.174   1.832  34.837  0.4552 -1.4281 -0.3046
 8144TIP3   OH245922   1.927   0.675  21.044  0.7577  0.3322  0.2535
 8144TIP3    H145923   1.939   0.580  21.040  2.8896  0.5659 -0.7166
 8144TIP3    H245924   2.008   0.707  21.085  0.6032  1.7881 -0.5134
 8145TIP3   OH245925   0.413   1.990  81.384 -0.1098  0.5343 -0.6873
 8145TIP3    H145926   0.405   2.041  81.304 -1.8373  0.5617 -0.5247
 8145TIP3    H245927   0.423   1.899  81.354 -0.0547  0.6206 -0.9262
 8146TIP3   OH245928   0.959   0.488  87.029  0.3053 -0.2612  0.2744
 8146TIP3    H145929   0.908   0.503  86.949  0.6563 -1.7409 -0.2592
 8146TIP3    H245930   1.049   0.503  87.003  0.5518 -1.9838  0.0209
 8147TIP3   OH245931   0.533   0.274  23.988 -0.1403 -0.3689  0.1829
 8147TIP3    H145932   0.556   0.235  23.903 -1.2957 -1.8756  0.4985
 8147TIP3    H245933   0.444   0.241  24.005 -0.9872  2.0222  0.7770
 8148TIP3   OH245934   2.538   1.359  87.306 -0.4668  0.0133 -0.1639
 8148TIP3    H145935   2.620   1.406  87.290 -1.3529  1.3938 -0.8259
 8148TIP3    H245936   2.502   1.399  87.385 -1.0130  0.1583 -0.4832
 8149TIP3   OH245937   1.727   0.786  11.911 -0.0178  0.2250  0.3119
 8149TIP3    H145938   1.798   0.723  11.919  0.1580  0.2286 -0.9783
 8149TIP3    H245939   1.650   0.741  11.945  0.4765 -0.0035  1.1325
 8150TIP3   OH245940   1.178   1.131   2.166 -0.5573  0.9069 -0.6312
 8150TIP3    H145941   1.199   1.202   2.226 -1.0847  1.0259 -0.5764
 8150TIP3    H245942   1.170   1.054   2.222  0.1855  0.7622 -0.7123
 8151TIP3   OH245943   0.967   1.637  18.177 -0.5804  0.4427 -0.0549
 8151TIP3    H145944   0.884   1.641  18.226  0.5151  0.8995  1.8659
 8151TIP3    H245945   0.989   1.729  18.160  0.0987  0.3907  0.4929
 8152TIP3   OH245946   1.366   2.093   1.650 -0.4845 -0.4949 -0.3601
 8152TIP3    H145947   1.280   2.132   1.662 -1.3277 -2.3634  0.0737
 8152TIP3    H245948   1.428   2.164   1.667 -1.8626  0.1802  2.4225
 8153TIP3   OH245949   2.518   1.492  77.627  0.0890  0.0057  0.3136
 8153TIP3    H145950   2.487   1.453  77.708  0.3131 -0.6238  0.0965
 8153TIP3    H245951   2.600   1.447  77.607 -0.9671 -1.3194 -1.3356
 8154TIP3   OH245952   0.647   0.061  24.304  0.5437  0.1413  0.0459
 8154TIP3    H145953   0.642   0.143  24.255  2.7311 -0.0570 -0.5808
 8154TIP3    H245954   0.721   0.014  24.266 -0.2386 -1.8513  0.8321
 8155TIP3   OH245955   2.593   1.946  91.093  0.0023  0.3093 -0.3203
 8155TIP3    H145956   2.613   2.036  91.119 -1.3851  0.7637 -0.7438
 8155TIP3    H245957   2.569   1.952  91.001 -2.2406 -0.1113  0.1775
 8156TIP3   OH245958   1.912   1.531  96.111  0.0349  0.3743  0.2166
 8156TIP3    H145959   1.935   1.588  96.038 -1.3417  0.0435 -0.5257
 8156TIP3    H245960   1.975   1.459  96.106  0.0878  0.4589 -0.5471
 8157TIP3   OH245961   0.919   0.036  37.242  0.3926  0.9486  0.0040
 8157TIP3    H145962   1.010   0.008  37.229  0.2543 -0.1340  1.2015
 8157TIP3    H245963   0.876   0.015  37.159  0.7612 -0.5310  0.1613
 8158TIP3   OH245964   1.449   2.634  15.925  0.0263  0.5219  0.2215
 8158TIP3    H145965   1.389   2.611  15.995 -0.3426  0.6682 -0.0451
 8158TIP3    H245966   1.508   2.559  15.918  0.3262  0.6800  0.9651
 8159TIP3   OH245967   2.622   0.782   2.321 -0.0395  0.2576  0.5210
 8159TIP3    H145968   2.594   0.822   2.239 -1.2389 -0.3352  0.6300
 8159TIP3    H245969   2.670   0.851   2.367  0.1471  0.7595 -0.4205
 8160TIP3   OH245970   0.072   2.115   6.185 -0.0501 -0.0677  0.0585
 8160TIP3    H145971  -0.020   2.139   6.182 -0.7943 -2.6078 -2.2385
 8160TIP3    H245972   0.075   2.037   6.242  0.1882 -1.3770 -1.6524
 8161TIP3   OH245973   0.103   0.565  27.246  0.9518  0.5289  0.1483
 8161TIP3    H145974   0.073   0.516  27.169 -0.9585  1.0135  0.5232
 8161TIP3    H245975   0.100   0.657  27.218  0.3754  0.6978  0.7237
 8162TIP3   OH245976   2.615   1.706 101.877  0.4379  0.3057 -0.1546
 8162TIP3    H145977   2.649   1.647 101.809 -0.8461 -1.1940  0.4539
 8162TIP3    H245978   2.526   1.727 101.848 -0.0871 -0.2655  0.9639
 8163TIP3   OH245979   0.589   1.386   0.915 -0.4822  0.1872  0.1880
 8163TIP3    H145980   0.672   1.432   0.929 -0.8308  0.9330 -0.1104
 8163TIP3    H245981   0.543   1.393   0.998 -1.4330  2.2879 -0.4476
 8164TIP3   OH245982   0.480   2.373   4.264 -0.8802 -0.1380 -0.1709
 8164TIP3    H145983   0.472   2.416   4.349 -1.2631  0.1073 -0.3244
 8164TIP3    H245984   0.389   2.360   4.236 -0.7907 -1.5518  0.1184
 8165TIP3   OH245985   1.851   1.662  26.174  0.6125  0.3682 -0.1011
 8165TIP3    H145986   1.795   1.717  26.228 -0.5894 -2.1256  1.3795
 8165TIP3    H245987   1.921   1.633  26.233  0.5756 -0.5961 -0.5126
 8166TIP3   OH245988   2.628   2.583  96.885 -0.1633  0.2903  0.0471
 8166TIP3    H145989   2.622   2.662  96.831  1.6794  0.1521 -0.4574
 8166TIP3    H245990   2.587   2.515  96.832 -0.6276  0.6626 -0.0780
 8167TIP3   OH245991   0.339   1.541  18.158  0.1884  0.4112  0.3103
 8167TIP3    H145992   0.293   1.463  18.190 -0.3322  0.3155 -0.6390
 8167TIP3    H245993   0.306   1.612  18.214 -0.4280  0.1858  0.2439
 8168TIP3   OH245994   1.706   1.285  26.677  0.4976  0.1998 -0.2111
 8168TIP3    H145995   1.747   1.339  26.609 -0.1403 -0.4306 -1.1195
 8168TIP3    H245996   1.745   1.316  26.759  0.1731  2.0081 -0.7004
 8169TIP3   OH245997   2.607   0.597  24.282  0.2212 -0.3096 -0.1952
 8169TIP3    H145998   2.588   0.576  24.191 -0.1654 -1.0255  0.0435
 8169TIP3    H245999   2.620   0.692  24.283 -1.5952 -0.0194 -0.6827
 8170TIP3   OH246000   0.812   1.160  91.417  0.3319  0.3446  0.4189
 8170TIP3    H146001   0.827   1.249  91.386 -1.1316  0.5189  0.1063
 8170TIP3    H246002   0.896   1.116  91.406  0.3535  0.8547 -2.3187
 8171TIP3   OH246003   0.629   0.429  93.657  0.2831  0.7007 -0.5036
 8171TIP3    H146004   0.569   0.489  93.701  2.5966  2.2591  0.7167
 8171TIP3    H246005   0.638   0.355  93.717  0.5984  1.0848 -0.0819
 8172TIP3   OH246006   1.269   1.129  86.868  0.2110  0.5564 -0.1981
 8172TIP3    H146007   1.361   1.122  86.843 -0.8145  1.2116 -5.0246
 8172TIP3    H246008   1.243   1.217  86.841 -2.3614 -0.4615 -1.3694
 8173TIP3   OH246009   0.344   1.465 101.444  0.0637 -0.2258 -0.5025
 8173TIP3    H146010   0.419   1.524 101.438  0.4344 -0.8105 -1.8556
 8173TIP3    H246011   0.294   1.480 101.364 -1.1250 -0.0836  0.2345
 8174TIP3   OH246012   1.753   0.391  93.347  0.3699  0.3720 -0.3065
 8174TIP3    H146013   1.674   0.443  93.358  0.5278  0.3743  1.0260
 8174TIP3    H246014   1.821   0.454  93.322  0.8389  1.1109  2.4348
 8175TIP3   OH246015   0.399   1.234 106.152  0.6758  0.6265  0.3832
 8175TIP3    H146016   0.474   1.200 106.104  1.2349  0.7000  1.1970
 8175TIP3    H246017   0.379   1.317 106.109  1.1350  0.6624  0.2360
 8176TIP3   OH246018   2.084   0.818  33.512 -0.1931 -0.3635  0.1076
 8176TIP3    H146019   2.146   0.757  33.551 -0.5282 -0.0883  1.0807
 8176TIP3    H246020   2.121   0.838  33.426  1.6478  0.6518  1.0957
 8177TIP3   OH246021   1.573   2.253   4.185  0.0967  0.1809 -0.0890
 8177TIP3    H146022   1.560   2.178   4.243 -0.4932  0.7178  0.4859
 8177TIP3    H246023   1.522   2.323   4.224  0.4621  0.8286 -0.7430
 8178TIP3   OH246024   1.536   1.526  23.831  0.0569 -0.4307 -0.3666
 8178TIP3    H146025   1.503   1.611  23.860  0.7068 -0.6625  1.1679
 8178TIP3    H246026   1.585   1.545  23.751  1.6071  0.9399  0.8522
 8179TIP3   OH246027   2.556   0.663   6.006 -0.2314  0.0977  0.0864
 8179TIP3    H146028   2.543   0.751   5.970  0.8161 -0.1831 -1.0362
 8179TIP3    H246029   2.555   0.605   5.930  1.6953 -0.5610  0.4937
 8180TIP3   OH246030   2.584   2.432  82.992 -0.2883  0.6610 -0.3084
 8180TIP3    H146031   2.565   2.487  83.068 -0.8678 -1.1232  0.9050
 8180TIP3    H246032   2.506   2.441  82.937 -0.8802  0.2033  0.4311
 8181TIP3   OH246033   1.007   0.062   8.536  0.1154 -0.2318  0.3010
 8181TIP3    H146034   1.091   0.108   8.535  0.0012 -0.0215 -0.4601
 8181TIP3    H246035   0.945   0.126   8.570 -0.2562  0.6046 -1.8025
 8182TIP3   OH246036   2.133   0.334 103.536 -0.0489 -0.0465  0.3962
 8182TIP3    H146037   2.155   0.426 103.520  1.9350 -0.4686  0.3901
 8182TIP3    H246038   2.146   0.291 103.451  0.9826 -0.6360  0.8211
 8183TIP3   OH246039   1.265   2.292  85.886  0.2904  0.4916 -0.3493
 8183TIP3    H146040   1.245   2.354  85.957  0.3030  2.3780 -1.9125
 8183TIP3    H246041   1.356   2.266  85.902 -0.0083  0.0833  0.8631
 8184TIP3   OH246042   2.375   2.456  79.853 -0.0264 -0.3831 -0.6816
 8184TIP3    H146043   2.455   2.484  79.809 -0.7355  0.9419 -1.2105
 8184TIP3    H246044   2.336   2.392  79.794 -0.8587  1.2170 -1.9525
 8185TIP3   OH246045   0.139   1.997 101.099 -0.3913  0.2106  0.3687
 8185TIP3    H146046   0.120   1.903 101.092 -1.8464  0.4709  0.6738
 8185TIP3    H246047   0.112   2.033 101.014 -0.4144  0.4529  0.4790
 8186TIP3   OH246048   0.236   0.092 111.318  0.0319  0.5794  0.3552
 8186TIP3    H146049   0.181   0.015 111.326  0.4043  0.3359  0.6174
 8186TIP3    H246050   0.294   0.073 111.244 -0.0181  0.6984  0.2832
 8187TIP3   OH246051   2.334   0.388  99.577 -0.1750  0.8264  0.1542
 8187TIP3    H146052   2.274   0.404  99.503  1.4442 -0.0679 -1.4514
 8187TIP3    H246053   2.328   0.467  99.630 -0.7446  1.9023 -1.4366
 8188TIP3   OH246054   1.518   0.927   5.826 -0.4771 -0.0372 -0.0125
 8188TIP3    H146055   1.565   0.963   5.750  2.7349 -0.7812  1.4342
 8188TIP3    H246056   1.479   1.003   5.868 -1.0627  0.5667 -1.5715
 8189TIP3   OH246057   1.702   0.152  75.897 -0.0822  0.3376  0.1272
 8189TIP3    H146058   1.643   0.164  75.971 -0.7392 -3.5089  0.4126
 8189TIP3    H246059   1.665   0.078  75.848  2.7387 -0.1239 -1.5527
 8190TIP3   OH246060   1.168   0.557   4.075  0.1091 -0.2720  0.1572
 8190TIP3    H146061   1.129   0.531   3.992 -1.8606 -0.4059  1.0626
 8190TIP3    H246062   1.174   0.652   4.070  1.3464 -0.3640 -0.6580
 8191TIP3   OH246063   2.039   2.469  30.574  0.4315  0.4806  0.3043
 8191TIP3    H146064   1.972   2.402  30.564  1.4883 -0.6261  0.4304
 8191TIP3    H246065   2.067   2.462  30.665  1.1948  0.4431  0.0775
 8192TIP3   OH246066   1.446   1.416   9.616  0.1288 -0.2566 -0.0167
 8192TIP3    H146067   1.505   1.489   9.597  0.8445 -0.2385  1.9980
 8192TIP3    H246068   1.363   1.458   9.640 -0.0435 -0.2025 -0.6785
 8193TIP3   OH246069   1.437   2.006  10.951  0.1509  0.5532  0.2003
 8193TIP3    H146070   1.512   1.949  10.972 -0.3957  0.2363  1.4024
 8193TIP3    H246071   1.362   1.964  10.994 -0.5446  1.3681 -0.1834
 8194TIP3   OH246072   1.164   0.132  88.168  0.3314 -0.4830  0.3927
 8194TIP3    H146073   1.219   0.053  88.165  1.5836  0.3547  0.5254
 8194TIP3    H246074   1.226   0.204  88.180 -0.8575  0.4609  1.0563
 8195TIP3   OH246075   0.390   2.459 107.052 -0.2588 -0.2952 -0.0852
 8195TIP3    H146076   0.479   2.433 107.073 -0.6070 -1.9145 -0.4848
 8195TIP3    H246077   0.392   2.555 107.053  1.0181 -0.2856  1.7981
 8196TIP3   OH246078   0.289   0.250 109.733 -0.0569 -0.8154  0.3083
 8196TIP3    H146079   0.283   0.283 109.823  0.2545 -1.1239  0.4423
 8196TIP3    H246080   0.243   0.166 109.735 -0.4121 -0.6312  0.0821
 8197TIP3   OH246081   1.129   0.975 112.113 -0.5775 -0.0872  0.1777
 8197TIP3    H146082   1.109   0.881 112.111 -1.7468  0.1285  0.7555
 8197TIP3    H246083   1.103   1.003 112.201  2.2454  0.2860  1.0104
 8198TIP3   OH246084   1.108   0.793  19.836  0.0843 -0.1855 -0.5665
 8198TIP3    H146085   1.089   0.836  19.920  1.6004 -0.4314 -0.0499
 8198TIP3    H246086   1.024   0.790  19.791 -0.3904  1.8603  0.0495
 8199TIP3   OH246087   2.454   1.548  15.119  0.0103 -0.3204  0.2201
 8199TIP3    H146088   2.528   1.488  15.118  1.1888  1.0093  2.0805
 8199TIP3    H246089   2.402   1.522  15.195 -1.0110 -0.7155 -0.5852
 8200TIP3   OH246090   1.304   1.131  84.917 -0.0248  0.0409 -0.0929
 8200TIP3    H146091   1.234   1.084  84.963  0.2802  0.2255  0.5742
 8200TIP3    H246092   1.380   1.073  84.922  0.0414  0.1152 -0.2505
 8201TIP3   OH246093   1.775   0.046   5.336 -0.8276 -0.2906 -0.2078
 8201TIP3    H146094   1.710   0.046   5.266 -1.4295  1.0235  0.3191
 8201TIP3    H246095   1.731   0.089   5.410  0.7716  1.0480  0.0271
 8202TIP3   OH246096   1.922   2.646  32.004  0.5887 -0.0150  0.0482
 8202TIP3    H146097   1.915   2.588  31.928  0.7385 -0.5871  0.4653
 8202TIP3    H246098   1.976   2.598  32.066 -0.6700 -0.1506  1.0763
 8203TIP3   OH246099   1.111   2.385  78.239  0.1486 -0.5555  0.3615
 8203TIP3    H146100   1.201   2.371  78.211  0.0198 -1.0190  0.1737
 8203TIP3    H246101   1.068   2.300  78.227  0.2274 -0.9709  2.5423
 8204TIP3   OH246102   0.700   1.285  79.531 -0.4623  0.6956  0.1128
 8204TIP3    H146103   0.782   1.268  79.485 -0.8166 -0.4399 -0.1108
 8204TIP3    H246104   0.699   1.381  79.542  0.8828  0.7314  0.1301
 8205TIP3   OH246105   1.096   1.875  79.048  0.1148  0.3587  0.1102
 8205TIP3    H146106   1.187   1.896  79.029 -0.2614  1.7006 -0.2552
 8205TIP3    H246107   1.063   1.950  79.096 -0.4293 -0.7182  1.4872
 8206TIP3   OH246108   2.217   1.660  83.788  0.4926  0.1618  0.3009
 8206TIP3    H146109   2.160   1.695  83.855 -0.9186 -1.1665 -0.1381
 8206TIP3    H246110   2.158   1.622  83.723  1.8169  0.7107 -1.3212
 8207TIP3   OH246111   0.173   0.246  34.598  0.4281  0.2219  0.2126
 8207TIP3    H146112   0.240   0.269  34.535  0.8970  0.4741  0.7964
 8207TIP3    H246113   0.140   0.161  34.568 -0.8460  1.2821 -1.5653
 8208TIP3   OH246114   1.550   1.417  62.966 -0.4107  0.2910  0.3197
 8208TIP3    H146115   1.466   1.447  62.932 -0.1345  1.5900  0.7281
 8208TIP3    H246116   1.575   1.484  63.029  0.8736 -0.1521  0.2979
 8209TIP3   OH246117   0.596   0.413 104.639 -0.3224 -0.2103 -0.4379
 8209TIP3    H146118   0.627   0.502 104.655 -0.4619 -0.1390 -0.5570
 8209TIP3    H246119   0.603   0.369 104.723  0.8448 -0.4290 -0.6351
 8210TIP3   OH246120   2.453   1.178  22.996  0.0745 -0.0723 -0.2478
 8210TIP3    H146121   2.405   1.193  23.077  0.5968 -0.9819  0.2343
 8210TIP3    H246122   2.399   1.115  22.948  0.1299 -0.0929 -0.2829
 8211TIP3   OH246123   2.065   0.746  93.809 -0.5495  0.2746  0.1958
 8211TIP3    H146124   2.159   0.736  93.822 -0.4813 -0.2100 -0.5921
 8211TIP3    H246125   2.053   0.840  93.791 -0.0755  0.1756 -0.6945
 8212TIP3   OH246126   0.607   1.188  92.885 -0.0850  0.7490 -0.2752
 8212TIP3    H146127   0.644   1.248  92.950 -0.7280  1.4625 -0.5567
 8212TIP3    H246128   0.631   1.227  92.801  0.3240  0.0865 -0.4773
 8213TIP3   OH246129   0.512   0.267  14.458 -0.4648 -0.2806  0.0170
 8213TIP3    H146130   0.598   0.293  14.491 -0.5720 -1.4095  1.2669
 8213TIP3    H246131   0.450   0.318  14.509 -0.5727  0.0088 -0.3923
 8214TIP3   OH246132   1.037   1.823  84.958  0.1532  0.2956 -0.5128
 8214TIP3    H146133   0.959   1.837  84.905  0.7630  0.3333 -1.4399
 8214TIP3    H246134   1.050   1.906  85.005  0.1876  0.6452 -1.1235
 8215TIP3   OH246135   1.863   1.281  29.996  0.0861 -0.3017  0.4011
 8215TIP3    H146136   1.934   1.322  30.045  0.6146  0.3993 -0.8918
 8215TIP3    H246137   1.786   1.288  30.052  0.1295  2.5238  0.2408
 8216TIP3   OH246138   1.726   0.423  33.755  0.1325 -0.4307  0.1041
 8216TIP3    H146139   1.820   0.440  33.766  0.5372 -1.9420 -0.7462
 8216TIP3    H246140   1.687   0.451  33.838  1.2086  0.9222  0.1978
 8217TIP3   OH246141   2.398   0.550  34.185  0.0505 -0.1851 -0.0727
 8217TIP3    H146142   2.444   0.587  34.261 -0.3142 -1.7483  0.9730
 8217TIP3    H246143   2.405   0.455  34.197 -3.1178 -0.5225 -0.0066
 8218TIP3   OH246144   0.213   0.004  87.035 -0.1001 -0.3954 -0.0310
 8218TIP3    H146145   0.170   0.024  86.952  2.3370  3.3601 -0.6170
 8218TIP3    H246146   0.168   0.059  87.099  1.0141  0.3089  0.1672
 8219TIP3   OH246147   1.222   0.927  37.690 -0.1404 -0.1919  0.0329
 8219TIP3    H146148   1.287   0.883  37.745  0.2752  0.1019 -0.2150
 8219TIP3    H246149   1.141   0.879  37.705  0.0137 -0.2340  0.7541
 8220TIP3   OH246150   1.762   2.145  14.040  0.9841  0.0800  0.4719
 8220TIP3    H146151   1.716   2.228  14.033 -0.1014 -0.6100 -0.9058
 8220TIP3    H246152   1.737   2.111  14.126  0.1985  0.4670  0.4006
 8221TIP3   OH246153   2.090   2.517  85.017 -0.8591 -0.3412 -0.0509
 8221TIP3    H146154   2.040   2.436  85.027  1.7970 -1.9388  1.6298
 8221TIP3    H246155   2.080   2.561  85.101  1.5143 -1.3847  0.8672
 8222TIP3   OH246156   2.114   1.069  83.957 -0.3126 -0.3101  0.1152
 8222TIP3    H146157   2.141   1.066  83.865  1.1898  0.2282  0.5095
 8222TIP3    H246158   2.018   1.068  83.954 -0.2846 -0.7955 -1.4277
 8223TIP3   OH246159   1.454   1.266  14.961  0.1089 -0.4055 -0.0056
 8223TIP3    H146160   1.511   1.232  15.030  0.6085 -0.8253 -0.6122
 8223TIP3    H246161   1.499   1.242  14.880 -0.6172 -0.1685 -0.4796
 8224TIP3   OH246162   0.016   2.556   9.867 -0.2025 -0.1323  0.0020
 8224TIP3    H146163   0.069   2.553   9.947  0.3624  3.7320 -0.0251
 8224TIP3    H246164   0.056   2.492   9.809  0.2867 -1.9954  2.2088
 8225TIP3   OH246165   2.495   0.021  29.879 -0.3169  0.1083  0.1981
 8225TIP3    H146166   2.490   0.004  29.973 -0.7210 -1.1355 -0.0344
 8225TIP3    H246167   2.588   0.017  29.858 -0.3351 -1.1611  0.2917
 8226TIP3   OH246168   2.252   2.398 100.954 -0.2437 -0.5786  0.4377
 8226TIP3    H146169   2.166   2.404 100.996 -0.3420 -3.2511  0.8007
 8226TIP3    H246170   2.274   2.305 100.957  2.1113 -0.1500 -0.8052
 8227TIP3   OH246171   2.041   1.548 111.810 -0.0135  0.2874  0.3044
 8227TIP3    H146172   2.110   1.492 111.846  0.4892  0.2616 -0.6508
 8227TIP3    H246173   1.980   1.486 111.769  0.6779  0.4185 -0.9857
 8228TIP3   OH246174   1.374   0.606  77.041 -0.2533  0.1587  0.3014
 8228TIP3    H146175   1.282   0.612  77.064 -0.5587  2.8935 -1.1814
 8228TIP3    H246176   1.374   0.577  76.949  0.5234 -1.7955  0.8550
 8229TIP3   OH246177   1.019   2.380  13.517 -0.4518 -0.7075  0.0154
 8229TIP3    H146178   0.946   2.319  13.510 -1.8148  0.6068  1.7658
 8229TIP3    H246179   1.054   2.367  13.605  0.3146 -0.1250 -0.1861
 8230TIP3   OH246180   2.011   1.980   7.008 -0.0652 -0.3196  0.3398
 8230TIP3    H146181   1.946   1.919   6.971  1.0464 -2.0153  1.0434
 8230TIP3    H246182   1.976   2.001   7.095 -0.8225  0.6787 -0.1889
 8231TIP3   OH246183   0.604   0.988 108.834  0.0858  0.0796 -0.4332
 8231TIP3    H146184   0.561   0.925 108.776  0.1432  0.2808 -0.6998
 8231TIP3    H246185   0.638   1.055 108.775  0.6545 -0.0083 -0.2074
 8232TIP3   OH246186   1.461   0.694 103.678  0.0275  0.1330  0.2440
 8232TIP3    H146187   1.521   0.628 103.644  0.6405  0.6377  0.3235
 8232TIP3    H246188   1.505   0.730 103.755  0.0076  1.0586 -0.1508
 8233TIP3   OH246189   2.676   0.314  12.759 -0.0165  0.3384 -0.5768
 8233TIP3    H146190   2.748   0.374  12.779  0.8819 -0.8682 -0.0226
 8233TIP3    H246191   2.653   0.275  12.843 -1.9416  1.3342 -0.6080
 8234TIP3   OH246192   2.226   2.443 108.927  0.6444 -0.6465 -0.3118
 8234TIP3    H146193   2.301   2.501 108.942  1.1009 -1.3008 -0.0439
 8234TIP3    H246194   2.255   2.357 108.957  0.4223 -1.3015 -1.8703
 8235TIP3   OH246195   1.293   1.691  17.604 -0.2576 -0.2163 -0.2243
 8235TIP3    H146196   1.307   1.731  17.690 -1.8447 -0.1460  0.0240
 8235TIP3    H246197   1.262   1.763  17.549  0.7759 -0.2538 -0.9012
 8236TIP3   OH246198   0.493   2.412  96.176  0.2888 -0.3383 -0.0847
 8236TIP3    H146199   0.472   2.501  96.148 -0.5350 -0.8294 -1.0879
 8236TIP3    H246200   0.455   2.356  96.108  2.1764 -1.4086 -0.3271
 8237TIP3   OH246201   0.218   1.047  33.449 -0.3798 -0.0422 -0.3062
 8237TIP3    H146202   0.277   1.116  33.478  1.0838 -1.3718  0.0188
 8237TIP3    H246203   0.191   1.075  33.361 -0.1936  1.1409 -0.0105
 8238TIP3   OH246204   2.658   2.480  41.162 -0.1959 -0.5634  0.1399
 8238TIP3    H146205   2.682   2.471  41.254 -0.3407 -0.0208  0.2306
 8238TIP3    H246206   2.725   2.430  41.115  1.5874  1.5326  0.3249
 8239TIP3   OH246207   2.080   1.883  75.918  0.7380  0.5236  0.0077
 8239TIP3    H146208   2.159   1.853  75.872 -0.4661  0.2127 -1.9336
 8239TIP3    H246209   2.038   1.802  75.948  0.8647  0.6639  0.5848
 8240TIP3   OH246210   2.202   0.072  79.709 -0.7143 -0.5805 -0.2825
 8240TIP3    H146211   2.114   0.047  79.679 -1.6297  3.0196 -1.0435
 8240TIP3    H246212   2.248   0.097  79.629  0.5219 -0.9714  0.2901
 8241TIP3   OH246213   2.002   1.999 110.098  0.0068 -0.1195  0.4369
 8241TIP3    H146214   2.041   1.932 110.042 -0.7674 -0.6272  0.4877
 8241TIP3    H246215   2.043   1.985 110.184  0.5100  0.0651  0.2304
 8242TIP3   OH246216   0.264   0.138  68.080 -0.3104 -0.9103  0.0933
 8242TIP3    H146217   0.212   0.086  68.142 -1.9883  0.9611  0.3855
 8242TIP3    H246218   0.246   0.229  68.105  3.4142 -0.1100  0.3644
 8243TIP3   OH246219   2.071   2.112  96.297 -0.4502 -0.3845 -0.3184
 8243TIP3    H146220   2.080   2.028  96.252 -0.7154 -0.8104  0.3973
 8243TIP3    H246221   2.150   2.119  96.351 -1.4699 -1.2779  1.3694
 8244TIP3   OH246222   2.547   1.763  22.157 -0.5692 -0.1044  0.4965
 8244TIP3    H146223   2.628   1.804  22.125 -0.8004  0.1813  0.2579
 8244TIP3    H246224   2.482   1.786  22.090 -0.1474 -3.1738 -1.1293
 8245TIP3   OH246225   1.956   0.636   4.927  0.0388 -0.3663 -0.3830
 8245TIP3    H146226   2.047   0.664   4.920 -0.4293  1.1320 -0.8473
 8245TIP3    H246227   1.918   0.656   4.841 -1.0925  0.4614  0.2834
 8246TIP3   OH246228   1.319   2.428  14.866 -0.4414  0.1494 -0.1234
 8246TIP3    H146229   1.259   2.414  14.939  1.7342  0.3425  1.7951
 8246TIP3    H246230   1.299   2.517  14.835  0.4955  1.2660  2.2130
 8247TIP3   OH246231   0.969   2.458  80.839  0.2934 -0.0360  0.6110
 8247TIP3    H146232   0.922   2.426  80.916 -0.2143 -1.8457 -0.3759
 8247TIP3    H246233   0.936   2.546  80.824  0.5695  0.4353  2.5647
 8248TIP3   OH246234   0.403   2.573 109.569  0.3021  0.1518  0.0792
 8248TIP3    H146235   0.439   2.644 109.621  1.3937  0.2735 -0.8084
 8248TIP3    H246236   0.421   2.494 109.622 -0.9062  0.4994  1.0639
 8249TIP3   OH246237   1.721   2.406  74.366  0.6205 -0.0035 -0.0074
 8249TIP3    H146238   1.796   2.348  74.356 -0.8597 -1.9617 -0.1788
 8249TIP3    H246239   1.717   2.455  74.284  1.7562  0.2276  0.0599
 8250TIP3   OH246240   0.411   2.378  10.222 -0.0227  0.1337 -0.2868
 8250TIP3    H146241   0.399   2.377  10.127  0.0629 -0.0509 -0.2971
 8250TIP3    H246242   0.433   2.287  10.244 -0.4154  0.0944 -0.0439
 8251TIP3   OH246243   0.261   0.255  89.730  0.0739  0.1949  0.3510
 8251TIP3    H146244   0.353   0.229  89.740 -0.3642 -1.3461  0.6746
 8251TIP3    H246245   0.215   0.204  89.796 -1.5128 -1.9482 -2.2020
 8252TIP3   OH246246   1.626   0.403  19.890 -0.5521 -0.0965  0.4439
 8252TIP3    H146247   1.666   0.460  19.825 -2.5115  1.4114  0.4727
 8252TIP3    H246248   1.550   0.365  19.846 -1.0994 -0.1417  1.3889
 8253TIP3   OH246249   1.697   1.758   9.265  0.1149 -0.0504  0.7187
 8253TIP3    H146250   1.768   1.695   9.276 -0.3045 -0.4286  1.3197
 8253TIP3    H246251   1.742   1.841   9.247  0.7262 -0.2283  1.3774
 8254TIP3   OH246252   2.125   1.791  74.045 -0.1933  0.1410 -0.5740
 8254TIP3    H146253   2.139   1.713  74.099  0.7357  0.3963 -0.4292
 8254TIP3    H246254   2.125   1.758  73.955 -3.1495 -0.5139 -0.4653
 8255TIP3   OH246255   1.938   0.917  94.021  0.2342  0.8120 -0.1738
 8255TIP3    H146256   1.896   0.923  93.936  0.8423  1.6060 -0.4225
 8255TIP3    H246257   1.866   0.925  94.084  0.1367  4.1695 -0.5445
 8256TIP3   OH246258   2.417   1.726   4.677 -0.4961 -0.3873 -0.4481
 8256TIP3    H146259   2.425   1.777   4.757 -0.1612  0.1965 -0.8466
 8256TIP3    H246260   2.484   1.658   4.685  0.2038  0.2666 -0.6649
 8257TIP3   OH246261   0.234   1.711  89.993  0.4334 -0.1627 -0.9518
 8257TIP3    H146262   0.305   1.761  89.954  0.2148 -1.2102 -2.7890
 8257TIP3    H246263   0.265   1.621  89.994 -0.0948 -0.3591  0.1504
 8258TIP3   OH246264   1.752   0.098  36.152 -0.2640 -0.2816 -0.0516
 8258TIP3    H146265   1.722   0.075  36.240 -0.9918  0.4966 -0.0823
 8258TIP3    H246266   1.763   0.193  36.155  1.1437 -0.4124 -0.3811
 8259TIP3   OH246267   0.201   0.708  41.233 -0.2357 -0.4008  0.2270
 8259TIP3    H146268   0.200   0.735  41.142  3.9613  0.3551  0.2070
 8259TIP3    H246269   0.211   0.612  41.230  0.2586 -0.3394 -0.1227
 8260TIP3   OH246270   1.257   0.038 108.780 -0.0605 -0.0946 -0.0921
 8260TIP3    H146271   1.279  -0.037 108.725  2.5580  0.2215  0.4033
 8260TIP3    H246272   1.228  -0.001 108.862 -2.3778 -0.5416 -1.0399
 8261TIP3   OH246273   0.934   0.416  33.232 -0.1841 -0.4062 -0.1562
 8261TIP3    H146274   0.845   0.450  33.244 -0.2224  0.1830 -1.8748
 8261TIP3    H246275   0.926   0.352  33.161  0.4925 -1.6368  0.8306
 8262TIP3   OH246276   1.391   0.863  74.034 -0.5641 -0.8529  0.3696
 8262TIP3    H146277   1.311   0.851  74.086 -0.5859 -1.5388  0.1895
 8262TIP3    H246278   1.404   0.778  73.992  0.5900 -0.9265  0.8541
 8263TIP3   OH246279   2.496   2.063  88.451  0.3493  0.3135  0.3353
 8263TIP3    H146280   2.473   2.116  88.527  1.4612 -0.1266  1.0055
 8263TIP3    H246281   2.549   1.992  88.487  0.5340 -0.1386 -0.8006
 8264TIP3   OH246282   1.552   1.948  30.056  0.1773  0.2976  0.1941
 8264TIP3    H146283   1.628   1.988  30.098  0.6715 -1.8201  1.4518
 8264TIP3    H246284   1.588   1.905  29.978 -0.1377  1.1554 -0.4422
 8265TIP3   OH246285   1.204   2.478  12.431  0.2633 -0.3967  0.2822
 8265TIP3    H146286   1.261   2.425  12.486  0.5760 -0.6801 -0.3091
 8265TIP3    H246287   1.115   2.459  12.463  0.4003 -0.9872  0.3233
 8266TIP3   OH246288   1.276   1.569   2.233  0.3378 -0.0392 -0.1934
 8266TIP3    H146289   1.185   1.591   2.214  0.3893  0.0373 -0.3533
 8266TIP3    H246290   1.273   1.527   2.319  0.0354 -0.8593 -0.5962
 8267TIP3   OH246291   0.161   0.183  21.087 -0.5138  0.3667  0.0679
 8267TIP3    H146292   0.168   0.156  20.996 -0.3483  1.0413 -0.1256
 8267TIP3    H246293   0.181   0.277  21.086 -0.7406  0.4277  0.7636
 8268TIP3   OH246294   2.287   0.053 102.921 -0.5113 -0.1111  0.0635
 8268TIP3    H146295   2.275   0.084 102.831  0.5681 -2.1848 -0.8573
 8268TIP3    H246296   2.204   0.012 102.944 -0.8553  0.5938  0.1002
 8269TIP3   OH246297   1.629   1.100 106.674  0.3138 -0.0402 -0.3212
 8269TIP3    H146298   1.571   1.132 106.743  0.4812 -1.1408  0.3690
 8269TIP3    H246299   1.714   1.139 106.695  0.3611 -0.3563  0.1050
 8270TIP3   OH246300   2.451   1.735  21.250 -0.0176  0.2596 -0.2407
 8270TIP3    H146301   2.357   1.716  21.250  0.0685 -0.3267  1.2510
 8270TIP3    H246302   2.488   1.671  21.189 -0.8443  2.3229 -3.0820
 8271TIP3   OH246303   2.106   1.791  35.395 -0.6374  0.3475  0.4181
 8271TIP3    H146304   2.179   1.773  35.335 -1.4853 -1.9209 -0.0612
 8271TIP3    H246305   2.146   1.836  35.469  0.9332  0.7236 -0.6041
 8272TIP3   OH246306   1.044   2.351  15.989 -0.5228 -0.0151  0.0941
 8272TIP3    H146307   0.998   2.267  15.993 -0.4253 -0.1822 -1.4599
 8272TIP3    H246308   1.132   2.332  16.021 -1.0662 -0.0373  1.6423
 8273TIP3   OH246309   2.105   2.201 102.493  0.1942  0.1877 -0.0445
 8273TIP3    H146310   2.127   2.279 102.543 -0.1953 -0.6778  1.5333
 8273TIP3    H246311   2.176   2.140 102.510  0.6970  0.2914 -1.5773
 8274TIP3   OH246312   0.840   2.531 102.261  0.0403 -0.0813  0.3501
 8274TIP3    H146313   0.929   2.501 102.278 -0.6596 -0.8520  3.1920
 8274TIP3    H246314   0.820   2.591 102.332 -1.7851 -0.1012 -0.0778
 8275TIP3   OH246315   2.362   0.893  78.453 -0.2600  0.6954 -0.1585
 8275TIP3    H146316   2.383   0.828  78.519 -0.7106  0.8589  0.1505
 8275TIP3    H246317   2.288   0.942  78.489 -0.4809  0.8193 -0.7569
 8276TIP3   OH246318   0.790   1.870  14.684  0.0917  0.1120 -0.2408
 8276TIP3    H146319   0.816   1.923  14.760 -0.5917  1.0266 -0.6270
 8276TIP3    H246320   0.872   1.839  14.647  0.4136 -1.4084  1.5910
 8277TIP3   OH246321   2.483   0.702  16.939  0.3401  0.0652 -0.7314
 8277TIP3    H146322   2.420   0.657  16.995 -0.7368  0.6066 -1.4785
 8277TIP3    H246323   2.535   0.632  16.900 -0.6372 -0.4745 -1.0893
 8278TIP3   OH246324   2.468   0.866  18.428  0.0457 -0.1651 -0.8023
 8278TIP3    H146325   2.496   0.880  18.519 -0.8771  0.1546 -0.5601
 8278TIP3    H246326   2.493   0.776  18.409 -0.2073 -0.3947 -0.0610
 8279TIP3   OH246327   0.926   1.342  98.931  0.6788 -0.3334  0.0406
 8279TIP3    H146328   0.948   1.422  98.978  0.0478  0.3653 -0.8122
 8279TIP3    H246329   1.004   1.287  98.938  1.4458  0.7047 -0.0694
 8280TIP3   OH246330   2.140   0.581  15.773 -0.0282 -0.0597 -0.1251
 8280TIP3    H146331   2.101   0.637  15.706 -0.6426 -0.4456 -0.0917
 8280TIP3    H246332   2.101   0.611  15.855  0.2882  0.0239 -0.0001
 8281TIP3   OH246333   0.709   2.179  95.154  0.5473  0.0721 -0.0276
 8281TIP3    H146334   0.692   2.247  95.219 -0.6782 -0.2814  0.0544
 8281TIP3    H246335   0.639   2.190  95.089  0.9355 -0.4672 -0.5460
 8282TIP3   OH246336   1.560   1.119  27.247 -0.2220  0.2400 -0.1522
 8282TIP3    H146337   1.586   1.027  27.251  1.1717  0.5662 -1.1084
 8282TIP3    H246338   1.628   1.166  27.295 -0.1753  0.9117 -0.8585
 8283TIP3   OH246339   1.822   1.899  25.411 -0.4151  0.0063  0.3521
 8283TIP3    H146340   1.860   1.919  25.497 -0.1386 -0.6997  0.4012
 8283TIP3    H246341   1.869   1.822  25.381  0.5653  1.1330 -1.1384
 8284TIP3   OH246342   2.609   0.419  20.721  0.3357  0.6666 -0.8058
 8284TIP3    H146343   2.634   0.455  20.805  0.9108 -0.2364 -0.5753
 8284TIP3    H246344   2.541   0.355  20.741  1.4233 -0.5539 -0.8327
 8285TIP3   OH246345   1.742   1.659  19.987  0.0581  0.0673  0.0125
 8285TIP3    H146346   1.822   1.710  19.990 -1.7869  3.1885  0.0757
 8285TIP3    H246347   1.729   1.629  20.077  0.8970 -0.1013  0.0859
 8286TIP3   OH246348   0.689   1.487  31.506 -0.0684  0.0651 -0.0926
 8286TIP3    H146349   0.705   1.465  31.414  1.5683 -1.6473  0.5489
 8286TIP3    H246350   0.760   1.546  31.530  0.9422 -1.4006  0.6740
 8287TIP3   OH246351   2.607   1.061   1.845 -0.0610  0.1587  0.2420
 8287TIP3    H146352   2.663   0.983   1.841 -0.0458  0.0955  1.2772
 8287TIP3    H246353   2.645   1.121   1.782  0.2521 -0.4728 -0.1808
 8288TIP3   OH246354   2.676   0.320   9.037  0.3545  0.2273  0.2120
 8288TIP3    H146355   2.755   0.276   9.008  0.0549 -0.9457  1.0817
 8288TIP3    H246356   2.692   0.340   9.130 -0.8430 -1.2646  0.7927
 8289TIP3   OH246357   1.970   0.781 108.914 -0.2549  0.3443  0.0223
 8289TIP3    H146358   1.907   0.787 108.843 -1.0586 -0.2730  0.6671
 8289TIP3    H246359   2.015   0.865 108.914 -1.8186  1.2174  0.2201
 8290TIP3   OH246360   0.131   1.041   8.696  0.0774  0.1003  0.4776
 8290TIP3    H146361   0.175   1.078   8.619 -1.8820  0.9563 -0.3103
 8290TIP3    H246362   0.155   0.948   8.695 -0.6187 -0.1149 -1.7277
 8291TIP3   OH246363   0.056   1.059  98.878 -0.2051 -0.4116  0.2829
 8291TIP3    H146364   0.145   1.023  98.880  0.3366  0.9103  1.7282
 8291TIP3    H246365   0.021   1.041  98.965 -0.4620  1.1875  0.5338
 8292TIP3   OH246366   0.369   1.576  94.497  0.0781 -0.0875  0.1521
 8292TIP3    H146367   0.456   1.537  94.499 -0.0687 -0.3887  1.5693
 8292TIP3    H246368   0.359   1.607  94.407  2.0335  0.8765  0.2083
 8293TIP3   OH246369   0.007   1.788  13.093  0.2848 -0.7041  0.3154
 8293TIP3    H146370   0.044   1.701  13.080 -0.7209 -0.8961 -1.5785
 8293TIP3    H246371  -0.084   1.773  13.118 -0.0603 -0.2184 -0.5964
 8294TIP3   OH246372   2.641   0.730   0.907 -0.7308  0.5753 -0.2554
 8294TIP3    H146373   2.594   0.695   0.982  1.2321 -0.0579  0.7735
 8294TIP3    H246374   2.725   0.683   0.908 -0.9627 -0.1370 -3.4160
 8295TIP3   OH246375   0.500   2.643   1.778 -0.4683  0.9174  0.3357
 8295TIP3    H146376   0.593   2.637   1.800  0.3755  1.6663 -2.6404
 8295TIP3    H246377   0.455   2.603   1.853  2.1985  0.8411  2.0105
 8296TIP3   OH246378   2.121   0.364  93.667  0.4017 -0.1262  0.3619
 8296TIP3    H146379   2.180   0.346  93.740 -1.5698  1.0659  2.3805
 8296TIP3    H246380   2.143   0.298  93.601  4.0035  0.3480  0.9061
 8297TIP3   OH246381   0.822   2.628  91.644 -0.3872 -0.2295  0.3643
 8297TIP3    H146382   0.916   2.647  91.643 -0.1069 -1.4908 -1.3808
 8297TIP3    H246383   0.792   2.646  91.555 -2.0108  0.9591  1.1032
 8298TIP3   OH246384   2.100   1.680  98.702 -0.2393 -0.4911 -0.1843
 8298TIP3    H146385   2.117   1.639  98.787  0.8823  0.6231  0.1492
 8298TIP3    H246386   2.076   1.770  98.723 -1.3110 -0.5699 -0.9917
 8299TIP3   OH246387   1.744   0.804  12.401 -0.1926 -0.2738 -0.3251
 8299TIP3    H146388   1.733   0.844  12.487 -1.4026 -0.1941 -0.4962
 8299TIP3    H246389   1.770   0.876  12.343  0.6433 -0.3315 -0.0403
 8300TIP3   OH246390   0.402   0.091  41.841  0.4460 -0.4461 -0.1160
 8300TIP3    H146391   0.476   0.134  41.883 -0.1303  0.1286  0.3385
 8300TIP3    H246392   0.365   0.036  41.910 -0.9393  1.0450  0.4101
 8301TIP3   OH246393   2.235   0.768  29.724  0.1893 -0.1157  0.3504
 8301TIP3    H146394   2.284   0.850  29.723  2.3476 -1.3488  0.1123
 8301TIP3    H246395   2.148   0.793  29.755  0.5677  2.3558 -0.3630
 8302TIP3   OH246396   0.205   0.450  69.412  0.4375  0.0156 -0.2831
 8302TIP3    H146397   0.276   0.470  69.352  0.2960 -0.3165 -0.5726
 8302TIP3    H246398   0.131   0.427  69.355 -0.0251  0.7590 -0.0078
 8303TIP3   OH246399   0.340   1.141  11.580 -0.4531  0.1720 -0.1883
 8303TIP3    H146400   0.303   1.053  11.578 -1.3799  0.5654 -0.4730
 8303TIP3    H246401   0.430   1.129  11.549 -1.3000 -0.3287 -2.7133
 8304TIP3   OH246402   0.747   0.383  80.537  0.1350 -0.6890 -0.3003
 8304TIP3    H146403   0.671   0.344  80.580 -0.9557  0.4832 -1.0755
 8304TIP3    H246404   0.710   0.428  80.460  1.3268  1.5807  0.3677
 8305TIP3   OH246405   0.371   0.542   6.309 -0.0803  0.2934  0.1186
 8305TIP3    H146406   0.380   0.552   6.215  1.3519  1.6511  0.3559
 8305TIP3    H246407   0.442   0.484   6.335  0.1792  0.7545  0.4716
 8306TIP3   OH246408   2.617   1.828 107.548  0.0036 -0.3382  0.5758
 8306TIP3    H146409   2.541   1.813 107.492 -0.1582 -0.6424  0.8689
 8306TIP3    H246410   2.581   1.869 107.627  0.3111  0.6843  0.2024
 8307TIP3   OH246411   1.226   0.456 100.399  0.1780  0.8879 -0.1914
 8307TIP3    H146412   1.203   0.547 100.376 -1.1664  0.4100 -0.8781
 8307TIP3    H246413   1.207   0.406 100.319 -1.0517 -0.2766  0.7866
 8308TIP3   OH246414   1.803   2.576 102.787 -0.4122  0.1576  0.3339
 8308TIP3    H146415   1.765   2.657 102.822  0.2399  0.6080  0.0244
 8308TIP3    H246416   1.826   2.598 102.696  2.1651  0.4757  0.9763
 8309TIP3   OH246417   1.884   1.711  11.738 -0.1906  0.2073  0.3944
 8309TIP3    H146418   1.946   1.767  11.785  2.0326 -0.8939 -1.0613
 8309TIP3    H246419   1.849   1.768  11.669 -0.9938  0.9016  1.3548
 8310TIP3   OH246420   1.307   1.184  22.147 -0.1517 -0.1244 -0.1010
 8310TIP3    H146421   1.348   1.262  22.110  1.2573 -0.1744  1.2852
 8310TIP3    H246422   1.348   1.111  22.099  0.2341 -0.1068  0.1994
 8311TIP3   OH246423   0.768   0.319  86.617  0.0580 -0.1339 -0.1347
 8311TIP3    H146424   0.751   0.401  86.572  0.7800 -1.2509 -2.6039
 8311TIP3    H246425   0.863   0.318  86.631  0.0420 -0.4945 -0.0367
 8312TIP3   OH246426   1.339   0.125  85.895  0.1092 -0.2586 -0.1003
 8312TIP3    H146427   1.267   0.183  85.919 -0.0801 -0.4503 -0.1902
 8312TIP3    H246428   1.387   0.110  85.976 -0.8500 -1.3572  0.2946
 8313TIP3   OH246429   1.488   1.072  32.730  0.2688  0.0797 -0.1870
 8313TIP3    H146430   1.513   1.010  32.661  0.7412 -0.0812  0.1213
 8313TIP3    H246431   1.511   1.158  32.695 -0.9147  0.1509 -0.8510
 8314TIP3   OH246432   0.854   1.031  73.508  0.4875 -0.3190 -0.5223
 8314TIP3    H146433   0.942   1.048  73.540  1.1180 -1.1412 -1.7308
 8314TIP3    H246434   0.862   1.033  73.412 -1.1203  1.1437 -0.6751
 8315TIP3   OH246435   1.910   0.699   8.272  0.1180 -0.5763 -0.1769
 8315TIP3    H146436   1.823   0.660   8.261 -0.5680  0.8811 -0.0691
 8315TIP3    H246437   1.971   0.625   8.261 -1.1331 -1.6643  0.0314
 8316TIP3   OH246438   0.102   0.815  40.706 -0.6421 -0.0812 -0.2107
 8316TIP3    H146439   0.111   0.829  40.800  1.3265 -2.5774  0.0719
 8316TIP3    H246440   0.123   0.722  40.693 -0.2349  0.3301 -3.1846
 8317TIP3   OH246441   0.537   2.546  19.945  0.0395  0.1156  0.0884
 8317TIP3    H146442   0.585   2.472  19.910 -0.5977 -1.0592  1.5870
 8317TIP3    H246443   0.457   2.508  19.982 -2.1592  1.9641 -2.3465
 8318TIP3   OH246444   1.999   1.627  81.770 -0.0853 -0.0736 -0.1734
 8318TIP3    H146445   2.023   1.698  81.830  1.4458 -0.6537 -0.0301
 8318TIP3    H246446   2.007   1.548  81.824 -2.3683 -0.3377 -0.1493
 8319TIP3   OH246447   0.308   0.442  99.566 -0.0729  0.3120  0.0575
 8319TIP3    H146448   0.365   0.436  99.643  0.4345 -0.2770 -0.3559
 8319TIP3    H246449   0.297   0.352  99.537  0.8539  0.6250 -1.3664
 8320TIP3   OH246450   0.125   0.033  15.909 -0.0924  0.2837 -0.2721
 8320TIP3    H146451   0.179  -0.008  15.841  1.4811  0.7018  0.6607
 8320TIP3    H246452   0.185   0.095  15.952 -1.0701  0.1022  1.4202
 8321TIP3   OH246453   2.575   1.414  14.286  0.3378 -0.3147 -0.5061
 8321TIP3    H146454   2.532   1.341  14.330 -1.2902  0.0700 -1.3782
 8321TIP3    H246455   2.560   1.398  14.193  1.8995 -0.0127 -0.8509
 8322TIP3   OH246456   0.669   0.937  28.861  0.0216  0.2959  0.0374
 8322TIP3    H146457   0.735   0.994  28.821 -0.0741  0.3211 -0.0827
 8322TIP3    H246458   0.707   0.915  28.946  2.0917 -2.9705 -1.5438
 8323TIP3   OH246459   1.698   1.391 104.182  0.1155 -0.2652  0.3509
 8323TIP3    H146460   1.698   1.453 104.109 -0.5424 -1.5011 -0.7416
 8323TIP3    H246461   1.675   1.444 104.258  1.2671  1.1488 -0.2246
 8324TIP3   OH246462   0.556   1.102   6.483 -0.0773  0.2232 -0.8022
 8324TIP3    H146463   0.497   1.028   6.498  0.2375  0.0123 -0.5828
 8324TIP3    H246464   0.592   1.087   6.396 -1.5432  1.1947 -1.6236
 8325TIP3   OH246465   2.338   0.352  33.425  0.1858 -0.0250  0.4147
 8325TIP3    H146466   2.419   0.396  33.454  0.2630  0.7208 -0.8572
 8325TIP3    H246467   2.277   0.424  33.411 -0.5782 -0.5600  0.9383
 8326TIP3   OH246468   0.271   0.625  20.605  0.3022  0.0957 -0.1756
 8326TIP3    H146469   0.335   0.613  20.675  1.7748  0.3655 -1.4489
 8326TIP3    H246470   0.237   0.713  20.619 -1.1662 -0.6660  1.5574
 8327TIP3   OH246471   1.034   0.792  22.969  0.6538 -0.0056  0.0364
 8327TIP3    H146472   0.992   0.857  22.913  1.4177 -0.8336 -1.5802
 8327TIP3    H246473   1.093   0.745  22.911  0.2837 -2.0196  1.1878
 8328TIP3   OH246474   1.621   0.220 107.610 -0.1214  0.3207  0.4523
 8328TIP3    H146475   1.645   0.150 107.671  0.4323  1.1099  1.1640
 8328TIP3    H246476   1.526   0.211 107.600  0.0376 -1.0060 -0.0883
 8329TIP3   OH246477   1.261   0.966  26.805 -0.3398  0.2705 -0.6326
 8329TIP3    H146478   1.268   1.036  26.870  1.1685 -0.6743  0.3067
 8329TIP3    H246479   1.198   0.904  26.842 -1.8977  1.2335 -1.6010
 8330TIP3   OH246480   1.318   2.284  34.386 -0.2973 -0.3262  0.4291
 8330TIP3    H146481   1.330   2.223  34.312  1.1523 -0.3517  0.6632
 8330TIP3    H246482   1.312   2.227  34.463 -0.7777 -0.2474  0.4547
 8331TIP3   OH246483   0.456   0.888  17.673  0.2253  0.4274  0.1200
 8331TIP3    H146484   0.444   0.794  17.659  1.5129  0.4706 -1.5680
 8331TIP3    H246485   0.371   0.927  17.652 -0.0624 -0.2750 -0.0370
 8332TIP3   OH246486   0.666   0.007  90.222 -0.2313 -0.2264  0.1800
 8332TIP3    H146487   0.688   0.064  90.148 -0.4559 -0.0515  0.2506
 8332TIP3    H246488   0.582  -0.031  90.198 -1.4823  1.6259  1.3716
 8333TIP3   OH246489   0.602   1.032 108.451  0.0850  0.0290 -0.5109
 8333TIP3    H146490   0.567   1.107 108.402  2.1739  0.4300 -1.4803
 8333TIP3    H246491   0.645   1.072 108.527  1.1469 -0.1870 -0.9940
 8334TIP3   OH246492   0.034   0.560  28.984 -0.5166 -0.0145 -0.1078
 8334TIP3    H146493   0.047   0.547  29.078  1.1962 -0.5946 -0.3814
 8334TIP3    H246494  -0.045   0.613  28.977 -1.2676 -0.8505  1.6111
 8335TIP3   OH246495   2.036   0.460 104.287  0.3187 -0.3231  0.4997
 8335TIP3    H146496   2.028   0.389 104.224 -0.2662  0.0601  0.1408
 8335TIP3    H246497   2.057   0.537 104.235 -0.5196  0.0675  0.7247
 8336TIP3   OH246498   1.640   2.679 102.334 -0.6010  0.4158  0.2031
 8336TIP3    H146499   1.552   2.709 102.316 -1.9673 -3.0886  0.2018
 8336TIP3    H246500   1.652   2.693 102.428 -1.8805 -0.5825  0.5429
 8337TIP3   OH246501   1.972   1.094  94.395 -0.1654 -0.2156 -0.4058
 8337TIP3    H146502   1.999   1.173  94.348  0.5020 -1.4113 -2.1366
 8337TIP3    H246503   2.054   1.052  94.421 -0.5112  0.5866  2.2669
 8338TIP3   OH246504   0.816   0.307  69.040  0.2307 -0.1535  0.0929
 8338TIP3    H146505   0.775   0.387  69.074  0.4477  0.2078 -0.4872
 8338TIP3    H246506   0.910   0.323  69.051  0.3763  0.4881 -1.7849
 8339TIP3   OH246507   2.322   1.182  11.345  0.2212 -0.1973 -0.0286
 8339TIP3    H146508   2.317   1.269  11.305 -1.9997 -0.9235 -1.5625
 8339TIP3    H246509   2.310   1.198  11.439 -0.4559  1.1276 -0.3141
 8340TIP3   OH246510   0.165   1.361   5.726  0.2436 -0.1175 -0.1108
 8340TIP3    H146511   0.178   1.446   5.685  1.3589  0.1819  0.8115
 8340TIP3    H246512   0.251   1.318   5.720  0.1377 -0.5049  0.9037
 8341TIP3   OH246513   2.349   1.199  83.863  0.2907 -0.3742 -0.2347
 8341TIP3    H146514   2.272   1.201  83.920 -0.8690  2.1274 -1.7470
 8341TIP3    H246515   2.413   1.255  83.907  1.0902 -1.9516  0.7063
 8342TIP3   OH246516   1.163   0.537  92.483  0.4255  0.1114 -0.5041
 8342TIP3    H146517   1.244   0.487  92.489  0.8644  0.9089  0.6939
 8342TIP3    H246518   1.190   0.628  92.496 -0.7066  0.3486  0.3408
 8343TIP3   OH246519   1.928   0.884  73.967  0.0620 -0.4766 -0.3636
 8343TIP3    H146520   1.974   0.958  74.007 -0.3485 -0.9690  1.0670
 8343TIP3    H246521   1.838   0.916  73.955  0.0387 -0.5314 -0.3333
 8344TIP3   OH246522   2.079   0.872  21.808  0.4568 -0.3135 -0.0716
 8344TIP3    H146523   2.092   0.785  21.771 -0.1500  0.8447 -3.3058
 8344TIP3    H246524   1.992   0.899  21.778  0.7679  1.5440  0.5350
 8345TIP3   OH246525   1.110   2.627  87.960  0.0820 -0.3616  0.2873
 8345TIP3    H146526   1.077   2.572  88.031 -0.7132 -0.2660 -0.0011
 8345TIP3    H246527   1.108   2.716  87.995 -2.0819 -0.0639 -0.4352
 8346TIP3   OH246528   2.418   0.205 101.330  0.0027 -0.3863 -0.1403
 8346TIP3    H146529   2.350   0.153 101.374 -0.5808  0.4134 -0.0665
 8346TIP3    H246530   2.379   0.291 101.319  1.2426  0.2828  0.4697
 8347TIP3   OH246531   0.522   0.353 100.552  0.2477  0.1230  0.1393
 8347TIP3    H146532   0.440   0.383 100.592  0.2905 -0.0064  0.3261
 8347TIP3    H246533   0.586   0.360 100.623  0.6011  1.1212 -0.2548
 8348TIP3   OH246534   1.532   1.777  47.551 -0.1022  0.5224 -0.6105
 8348TIP3    H146535   1.538   1.726  47.470 -0.6950 -1.0498  0.2976
 8348TIP3    H246536   1.531   1.868  47.521  2.2288  0.1148 -2.2253
 8349TIP3   OH246537   0.837   1.327  86.660 -0.3321  0.3438  0.2829
 8349TIP3    H146538   0.778   1.286  86.724  0.0116  0.6827  0.8198
 8349TIP3    H246539   0.840   1.419  86.686  0.3526  0.3486  0.1837
 8350TIP3   OH246540   1.611   1.942  19.390 -0.2689 -0.2488  0.1070
 8350TIP3    H146541   1.551   1.883  19.435  1.2038 -0.6204  1.6920
 8350TIP3    H246542   1.629   1.899  19.306 -0.4864 -1.2397  0.5562
 8351TIP3   OH246543   2.126   1.756  80.652  0.4082 -0.5426 -0.0998
 8351TIP3    H146544   2.158   1.674  80.691 -0.0646 -0.3998  0.6063
 8351TIP3    H246545   2.031   1.746  80.652  0.2636  0.5777  1.2940
 8352TIP3   OH246546   1.970   1.200   3.610  0.0060 -0.0821 -0.1287
 8352TIP3    H146547   1.972   1.270   3.676 -0.2859  0.6369 -0.8607
 8352TIP3    H246548   2.033   1.228   3.544 -0.7423 -0.0727 -0.8572
 8353TIP3   OH246549   2.349   0.177  30.885 -0.5287 -0.1374  0.1100
 8353TIP3    H146550   2.359   0.191  30.980 -0.6499 -0.8027  0.2231
 8353TIP3    H246551   2.303   0.094  30.878 -1.1366  0.2472 -0.5285
 8354TIP3   OH246552   1.211   0.879  23.854  0.1361 -0.0794 -0.3578
 8354TIP3    H146553   1.277   0.925  23.906  0.7858  0.7855 -1.8851
 8354TIP3    H246554   1.142   0.857  23.917  0.8586  0.9776  0.8463
 8355TIP3   OH246555   1.921   1.674  83.151 -0.0607 -0.1752  0.1213
 8355TIP3    H146556   1.958   1.607  83.093  2.2650 -0.9921  2.3272
 8355TIP3    H246557   1.894   1.625  83.229  1.3005  1.3175  1.6237
 8356TIP3   OH246558   2.145   2.142  82.580  0.2295  0.6135  0.1350
 8356TIP3    H146559   2.134   2.215  82.519  1.2870  1.2118  0.6451
 8356TIP3    H246560   2.236   2.147  82.609 -0.1226  0.0847  1.4337
 8357TIP3   OH246561   1.899   1.564  28.543 -0.4808  0.0448  0.1430
 8357TIP3    H146562   1.980   1.513  28.536 -1.4436 -1.5816  0.2868
 8357TIP3    H246563   1.865   1.567  28.453 -0.6843 -0.0271  0.2154
 8358TIP3   OH246564   1.413   0.161  82.490  0.6585  0.8968  0.2310
 8358TIP3    H146565   1.363   0.183  82.568  1.0318  0.5965  0.5538
 8358TIP3    H246566   1.452   0.076  82.508  1.0399  0.9850 -0.1397
 8359TIP3   OH246567   0.760   0.977 107.375  0.3334  0.1341  0.2253
 8359TIP3    H146568   0.799   0.889 107.374 -0.2055 -0.1211  1.0195
 8359TIP3    H246569   0.761   1.003 107.467 -0.2610  0.6209  0.1042
 8360TIP3   OH246570   0.713   0.614  91.482  0.3407 -0.0119  0.5397
 8360TIP3    H146571   0.745   0.694  91.439  1.8277 -0.2966  1.0841
 8360TIP3    H246572   0.758   0.543  91.437 -0.5228 -0.5292  0.4665
 8361TIP3   OH246573   0.581   0.622  22.076  0.3499 -0.4828  0.1890
 8361TIP3    H146574   0.598   0.530  22.095 -1.7566 -1.0838 -0.5343
 8361TIP3    H246575   0.485   0.628  22.070  0.4129  1.8625  0.6946
 8362TIP3   OH246576   0.704   1.283  94.248  0.3740 -0.0934 -0.0630
 8362TIP3    H146577   0.690   1.324  94.162 -0.3067  0.5093  0.3312
 8362TIP3    H246578   0.784   1.325  94.281 -0.0746  0.6035  0.1441
 8363TIP3   OH246579   0.688   2.476  32.988  0.0699  0.7215  0.1587
 8363TIP3    H146580   0.630   2.416  33.036 -1.3468  3.3020  1.9365
 8363TIP3    H246581   0.705   2.547  33.050  1.3209  2.3628 -1.9495
 8364TIP3   OH246582   1.608   0.748  30.851  0.2619 -0.0693  0.2265
 8364TIP3    H146583   1.629   0.831  30.808  1.7765 -0.2186  0.6228
 8364TIP3    H246584   1.534   0.769  30.907  0.4569  0.9624  0.1336
 8365TIP3   OH246585   1.379   0.557 111.642 -0.4309  0.1940  0.2965
 8365TIP3    H146586   1.349   0.484 111.587 -0.0040  1.0357 -1.1093
 8365TIP3    H246587   1.303   0.615 111.646 -0.4991  0.0763  0.7030
 8366TIP3   OH246588   0.535   1.829 107.179 -0.0581 -0.0547 -0.0733
 8366TIP3    H146589   0.534   1.806 107.086  0.1997  2.3427 -0.7351
 8366TIP3    H246590   0.626   1.852 107.197 -0.4611  1.3686  0.2354
 8367TIP3   OH246591   1.147   1.751  53.017  0.0453  0.4492 -0.3079
 8367TIP3    H146592   1.139   1.685  53.086 -0.5896 -1.3683 -2.0030
 8367TIP3    H246593   1.133   1.834  53.061 -2.8432 -0.7748  1.3541
 8368TIP3   OH246594   0.111   0.574 104.269  0.0465  0.2638 -0.5325
 8368TIP3    H146595   0.188   0.557 104.215  0.1510 -0.8189 -0.0675
 8368TIP3    H246596   0.045   0.605 104.207  1.0824  2.0106 -0.8258
 8369TIP3   OH246597   0.637   2.251  31.772  0.0074 -0.2526  0.0266
 8369TIP3    H146598   0.621   2.329  31.825 -1.7220 -0.6241  0.1210
 8369TIP3    H246599   0.593   2.269  31.689  0.0885 -0.8912 -0.1565
 8370TIP3   OH246600   0.611   1.547  92.674 -0.0116 -0.2262  0.2057
 8370TIP3    H146601   0.641   1.463  92.637 -0.3238 -0.6513  0.8966
 8370TIP3    H246602   0.644   1.613  92.613  0.3245 -0.8475 -0.3042
 8371TIP3   OH246603   2.208   1.775 100.292 -0.2568 -0.7246  0.2445
 8371TIP3    H146604   2.131   1.765 100.236 -0.9716  0.6700  0.9339
 8371TIP3    H246605   2.260   1.842 100.248  0.1024 -0.9789  0.2765
 8372TIP3   OH246606   1.839   1.025  35.207  0.1751 -0.0968 -0.2229
 8372TIP3    H146607   1.776   1.001  35.276  1.0899 -0.1164  0.6264
 8372TIP3    H246608   1.923   1.030  35.252  0.5909  1.1720 -1.1025
 8373TIP3   OH246609   2.188   0.317 101.962  0.4113  0.1485 -0.4045
 8373TIP3    H146610   2.235   0.357 101.889 -1.2228  1.3219 -0.8800
 8373TIP3    H246611   2.097   0.310 101.931 -0.0173 -0.7227  0.9696
 8374TIP3   OH246612   2.195   0.729 100.373 -0.1039  0.2252  0.1137
 8374TIP3    H146613   2.146   0.801 100.336  1.8201  1.6164  0.1082
 8374TIP3    H246614   2.213   0.756 100.463  0.0270 -0.5685  0.3336
 8375TIP3   OH246615   1.006   1.980  97.853 -0.1817 -0.3364 -0.1001
 8375TIP3    H146616   0.940   1.998  97.920 -0.8414 -0.3628 -0.7267
 8375TIP3    H246617   1.087   1.967  97.902 -0.1235  2.0221  0.5552
 8376TIP3   OH246618   0.822   0.680  12.357  0.0958 -0.1116 -0.1824
 8376TIP3    H146619   0.841   0.651  12.268 -1.1560 -0.3242 -0.4061
 8376TIP3    H246620   0.726   0.678  12.363  0.0717  1.5047  0.6339
 8377TIP3   OH246621   1.113   1.942  95.375  0.2460 -0.4331 -0.3706
 8377TIP3    H146622   1.063   1.909  95.300  0.8814 -2.9406  0.2135
 8377TIP3    H246623   1.197   1.970  95.338 -0.5173  1.1715 -0.9614
 8378TIP3   OH246624   2.535   0.616   1.144 -0.0377 -0.0423  0.0451
 8378TIP3    H146625   2.549   0.534   1.096  0.9089 -0.8856  1.6461
 8378TIP3    H246626   2.450   0.603   1.187 -0.2956  0.1837 -0.3953
 8379TIP3   OH246627   1.347   0.458  30.909  0.1975  0.4683 -0.0284
 8379TIP3    H146628   1.256   0.466  30.880  0.7759 -1.0981 -2.6126
 8379TIP3    H246629   1.388   0.401  30.844  2.6071 -0.4261  2.0986
 8380TIP3   OH246630   2.037   2.233   8.729  0.0534 -0.1783  0.2629
 8380TIP3    H146631   2.117   2.282   8.750 -0.0914 -0.2031  0.8855
 8380TIP3    H246632   2.044   2.153   8.780 -0.7133  0.1473  0.8953
 8381TIP3   OH246633   1.420   0.612  93.684 -0.4106 -0.1518  0.1238
 8381TIP3    H146634   1.423   0.606  93.779  0.6336 -0.9361  0.0516
 8381TIP3    H246635   1.339   0.567  93.659 -0.3614 -0.5100  0.6032
 8382TIP3   OH246636   2.680   1.127  98.132 -0.2758  0.2429  0.4248
 8382TIP3    H146637   2.665   1.147  98.039 -0.1403 -0.8247  0.1575
 8382TIP3    H246638   2.634   1.197  98.179  0.7856  1.5794 -0.4406
 8383TIP3   OH246639   0.746   2.247 100.682  0.0656  0.4386 -0.0838
 8383TIP3    H146640   0.653   2.263 100.670 -0.0307  0.5533  0.7631
 8383TIP3    H246641   0.789   2.307 100.621 -0.4041  0.8510 -0.0189
 8384TIP3   OH246642   1.500   0.599  98.851 -0.1684  0.3157 -0.3614
 8384TIP3    H146643   1.584   0.567  98.816  1.1393  2.8036  0.2909
 8384TIP3    H246644   1.502   0.575  98.944  0.9083  2.3253  0.1762
 8385TIP3   OH246645   0.496   2.409   6.021 -0.1549  0.1791  0.2693
 8385TIP3    H146646   0.426   2.351   6.050 -0.6848  0.4124 -0.5116
 8385TIP3    H246647   0.453   2.474   5.966  0.3387  1.6885  1.5845
 8386TIP3   OH246648   0.818   2.443   1.053 -0.2042 -0.3079 -0.3978
 8386TIP3    H146649   0.831   2.432   0.959  1.7928 -0.8294 -0.1085
 8386TIP3    H246650   0.750   2.510   1.060  0.8298  1.0395 -2.2387
 8387TIP3   OH246651   1.499   2.607 108.068  0.0345 -0.1722 -0.1714
 8387TIP3    H146652   1.525   2.516 108.079  0.5884  0.0901  0.7435
 8387TIP3    H246653   1.579   2.657 108.085 -0.3562  0.5076 -0.3012
 8388TIP3   OH246654   0.900   2.046  15.512  0.5153 -0.0178  0.8439
 8388TIP3    H146655   0.916   2.001  15.594  0.0411 -0.6806  0.5777
 8388TIP3    H246656   0.949   2.128  15.520  0.9068 -0.3149  1.5628
 8389TIP3   OH246657   0.280   0.058  77.066  0.2940  0.1442 -0.1578
 8389TIP3    H146658   0.292   0.027  77.156 -2.6230  2.1379  1.0751
 8389TIP3    H246659   0.258   0.151  77.075 -1.0892  0.1738 -2.8396
 8390TIP3   OH246660   2.209   1.509  97.298  0.6015  0.4417 -0.1537
 8390TIP3    H146661   2.231   1.554  97.216  0.0790  1.1241  0.0732
 8390TIP3    H246662   2.294   1.481  97.334  0.7553 -1.0019 -1.5366
 8391TIP3   OH246663   0.193   2.251  13.236  0.5731 -0.2787  0.3618
 8391TIP3    H146664   0.181   2.270  13.143 -0.2230  1.0220  0.7107
 8391TIP3    H246665   0.134   2.177  13.253 -0.2358  0.2930  0.0941
 8392TIP3   OH246666   0.293   2.242  22.556 -0.2566 -0.4677 -0.3643
 8392TIP3    H146667   0.364   2.258  22.618 -0.4311 -0.2025 -0.2329
 8392TIP3    H246668   0.316   2.159  22.514 -0.0260 -0.5374 -0.1024
 8393TIP3   OH246669   2.110   1.896 104.665  0.0200 -0.1350 -0.0528
 8393TIP3    H146670   2.088   1.971 104.721 -0.0193 -1.6985  2.1818
 8393TIP3    H246671   2.205   1.889 104.671 -0.0354 -0.6384  0.2993
 8394TIP3   OH246672   1.881   1.430   0.893 -0.3476  0.6890  0.5274
 8394TIP3    H146673   1.881   1.391   0.805 -1.4978  1.1271  0.3208
 8394TIP3    H246674   1.973   1.452   0.909 -0.3077  2.0316 -1.2113
 8395TIP3   OH246675   2.093   1.154   7.966  0.2101 -0.2466 -0.1812
 8395TIP3    H146676   2.131   1.067   7.979 -0.0319 -0.4324 -0.6887
 8395TIP3    H246677   2.126   1.206   8.039  0.3910 -0.7546  0.1011
 8396TIP3   OH246678   0.381   1.625  82.690 -0.2519 -0.3118 -0.0618
 8396TIP3    H146679   0.288   1.642  82.679 -0.0437  0.7151 -0.2621
 8396TIP3    H246680   0.424   1.688  82.633  0.5726 -0.8513 -0.0586
 8397TIP3   OH246681   0.134   0.877  96.444  0.4200 -0.5598 -0.3912
 8397TIP3    H146682   0.181   0.948  96.402  0.5222 -1.9385 -2.7985
 8397TIP3    H246683   0.046   0.912  96.460  0.0739 -0.2113 -2.7084
 8398TIP3   OH246684   1.616   2.029  81.106  0.6532 -0.2104  0.3875
 8398TIP3    H146685   1.666   2.037  81.025  0.4675  0.4486  0.3312
 8398TIP3    H246686   1.592   1.937  81.111 -2.0149  0.2013 -1.9377
 8399TIP3   OH246687   1.009   2.154  78.183  0.1855 -0.3030  0.0428
 8399TIP3    H146688   1.025   2.096  78.109  1.2014 -1.0302  0.7919
 8399TIP3    H246689   0.914   2.166  78.185  0.1217 -0.4962 -1.1889
 8400TIP3   OH246690   0.250   0.666  32.876 -0.5649  0.4954  0.0757
 8400TIP3    H146691   0.307   0.721  32.822 -2.8862  1.7412 -1.2312
 8400TIP3    H246692   0.187   0.727  32.915 -3.0479 -1.1083 -1.1850
 8401TIP3   OH246693   0.271   0.297   0.875  0.0517 -0.1687  0.1570
 8401TIP3    H146694   0.183   0.284   0.841  0.5353 -3.1393 -0.2468
 8401TIP3    H246695   0.329   0.285   0.800  0.8829  3.7233 -0.0422
 8402TIP3   OH246696   2.539   2.345  32.930 -0.2265 -0.4224 -0.5151
 8402TIP3    H146697   2.481   2.418  32.908 -2.1039 -1.1247  1.7306
 8402TIP3    H246698   2.618   2.387  32.964 -0.8739  0.6014 -0.2080
 8403TIP3   OH246699   2.338   1.391   5.788 -0.0299 -0.3206 -0.8882
 8403TIP3    H146700   2.351   1.446   5.711  0.0784  0.8009 -0.0867
 8403TIP3    H246701   2.396   1.316   5.773  0.4110  0.1549 -1.6369
 8404TIP3   OH246702   0.406   2.495  38.228  0.2506  0.1498  0.0334
 8404TIP3    H146703   0.438   2.482  38.318 -0.0793  0.6158  0.2177
 8404TIP3    H246704   0.344   2.567  38.235 -1.0805 -0.9302 -0.2755
 8405TIP3   OH246705   1.350   1.211  19.387  0.6610 -0.3040  0.2257
 8405TIP3    H146706   1.354   1.232  19.294 -0.3991  2.1719  0.6436
 8405TIP3    H246707   1.414   1.141  19.399  1.0108 -0.5040 -2.2938
 8406TIP3   OH246708   1.178   1.462  75.290  0.4671 -0.5081 -0.0272
 8406TIP3    H146709   1.098   1.508  75.266  0.4408 -0.3899  0.2730
 8406TIP3    H246710   1.227   1.453  75.208 -0.7190 -2.3079 -0.5923
 8407TIP3   OH246711   1.897   0.122  83.519  0.5616  0.3779  0.1923
 8407TIP3    H146712   1.992   0.133  83.527  0.5271  0.3812  0.6031
 8407TIP3    H246713   1.886   0.048  83.459  0.8204  0.5974 -0.1281
 8408TIP3   OH246714   0.217   1.953  95.037  0.2432  0.0404 -0.1190
 8408TIP3    H146715   0.308   1.928  95.052  0.1069 -0.2905  0.1918
 8408TIP3    H246716   0.215   2.048  95.048  0.9048  0.3040 -1.9513
 8409TIP3   OH246717   2.531   1.300 106.563  0.2799 -0.5018  0.2337
 8409TIP3    H146718   2.604   1.262 106.611 -0.4320 -1.0351  0.9150
 8409TIP3    H246719   2.502   1.231 106.504 -0.5785 -0.8043  0.9849
 8410TIP3   OH246720   1.481   1.601  92.862  0.0434 -0.2795 -0.4346
 8410TIP3    H146721   1.443   1.516  92.839 -0.1712 -0.5032  0.6828
 8410TIP3    H246722   1.461   1.658  92.788  0.0947 -1.1698 -1.1415
 8411TIP3   OH246723   1.627   1.997  99.139 -0.0382  0.2155 -0.2190
 8411TIP3    H146724   1.652   1.988  99.231  1.7994  1.1249 -0.5898
 8411TIP3    H246725   1.661   2.082  99.113 -1.0237  0.2153 -1.6115
 8412TIP3   OH246726   2.080   2.264  22.987 -0.5571  0.2158 -0.1231
 8412TIP3    H146727   2.089   2.181  22.940 -0.8563  1.3862 -2.3924
 8412TIP3    H246728   1.992   2.261  23.023 -0.2592 -0.7870  0.5803
 8413TIP3   OH246729   2.334   1.872  22.025  0.2951  0.5321 -0.1440
 8413TIP3    H146730   2.359   1.925  22.101 -1.5710  0.1875  0.7669
 8413TIP3    H246731   2.265   1.923  21.981  1.1569  0.6006 -1.4706
 8414TIP3   OH246732   1.700   1.607  98.424  0.1032 -0.7151  1.0907
 8414TIP3    H146733   1.766   1.666  98.460 -0.4636  0.6994 -0.0665
 8414TIP3    H246734   1.623   1.620  98.480 -0.0747 -0.2092  0.7356
 8415TIP3   OH246735   2.024   2.455  87.560  1.1579  0.4531 -0.2330
 8415TIP3    H146736   2.084   2.530  87.564 -0.2991  1.8273 -2.1785
 8415TIP3    H246737   1.950   2.487  87.508 -0.4689 -1.7191  0.6379
 8416TIP3   OH246738   2.270   2.263 103.488  0.4944  0.0105 -0.4028
 8416TIP3    H146739   2.318   2.241 103.568 -0.3198  2.0800  0.7294
 8416TIP3    H246740   2.206   2.192 103.479 -0.4839  0.5376  1.7380
 8417TIP3   OH246741   0.630   0.303  77.870 -0.5205 -1.3335 -0.1883
 8417TIP3    H146742   0.663   0.381  77.825 -2.4727  0.0895  0.7030
 8417TIP3    H246743   0.598   0.336  77.954  1.2300 -3.5856  1.5064
 8418TIP3   OH246744   0.040   2.388 105.482 -0.4218  0.1592 -0.1298
 8418TIP3    H146745  -0.041   2.362 105.527 -0.2994 -0.5683 -0.3197
 8418TIP3    H246746   0.011   2.437 105.405 -0.6330  1.9822  1.0330
 8419TIP3   OH246747   1.408   2.431   7.856 -0.1112 -0.0417  0.0726
 8419TIP3    H146748   1.373   2.358   7.906 -0.5934 -0.1537 -0.4213
 8419TIP3    H246749   1.428   2.394   7.770  1.4049 -0.0316  0.3875
 8420TIP3   OH246750   2.085   0.055  35.326  0.4693 -0.1124 -0.4810
 8420TIP3    H146751   2.123  -0.011  35.383 -0.8185 -0.8056 -0.3982
 8420TIP3    H246752   2.154   0.073  35.262 -0.0994 -3.7500 -2.3616
 8421TIP3   OH246753   0.188   1.544 107.464  0.3404  0.1200 -0.2940
 8421TIP3    H146754   0.193   1.596 107.384 -1.2535 -0.5828 -0.8994
 8421TIP3    H246755   0.249   1.586 107.524  0.7926  1.2914 -1.5197
 8422TIP3   OH246756   0.624   2.159  79.146  0.2101  0.2301  0.4951
 8422TIP3    H146757   0.676   2.085  79.177  1.2443  0.2847 -0.9803
 8422TIP3    H246758   0.586   2.197  79.225 -0.0066 -1.6099  1.3205
 8423TIP3   OH246759   1.190   2.425  91.531 -0.8333  0.4669 -0.2142
 8423TIP3    H146760   1.215   2.359  91.596 -0.6242  1.0733  0.3231
 8423TIP3    H246761   1.229   2.393  91.449 -0.5856  0.0113  0.0762
 8424TIP3   OH246762   1.472   1.915  96.252 -0.1027  0.3199  0.3360
 8424TIP3    H146763   1.496   1.963  96.174 -0.1174 -0.8342 -0.4051
 8424TIP3    H246764   1.386   1.879  96.233 -0.0816 -0.0168  0.8530
 8425TIP3   OH246765   1.049   2.192  21.238 -0.1642 -0.2408 -0.1945
 8425TIP3    H146766   1.121   2.196  21.174 -0.3725 -0.2233 -0.4274
 8425TIP3    H246767   1.001   2.113  21.215 -0.8813  0.3432 -0.7495
 8426TIP3   OH246768   2.397   2.322  45.311  0.2031 -0.1357 -0.8071
 8426TIP3    H146769   2.382   2.411  45.342  0.5255 -0.6679  1.0200
 8426TIP3    H246770   2.310   2.291  45.284  0.0363  0.5933 -1.1218
 8427TIP3   OH246771   1.946   2.302  48.152 -0.2562  0.4495 -0.4665
 8427TIP3    H146772   1.899   2.220  48.139 -5.7948  2.9747  0.6781
 8427TIP3    H246773   1.954   2.340  48.065 -0.4829  0.0194 -0.6761
 8428TIP3   OH246774   1.653   0.930  98.115 -0.0273 -0.7836  0.1606
 8428TIP3    H146775   1.732   0.973  98.084 -1.0676 -0.8434 -2.8386
 8428TIP3    H246776   1.658   0.841  98.079  0.1325 -1.9731  2.8550
 8429TIP3   OH246777   0.938   0.747  21.547 -0.2465  0.1733  0.0080
 8429TIP3    H146778   0.963   0.799  21.471  0.4574 -1.0157 -0.6106
 8429TIP3    H246779   0.845   0.727  21.533 -0.5774  1.4000  0.3584
 8430TIP3   OH246780   0.740   2.674  25.319  0.1304  0.2495 -0.6615
 8430TIP3    H146781   0.744   2.760  25.276 -0.5127  0.3877 -0.4597
 8430TIP3    H246782   0.647   2.654  25.323 -0.0645  1.2074  2.5132
 8431TIP3   OH246783   1.813   1.891  76.108 -0.3315 -0.0135 -0.2811
 8431TIP3    H146784   1.876   1.956  76.140  0.2779 -1.0005  0.6229
 8431TIP3    H246785   1.837   1.811  76.154 -0.7806 -0.9947 -1.6923
 8432TIP3   OH246786   1.231   0.406  85.606 -0.9108 -0.1383 -0.1171
 8432TIP3    H146787   1.196   0.456  85.532 -0.3706  1.3555  0.5856
 8432TIP3    H246788   1.177   0.327  85.610 -0.8941 -0.3094 -2.1481
 8433TIP3   OH246789   2.305   0.560  99.125  0.1645 -0.4285  0.3105
 8433TIP3    H146790   2.351   0.643  99.112 -1.6568  0.7284  0.7706
 8433TIP3    H246791   2.356   0.496  99.076  0.8796  1.2317 -1.2435
 8434TIP3   OH246792   0.329   1.745 110.913 -0.4514  0.6687 -0.2785
 8434TIP3    H146793   0.237   1.716 110.920 -0.7825  1.4394 -1.1931
 8434TIP3    H246794   0.326   1.839 110.930  0.4806  0.3935  1.6808
 8435TIP3   OH246795   1.257   0.080  83.598 -0.1948 -0.2897  0.1723
 8435TIP3    H146796   1.302   0.161  83.571 -1.7283  1.0218  1.3546
 8435TIP3    H246797   1.317   0.010  83.571  0.6874  1.1425 -1.9192
 8436TIP3   OH246798   0.498   0.987  96.729  0.7103 -0.0598 -0.2836
 8436TIP3    H146799   0.410   1.023  96.743  1.5584  1.8187  0.6596
 8436TIP3    H246800   0.519   1.008  96.638  0.4364  0.0857 -0.3152
 8437TIP3   OH246801   1.978   0.086  63.396 -1.3649  0.1932 -0.3199
 8437TIP3    H146802   1.963   0.146  63.324  0.8702  0.1936 -0.8363
 8437TIP3    H246803   2.019   0.139  63.464 -2.3354 -0.0781  0.5157
 8438TIP3   OH246804   2.172   0.543   3.609 -0.2688 -0.7560 -0.2199
 8438TIP3    H146805   2.111   0.476   3.578 -0.4109 -0.6725 -0.1186
 8438TIP3    H246806   2.153   0.620   3.556  1.1763 -1.3404 -1.6804
 8439TIP3   OH246807   1.040   0.209  90.096  0.5899  0.0574 -0.8138
 8439TIP3    H146808   1.092   0.278  90.054  1.1092  0.3002  0.1867
 8439TIP3    H246809   1.105   0.145  90.125  0.3194  0.2258  0.2081
 8440TIP3   OH246810   1.081   1.812  79.675 -0.1650  0.2223 -0.0813
 8440TIP3    H146811   1.105   1.841  79.763 -0.7988  0.5418 -0.0027
 8440TIP3    H246812   1.137   1.737  79.658  0.6896  0.7844  0.1854
 8441TIP3   OH246813   1.993   0.955  18.379 -0.6076  0.4299  0.1165
 8441TIP3    H146814   2.085   0.975  18.399  0.1886 -2.0070 -0.7254
 8441TIP3    H246815   1.948   1.038  18.389  1.4662  1.4686  1.8020
 8442TIP3   OH246816   0.087   0.165  37.786 -0.1558  0.5483  0.3079
 8442TIP3    H146817   0.082   0.213  37.869  0.8508  1.2829 -0.0287
 8442TIP3    H246818   0.057   0.077  37.807 -2.5227  1.4072  0.8645
 8443TIP3   OH246819   2.427   0.717  79.711 -0.2847 -0.2606 -0.2547
 8443TIP3    H146820   2.421   0.640  79.768 -0.1994 -1.6014 -1.9741
 8443TIP3    H246821   2.347   0.713  79.658 -0.2558  0.8289 -0.4042
 8444TIP3   OH246822   1.911   1.688  99.603  0.8368 -0.3835  0.0298
 8444TIP3    H146823   1.930   1.603  99.564  0.3066 -0.6830  0.4058
 8444TIP3    H246824   1.989   1.740  99.585  1.4901 -1.1812  0.4338
 8445TIP3   OH246825   2.482   2.038 105.229 -0.2625 -0.4280 -0.4660
 8445TIP3    H146826   2.547   2.036 105.299  0.6060  0.2563 -1.2262
 8445TIP3    H246827   2.398   2.028 105.274  0.2827 -0.1489  0.6541
 8446TIP3   OH246828   2.562   0.598  91.113 -0.1909  0.4757 -0.3674
 8446TIP3    H146829   2.535   0.528  91.054  0.3619  0.4932 -0.6515
 8446TIP3    H246830   2.555   0.677  91.060 -1.1418  0.6961  0.0511
 8447TIP3   OH246831   0.937   0.199  84.122 -0.2364  0.0503  0.3673
 8447TIP3    H146832   0.999   0.130  84.147 -0.4680 -0.5147 -0.5937
 8447TIP3    H246833   0.857   0.178  84.171 -1.0314 -1.6548 -1.5268
 8448TIP3   OH246834   2.179   0.430  25.932 -0.5502  0.1553 -0.5188
 8448TIP3    H146835   2.174   0.411  25.838 -2.2319 -1.2089 -0.2145
 8448TIP3    H246836   2.190   0.344  25.973  1.8389  0.8636  0.5110
 8449TIP3   OH246837   1.955   1.098  63.070 -0.4638 -0.0357  0.4631
 8449TIP3    H146838   1.939   1.190  63.093  0.4265  0.0810  0.6271
 8449TIP3    H246839   1.891   1.080  63.001 -0.3054  0.8555  0.0698
 8450TIP3   OH246840   0.790   2.506  14.617 -0.1688 -0.2285 -0.1387
 8450TIP3    H146841   0.873   2.468  14.646 -0.3405 -0.8700 -0.4662
 8450TIP3    H246842   0.777   2.471  14.529 -0.4352  0.4426 -0.3697
 8451TIP3   OH246843   0.263   2.647 105.346 -0.4618 -0.1529  0.2808
 8451TIP3    H146844   0.282   2.738 105.322 -0.7523 -0.3081 -0.5596
 8451TIP3    H246845   0.318   2.630 105.422 -0.3098  0.6887  0.3630
 8452TIP3   OH246846   1.684   0.155  58.030  0.2258  0.5533 -0.3371
 8452TIP3    H146847   1.688   0.093  58.102  0.8701 -0.0966 -0.9245
 8452TIP3    H246848   1.743   0.226  58.056 -1.3227  1.4965  0.8215
 8453TIP3   OH246849   1.979   0.647  74.962 -0.2939  0.1703 -0.3255
 8453TIP3    H146850   2.058   0.619  74.915 -1.5935 -1.0685 -1.9060
 8453TIP3    H246851   1.982   0.743  74.959  2.7577  0.3587  2.5865
 8454TIP3   OH246852   1.495   1.577 101.580  0.3853  0.7299 -0.3164
 8454TIP3    H146853   1.561   1.548 101.642  2.1464  2.3984 -1.3085
 8454TIP3    H246854   1.413   1.541 101.613  1.4866  0.2497  2.0615
 8455TIP3   OH246855   0.172   2.157 106.689 -0.2805 -0.4169  0.3367
 8455TIP3    H146856   0.198   2.248 106.705  1.1673 -0.5360 -1.0796
 8455TIP3    H246857   0.246   2.105 106.721 -0.5810 -1.0248  0.0601
 8456TIP3   OH246858   0.560   0.413  83.238 -0.0151 -0.2957  0.1933
 8456TIP3    H146859   0.596   0.375  83.318 -0.7301  2.1281  1.7679
 8456TIP3    H246860   0.492   0.351  83.211  0.4924 -1.3431  1.2258
 8457TIP3   OH246861   2.274   0.870  27.014  0.0330 -0.1402 -0.0729
 8457TIP3    H146862   2.235   0.837  26.933 -2.3821  1.3856  0.3815
 8457TIP3    H246863   2.352   0.917  26.985  0.0475 -0.8771 -1.3377
 8458TIP3   OH246864   1.206   1.547  99.057  0.1077 -0.0385  0.1865
 8458TIP3    H146865   1.280   1.486  99.067  1.3629  1.2707 -0.6745
 8458TIP3    H246866   1.193   1.554  98.963 -0.3203  0.6650  0.2944
 8459TIP3   OH246867   2.352   0.504  19.867 -0.1846 -0.0200  0.0548
 8459TIP3    H146868   2.337   0.518  19.773 -0.7768 -0.3280  0.0962
 8459TIP3    H246869   2.439   0.541  19.883 -0.1982  0.2985 -0.5552
 8460TIP3   OH246870   1.492   2.120  89.877 -0.6772  0.1788  0.7239
 8460TIP3    H146871   1.462   2.135  89.787 -0.4564  0.7336  0.7366
 8460TIP3    H246872   1.585   2.146  89.876 -0.1631 -1.5527  0.6714
 8461TIP3   OH246873   1.670   1.990  14.945 -0.4618 -0.1479  0.1696
 8461TIP3    H146874   1.627   2.010  15.028 -2.5430 -0.7611 -0.6819
 8461TIP3    H246875   1.705   2.073  14.914 -1.3930  0.4728  0.7491
 8462TIP3   OH246876   2.390   2.557  69.224 -0.2922  0.1274 -0.2841
 8462TIP3    H146877   2.387   2.581  69.131  3.2235  1.6916 -0.1490
 8462TIP3    H246878   2.321   2.611  69.264  0.9435  2.7806 -1.4533
 8463TIP3   OH246879   0.632   1.583  24.921 -0.3322 -0.4395 -0.0542
 8463TIP3    H146880   0.556   1.640  24.914  0.2331  0.1705 -1.7882
 8463TIP3    H246881   0.595   1.494  24.923 -1.1002 -0.1563 -0.9872
 8464TIP3   OH246882   2.133   2.155  33.870  0.5696 -0.2750 -0.1593
 8464TIP3    H146883   2.065   2.141  33.936  0.7101 -0.8040 -0.1213
 8464TIP3    H246884   2.215   2.143  33.918  0.6680 -1.4426 -0.5846
 8465TIP3   OH246885   0.408   1.186 103.560 -0.1390  0.2552 -0.1926
 8465TIP3    H146886   0.365   1.197 103.475  0.7796 -2.3372 -1.0850
 8465TIP3    H246887   0.500   1.207 103.543 -0.0924  0.5532  0.3953
 8466TIP3   OH246888   2.278   0.396  21.476  0.1693 -0.1593 -0.2302
 8466TIP3    H146889   2.192   0.354  21.474  0.7361 -1.3734 -0.1878
 8466TIP3    H246890   2.296   0.420  21.385 -1.3366  2.5828  0.0844
 8467TIP3   OH246891   2.049   0.278   3.810  0.2738  0.2213 -0.1244
 8467TIP3    H146892   2.021   0.356   3.858  1.6420  1.8630 -1.8428
 8467TIP3    H246893   2.005   0.285   3.725  0.2396 -1.0053 -0.2221
 8468TIP3   OH246894   1.708   0.847  19.429  0.2777 -0.3721  0.2692
 8468TIP3    H146895   1.774   0.827  19.496  0.8782  0.9022  0.0743
 8468TIP3    H246896   1.655   0.917  19.466  0.2886 -0.0098 -0.3808
 8469TIP3   OH246897   0.555   2.495  36.549  0.1024 -0.6410  0.2796
 8469TIP3    H146898   0.566   2.417  36.495  2.4756  0.5649 -1.1841
 8469TIP3    H246899   0.496   2.552  36.498 -0.2346 -0.7932  0.4998
 8470TIP3   OH246900   1.460   0.900 107.632 -0.0631  0.5024  0.3016
 8470TIP3    H146901   1.541   0.912 107.583  0.8242 -1.4006  1.2109
 8470TIP3    H246902   1.446   0.984 107.676  0.5842  1.3378 -1.0170
 8471TIP3   OH246903   2.474   1.745  33.246  0.1689  0.8223  0.1108
 8471TIP3    H146904   2.414   1.758  33.172  0.1971  2.7907  0.3906
 8471TIP3    H246905   2.418   1.722  33.319 -0.0719  0.9246 -0.0405
 8472TIP3   OH246906   1.147   1.954  22.286 -0.5597 -0.8189  1.2009
 8472TIP3    H146907   1.061   1.932  22.322 -0.4751 -0.8476  1.3872
 8472TIP3    H246908   1.199   1.874  22.296 -1.5102 -2.0008 -2.0820
 8473TIP3   OH246909   0.088   0.993  37.158  0.7412 -0.2763  0.2239
 8473TIP3    H146910   0.005   1.022  37.120  0.1161 -0.2824  1.5479
 8473TIP3    H246911   0.125   0.936  37.091 -0.1798 -0.0405 -0.5168
 8474TIP3   OH246912   1.804   0.118  80.323 -0.9349 -0.8801 -0.3991
 8474TIP3    H146913   1.889   0.085  80.354 -0.3991  0.2408 -0.6479
 8474TIP3    H246914   1.824   0.160  80.240 -1.3553  1.2222  0.5071
 8475TIP3   OH246915   1.258   1.005   4.378  0.0711 -0.5152 -0.2321
 8475TIP3    H146916   1.322   0.995   4.449 -0.1054  0.7334  0.1233
 8475TIP3    H246917   1.203   0.926   4.384 -0.4557 -0.0580  1.5520
 8476TIP3   OH246918   0.039   0.453  93.146 -0.0099 -0.9364 -0.3238
 8476TIP3    H146919   0.021   0.470  93.238  2.9555  1.9326 -0.0974
 8476TIP3    H246920   0.097   0.377  93.146  0.3706 -0.6530  0.2372
 8477TIP3   OH246921   2.062   1.031  86.747  0.2580 -0.0261 -0.0647
 8477TIP3    H146922   2.070   1.030  86.842 -1.9373 -0.4510  0.1462
 8477TIP3    H246923   2.038   1.121  86.726 -1.7420 -0.4995  0.0520
 8478TIP3   OH246924   0.950   1.042  83.917 -0.0900  0.2632 -0.3286
 8478TIP3    H146925   0.909   1.125  83.892  1.2449  0.8423 -0.6448
 8478TIP3    H246926   0.965   1.050  84.011  0.2759  0.4805 -0.4044
 8479TIP3   OH246927   2.222   1.262  77.650 -0.5338  0.1049  0.6400
 8479TIP3    H146928   2.194   1.294  77.564  2.0631  0.6931 -0.0719
 8479TIP3    H246929   2.229   1.342  77.703  0.5966  0.0940  0.5267
 8480TIP3   OH246930   0.224   1.128  93.902  0.5220  0.0144 -0.3959
 8480TIP3    H146931   0.222   1.039  93.935 -0.5812  0.1297 -0.1303
 8480TIP3    H246932   0.291   1.172  93.954 -0.4173 -0.1028  0.9498
 8481TIP3   OH246933   2.633   2.558  81.720 -0.1063  0.0601 -0.0539
 8481TIP3    H146934   2.716   2.537  81.763  2.1215  0.9130 -3.5476
 8481TIP3    H246935   2.611   2.479  81.671  0.2436  0.7672 -1.3985
 8482TIP3   OH246936   1.103   2.341  22.818  0.1811  0.0029 -0.6254
 8482TIP3    H146937   1.082   2.295  22.736  1.1981  1.0662 -1.5279
 8482TIP3    H246938   1.080   2.279  22.887  0.8573 -1.6115 -1.7736
 8483TIP3   OH246939   0.484   1.445  88.190 -0.3792 -0.4431  0.2216
 8483TIP3    H146940   0.508   1.532  88.158  0.0278 -0.9599 -0.9533
 8483TIP3    H246941   0.392   1.435  88.167  0.1046 -1.1191 -1.6318
 8484TIP3   OH246942   2.463   1.211 100.623 -0.2808  0.4088  0.0330
 8484TIP3    H146943   2.374   1.177 100.623 -0.0108 -0.3857 -1.3996
 8484TIP3    H246944   2.512   1.152 100.679 -0.4039  0.1340 -0.1504
 8485TIP3   OH246945   0.249   1.816  10.238 -0.3822 -0.1752  0.6634
 8485TIP3    H146946   0.174   1.806  10.180  1.0933  2.4072 -1.9953
 8485TIP3    H246947   0.285   1.728  10.246 -1.2591 -0.8156 -1.5668
 8486TIP3   OH246948   0.823   0.844  25.542 -0.2703  0.0629  0.6474
 8486TIP3    H146949   0.734   0.861  25.512 -0.9653  1.6373  3.2458
 8486TIP3    H246950   0.877   0.845  25.463 -2.3141  0.8874 -0.7913
 8487TIP3   OH246951   2.492   2.572  97.487 -0.2270  0.1654  0.4496
 8487TIP3    H146952   2.430   2.614  97.547 -0.3250  0.4551  0.1491
 8487TIP3    H246953   2.535   2.505  97.540 -1.8121 -1.0161  0.3177
 8488TIP3   OH246954   1.059   2.204  87.081 -0.3379  0.2462  0.0200
 8488TIP3    H146955   0.983   2.193  87.025  0.4815 -0.5427 -0.9698
 8488TIP3    H246956   1.118   2.259  87.030  0.1900 -0.0198  0.3431
 8489TIP3   OH246957   2.427   1.423  95.623  0.7224 -0.3327 -0.2855
 8489TIP3    H146958   2.446   1.514  95.644  0.6084 -0.2883 -0.3780
 8489TIP3    H246959   2.461   1.373  95.698 -0.4187 -0.1064  0.4125
 8490TIP3   OH246960   1.422   2.031  31.055  0.1402 -0.1637  0.5733
 8490TIP3    H146961   1.464   1.987  30.981 -0.4468  2.3063 -1.3805
 8490TIP3    H246962   1.488   2.030  31.124  1.1951 -1.4638 -0.4007
 8491TIP3   OH246963   0.821   1.550  12.571 -0.0802  0.0091 -0.7463
 8491TIP3    H146964   0.807   1.491  12.645 -1.3134  0.8798 -0.2621
 8491TIP3    H246965   0.895   1.605  12.598 -0.0036 -0.2043 -0.5161
 8492TIP3   OH246966   0.236   0.411  86.102  0.3417 -0.2576 -0.2886
 8492TIP3    H146967   0.259   0.466  86.027 -0.0309 -0.1767 -0.3478
 8492TIP3    H246968   0.278   0.453  86.176 -2.9236  2.2904  0.3262
 8493TIP3   OH246969   2.475   1.694   9.815  0.1306 -0.6247 -0.2788
 8493TIP3    H146970   2.484   1.644   9.734 -2.5645 -0.6942 -0.6219
 8493TIP3    H246971   2.532   1.771   9.802  1.5821 -1.7904 -1.1910
 8494TIP3   OH246972   0.053   2.590 111.861  0.0964 -0.2623 -0.5317
 8494TIP3    H146973   0.073   2.535 111.937 -1.8615  1.9243  1.7352
 8494TIP3    H246974  -0.039   2.571 111.842  0.1558  0.2872 -1.4577
 8495TIP3   OH246975   2.316   1.848  14.538 -0.0441 -0.3925  0.4459
 8495TIP3    H146976   2.302   1.942  14.528  0.3094 -0.2621  1.1102
 8495TIP3    H246977   2.410   1.839  14.554 -0.1702 -0.7991  0.9889
 8496TIP3   OH246978   1.587   1.457  75.398  0.3374  0.2222 -0.4574
 8496TIP3    H146979   1.570   1.432  75.307 -1.0924 -0.1604 -0.1114
 8496TIP3    H246980   1.674   1.421  75.417  0.3341 -0.3390 -1.4356
 8497TIP3   OH246981   1.099   0.864   5.479  0.2785 -0.1361 -0.1121
 8497TIP3    H146982   1.041   0.817   5.539 -0.3529 -0.4232 -0.9271
 8497TIP3    H246983   1.164   0.798   5.453 -0.5646 -0.5652 -1.1984
 8498TIP3   OH246984   1.520   0.499   5.233  0.0046 -0.8164  0.3049
 8498TIP3    H146985   1.585   0.441   5.194  0.7106 -0.4612  0.9284
 8498TIP3    H246986   1.462   0.440   5.282  0.5876 -1.0293  0.7549
 8499TIP3   OH246987   1.178   0.666 103.753  0.1362  0.1632  0.4919
 8499TIP3    H146988   1.257   0.645 103.802 -1.1051 -3.0590  1.3232
 8499TIP3    H246989   1.187   0.618 103.671 -0.5655  0.5590  0.1756
 8500TIP3   OH246990   1.343   1.142  52.408  0.2982 -0.0838  0.0780
 8500TIP3    H146991   1.408   1.130  52.477  2.8608  0.7020 -2.0703
 8500TIP3    H246992   1.324   1.236  52.409  0.3578 -0.0670 -0.2994
 8501TIP3   OH246993   2.111   1.129  63.749 -0.7387 -0.3414  0.0231
 8501TIP3    H146994   2.142   1.124  63.658  0.0174 -1.8361  0.3332
 8501TIP3    H246995   2.040   1.193  63.746  1.0376  1.7105 -1.1043
 8502TIP3   OH246996   0.122   1.830 109.323 -0.0355  0.1774 -0.2747
 8502TIP3    H146997   0.189   1.891 109.292  0.9656 -0.8449 -0.2098
 8502TIP3    H246998   0.163   1.787 109.398 -0.5381 -0.8701 -0.5854
 8503TIP3   OH246999   0.300   1.144  78.904  0.0880 -0.3195  0.5424
 8503TIP3    H147000   0.236   1.199  78.858  0.8602  1.8069  1.9122
 8503TIP3    H247001   0.257   1.058  78.908 -1.5150  0.3370 -0.9575
 8504TIP3   OH247002   0.162   1.793  79.701 -0.3880 -0.4260  0.1432
 8504TIP3    H147003   0.099   1.854  79.738 -1.0291 -1.2262  0.4002
 8504TIP3    H247004   0.243   1.811  79.748 -1.2340 -1.5798  2.1817
 8505TIP3   OH247005   1.135   1.504  22.014 -0.2007 -0.5170  0.4022
 8505TIP3    H147006   1.218   1.505  22.062 -1.0022  0.1730  1.8406
 8505TIP3    H247007   1.141   1.427  21.958  1.5078 -0.3427  0.2984
 8506TIP3   OH247008   1.219   0.515  97.462 -0.2128 -0.4625  0.3184
 8506TIP3    H147009   1.180   0.584  97.409  0.5757 -0.9621 -0.9686
 8506TIP3    H247010   1.294   0.484  97.410  0.1751 -1.4585  1.4099
 8507TIP3   OH247011   1.799   0.055  25.138  0.2162 -0.1203  0.3643
 8507TIP3    H147012   1.712   0.022  25.118 -0.0653  0.8131 -0.0037
 8507TIP3    H247013   1.785   0.123  25.203  0.4832  1.1149 -0.8193
 8508TIP3   OH247014   0.023   1.327  86.550  0.4006 -0.0016  0.2072
 8508TIP3    H147015   0.106   1.327  86.503  0.0407  0.1139 -0.4455
 8508TIP3    H247016  -0.039   1.367  86.489 -0.3238 -0.9051  0.3243
 8509TIP3   OH247017   1.811   0.811  47.379 -0.1537  0.2297 -0.7152
 8509TIP3    H147018   1.876   0.743  47.397  0.6831  1.0912 -0.4163
 8509TIP3    H247019   1.788   0.799  47.287 -2.4292 -2.4809  0.0504
 8510TIP3   OH247020   1.889   2.453  35.373  0.4580 -0.5838  0.0855
 8510TIP3    H147021   1.870   2.364  35.404 -0.4013 -0.1556  0.8421
 8510TIP3    H247022   1.900   2.504  35.453  0.9109 -0.0006 -0.3439
 8511TIP3   OH247023   1.788   2.514  87.387 -0.0112  0.4592 -0.0312
 8511TIP3    H147024   1.800   2.513  87.292  0.4976 -0.1619  0.0336
 8511TIP3    H247025   1.709   2.463  87.402  1.3928 -1.8328  0.0438
 8512TIP3   OH247026   1.829   2.277  12.774 -0.6707 -0.0955 -0.0665
 8512TIP3    H147027   1.852   2.227  12.695  1.5193 -1.7981  1.5295
 8512TIP3    H247028   1.906   2.329  12.793 -1.7140  1.4040  0.2041
 8513TIP3   OH247029   2.282   1.901 110.758 -0.1567 -0.3195 -0.3983
 8513TIP3    H147030   2.205   1.958 110.766 -0.7623 -1.2150  0.5119
 8513TIP3    H247031   2.357   1.960 110.765 -0.7621  0.5020 -0.7072
 8514TIP3   OH247032   0.861   1.306 100.006 -0.0588 -0.5738 -0.1011
 8514TIP3    H147033   0.853   1.212 100.019 -1.0003 -0.1817  2.9423
 8514TIP3    H247034   0.803   1.344 100.072  1.3401  2.1756 -0.3245
 8515TIP3   OH247035   0.060   1.647  33.783 -0.1516  0.5573  0.5206
 8515TIP3    H147036   0.012   1.716  33.737 -0.0674 -0.2148 -0.7655
 8515TIP3    H247037   0.085   1.585  33.715  0.8336 -0.1428  1.4718
 8516TIP3   OH247038   2.049   1.028  29.985  0.1321  0.3903  0.0145
 8516TIP3    H147039   2.002   1.096  30.032  1.3691  3.1580 -2.3830
 8516TIP3    H247040   2.130   1.016  30.035 -0.3194  0.2537  0.7316
 8517TIP3   OH247041   0.656   2.554  97.327  0.3795 -0.1811 -0.7105
 8517TIP3    H147042   0.637   2.609  97.251  1.5960  0.5824 -0.4875
 8517TIP3    H247043   0.628   2.466  97.302 -1.2396  0.4512 -1.2240
 8518TIP3   OH247044   2.382   1.412  97.572 -0.0783 -0.1503  0.1214
 8518TIP3    H147045   2.424   1.358  97.639  0.5998  0.2858  0.0545
 8518TIP3    H247046   2.356   1.351  97.504  0.4251 -0.4317  0.1799
 8519TIP3   OH247047   0.586   1.238  15.961 -0.1479 -0.2880 -0.0152
 8519TIP3    H147048   0.525   1.165  15.954  0.1560 -0.4328 -1.5344
 8519TIP3    H247049   0.555   1.302  15.897  1.2335 -0.3417 -0.7848
 8520TIP3   OH247050   0.135   2.518 103.972 -0.6135  0.2162 -0.1106
 8520TIP3    H147051   0.149   2.479 104.058 -0.7985  0.9155  0.2438
 8520TIP3    H247052   0.115   2.444 103.915  2.3529 -0.6102 -0.2234
 8521TIP3   OH247053   2.062   1.372  30.163 -0.3349  0.2242 -0.0868
 8521TIP3    H147054   2.053   1.456  30.206 -1.6667  0.4716 -0.7721
 8521TIP3    H247055   2.126   1.324  30.215 -0.6763  1.1073  1.1830
 8522TIP3   OH247056   2.382   1.119  33.009 -0.0373  0.6585  0.1257
 8522TIP3    H147057   2.296   1.155  32.988 -0.0206 -0.5938 -2.3995
 8522TIP3    H247058   2.404   1.062  32.935  1.6218 -1.5197  2.1256
 8523TIP3   OH247059   1.271   1.809  98.247 -0.1673 -0.1875  0.7747
 8523TIP3    H147060   1.335   1.743  98.223 -0.5876 -0.8004  1.3066
 8523TIP3    H247061   1.316   1.865  98.310  0.4283  0.4871 -0.2305
 8524TIP3   OH247062   1.910   0.413  26.658 -0.1453 -0.3442  0.1640
 8524TIP3    H147063   1.920   0.500  26.697  0.4635  1.0077 -2.7521
 8524TIP3    H247064   1.823   0.384  26.686 -1.1784  2.0653 -0.3554
 8525TIP3   OH247065   1.557   1.575 107.680  0.0374 -0.1604  0.1440
 8525TIP3    H147066   1.509   1.525 107.613  0.4458  1.0146 -1.0440
 8525TIP3    H247067   1.546   1.523 107.760 -1.3804 -1.0400 -0.5807
 8526TIP3   OH247068   0.455   2.197  82.285  0.8004  0.0057 -0.2871
 8526TIP3    H147069   0.535   2.230  82.328  0.7119  0.8093 -0.7178
 8526TIP3    H247070   0.384   2.234  82.336  0.6488 -2.2195  1.2464
 8527TIP3   OH247071   0.489   1.311  19.898  0.0592  0.3159 -0.2120
 8527TIP3    H147072   0.506   1.245  19.965 -0.1185 -2.0693 -2.3594
 8527TIP3    H247073   0.572   1.356  19.887  0.8149 -1.0161 -0.1692
 8528TIP3   OH247074   0.973   0.472   2.181  0.0767 -0.1400 -0.3785
 8528TIP3    H147075   0.984   0.436   2.269  0.3538 -1.8511 -1.0689
 8528TIP3    H247076   1.046   0.532   2.169  0.5740 -0.6256  0.2178
 8529TIP3   OH247077   1.333   0.433  16.431 -0.2597  0.2451 -0.0836
 8529TIP3    H147078   1.322   0.527  16.446 -0.3361  0.1204  0.7248
 8529TIP3    H247079   1.416   0.426  16.384  0.0784  0.6835  0.4201
 8530TIP3   OH247080   2.281   0.751  31.083  0.4867 -0.3288  0.2215
 8530TIP3    H147081   2.282   0.783  30.993  2.8940  1.0896  0.6808
 8530TIP3    H247082   2.197   0.705  31.091 -1.3738  2.4068 -1.7249
 8531TIP3   OH247083   0.756   0.133 110.576 -0.3595  0.2777  0.1532
 8531TIP3    H147084   0.826   0.178 110.528 -1.1294  1.4043  0.0421
 8531TIP3    H247085   0.685   0.124 110.513 -0.6180 -0.1252  0.4927
 8532TIP3   OH247086   1.210   0.259  32.046  0.0097 -0.4846  0.4112
 8532TIP3    H147087   1.238   0.211  32.124 -0.0396 -0.7483  0.2693
 8532TIP3    H247088   1.243   0.348  32.059 -1.3328 -0.1044  1.4605
 8533TIP3   OH247089   1.272   1.718   7.895  0.5275  0.3527  0.3318
 8533TIP3    H147090   1.201   1.662   7.927  0.3133  1.4638  1.9618
 8533TIP3    H247091   1.237   1.758   7.816 -0.3117  0.1388  0.5810
 8534TIP3   OH247092   1.296   1.124  84.079  0.0101 -0.7461  0.1798
 8534TIP3    H147093   1.230   1.064  84.044  0.1402 -0.2769 -0.9289
 8534TIP3    H247094   1.256   1.210  84.073 -0.6705 -0.7733  2.9628
 8535TIP3   OH247095   0.344   1.110  77.423 -0.6732  0.0275 -0.0287
 8535TIP3    H147096   0.279   1.120  77.492 -0.9735 -0.0233 -0.3045
 8535TIP3    H247097   0.406   1.181  77.438 -0.7780  0.0620  0.2421
 8536TIP3   OH247098   1.507   0.285   8.493 -0.1701  0.3066  0.8556
 8536TIP3    H147099   1.581   0.291   8.553 -0.4794 -0.7002  1.3532
 8536TIP3    H247100   1.541   0.318   8.410  1.1263 -0.9588  0.8330
 8537TIP3   OH247101   0.805   2.610  66.412 -0.0231  0.3811 -0.3964
 8537TIP3    H147102   0.837   2.695  66.383 -1.9010  1.5309  0.7370
 8537TIP3    H247103   0.806   2.556  66.332  1.0602  1.4657 -1.1626
 8538TIP3   OH247104   2.344   1.153  94.189  0.1108  0.5570  0.0674
 8538TIP3    H147105   2.299   1.079  94.147 -0.4355  0.8694  0.1062
 8538TIP3    H247106   2.387   1.198  94.116 -0.2709  0.7015 -0.0688
 8539TIP3   OH247107   0.064   2.131  96.218  0.0205 -0.3601 -0.1396
 8539TIP3    H147108   0.091   2.065  96.153  1.8596  0.5638 -0.3731
 8539TIP3    H247109   0.100   2.100  96.301 -0.3591 -0.3580  0.0318
 8540TIP3   OH247110   0.947   0.738   9.836 -0.3338  0.1825 -0.0866
 8540TIP3    H147111   0.891   0.808   9.869 -0.2061  0.7205 -0.9819
 8540TIP3    H247112   0.886   0.673   9.801 -0.4489 -0.1193  0.6520
 8541TIP3   OH247113   0.126   1.824  25.450  0.0150 -0.3126  0.6561
 8541TIP3    H147114   0.165   1.876  25.380 -0.5250 -0.8545 -0.0674
 8541TIP3    H247115   0.146   1.872  25.530  0.3377  0.5064  0.0960
 8542TIP3   OH247116   2.096   0.159  13.753 -0.0586 -0.7296  0.2760
 8542TIP3    H147117   2.020   0.126  13.706  0.3748  0.2650 -1.1785
 8542TIP3    H247118   2.170   0.138  13.696  0.2842  2.3236 -0.5775
 8543TIP3   OH247119   1.282   1.196  83.420  0.5731 -0.3448 -0.2074
 8543TIP3    H147120   1.264   1.187  83.513  0.3817 -2.9526 -0.4183
 8543TIP3    H247121   1.196   1.208  83.379  0.4000 -1.5691 -0.2294
 8544TIP3   OH247122   2.254   0.021  22.991  0.3058 -0.0614 -0.0293
 8544TIP3    H147123   2.273   0.104  23.034 -1.8886  0.8068 -0.6296
 8544TIP3    H247124   2.280   0.034  22.899 -0.8721  0.3029 -0.3247
 8545TIP3   OH247125   2.271   1.147  12.474 -0.0457 -0.7502 -0.2423
 8545TIP3    H147126   2.282   1.080  12.406 -1.4046 -0.3548 -0.8721
 8545TIP3    H247127   2.179   1.172  12.469  0.0875  0.0786  1.0204
 8546TIP3   OH247128   1.647   0.495  82.687  0.3144  0.0584  0.1627
 8546TIP3    H147129   1.653   0.582  82.727 -0.0276 -0.9410  2.6007
 8546TIP3    H247130   1.583   0.448  82.740 -0.4546 -1.3229 -1.8608
 8547TIP3   OH247131   0.228   1.601   9.293 -0.4271  0.1396 -0.3325
 8547TIP3    H147132   0.219   1.509   9.317  0.0799  0.2003  0.0823
 8547TIP3    H247133   0.273   1.599   9.208 -1.3303 -0.0278 -0.8295
 8548TIP3   OH247134   1.963   1.788  86.355  0.2354  0.0808 -0.1740
 8548TIP3    H147135   1.885   1.842  86.369  0.3737 -0.0960  1.5553
 8548TIP3    H247136   1.998   1.774  86.443  1.2683 -1.2632 -0.7593
 8549TIP3   OH247137   2.299   0.598   8.090 -0.0384  0.2289  0.2631
 8549TIP3    H147138   2.317   0.506   8.069  1.6091 -0.3180  3.4411
 8549TIP3    H247139   2.306   0.644   8.007 -0.7885 -2.4801 -1.4111
 8550TIP3   OH247140   1.555   2.266  96.110 -0.0681 -0.4710 -0.4331
 8550TIP3    H147141   1.644   2.234  96.126 -0.3821 -1.4767 -0.6315
 8550TIP3    H247142   1.544   2.261  96.015  0.0219  0.6635 -0.5191
 8551TIP3   OH247143   0.319   1.102  37.291  0.4573 -0.0622  0.3916
 8551TIP3    H147144   0.251   1.034  37.292 -0.5604  0.9388  1.1509
 8551TIP3    H247145   0.333   1.120  37.198 -0.0133 -0.5607  0.2191
 8552TIP3   OH247146   1.013   1.034  10.443 -0.3096  0.1515 -0.3640
 8552TIP3    H147147   0.930   1.064  10.479 -0.5511  0.7828 -1.4141
 8552TIP3    H247148   1.079   1.081  10.493 -0.6533  1.3699 -1.0254
 8553TIP3   OH247149   0.673   1.767  34.507 -0.3507  0.3907  0.0696
 8553TIP3    H147150   0.604   1.731  34.563  0.7533  0.8392  1.8169
 8553TIP3    H247151   0.742   1.792  34.569  0.5894  1.7018 -1.4558
 8554TIP3   OH247152   1.906   0.506  86.066  0.2740  1.3267  0.0450
 8554TIP3    H147153   1.834   0.446  86.081  1.5334 -0.2681  0.0287
 8554TIP3    H247154   1.953   0.509  86.149  1.7325  0.1346 -0.6901
 8555TIP3   OH247155   2.084   2.629  75.377 -0.6467 -0.0107  0.5274
 8555TIP3    H147156   2.009   2.576  75.403 -0.1019  0.0393  2.3168
 8555TIP3    H247157   2.047   2.714  75.352 -1.2051 -0.0256  1.2854
 8556TIP3   OH247158   2.131   1.947  20.727  0.0840  0.2921 -0.5747
 8556TIP3    H147159   2.063   1.943  20.795  0.3781  0.9537 -0.2325
 8556TIP3    H247160   2.137   1.857  20.694 -1.5677  0.3915 -1.2248
 8557TIP3   OH247161   2.393   0.441   3.721 -0.1754  0.1924 -0.0836
 8557TIP3    H147162   2.308   0.456   3.681 -0.0461 -1.7504 -1.2254
 8557TIP3    H247163   2.454   0.497   3.673 -0.1977 -1.3356 -2.0386
 8558TIP3   OH247164   1.528   1.381   8.914  0.1510 -0.1597 -0.0864
 8558TIP3    H147165   1.487   1.295   8.910 -0.1217 -0.0294 -0.1248
 8558TIP3    H247166   1.526   1.405   9.006 -1.2295  0.4929 -0.2502
 8559TIP3   OH247167   1.091   0.006   3.694  0.3282 -0.2333 -0.1808
 8559TIP3    H147168   1.071   0.088   3.650  1.4553  1.2753  1.9364
 8559TIP3    H247169   1.019  -0.007   3.755 -0.8464 -1.9155 -1.8223
 8560TIP3   OH247170   0.688   0.769  33.450  0.1565  0.1808  0.3949
 8560TIP3    H147171   0.623   0.828  33.413  0.3565 -0.7990 -1.6646
 8560TIP3    H247172   0.648   0.736  33.531  0.4954  3.8489  2.2605
 8561TIP3   OH247173   1.190   0.927   7.543  0.0197  0.1184  0.2170
 8561TIP3    H147174   1.257   0.873   7.587  0.2293  0.5685  0.4520
 8561TIP3    H247175   1.152   0.980   7.613  0.8451  1.3623 -0.2495
 8562TIP3   OH247176   2.481   2.587  30.119  0.3902  0.6919 -0.3217
 8562TIP3    H147177   2.445   2.532  30.189 -0.0385  0.3089 -0.8341
 8562TIP3    H247178   2.527   2.656  30.165  0.1626  0.4130  0.3453
 8563TIP3   OH247179   0.528   1.350   6.574 -0.1348  0.2947  0.0561
 8563TIP3    H147180   0.554   1.406   6.501  0.5156  0.1386  0.1626
 8563TIP3    H247181   0.542   1.261   6.543 -0.0485  0.2223  0.2957
 8564TIP3   OH247182   0.776   1.671  85.668  0.7512  0.8793 -0.7048
 8564TIP3    H147183   0.861   1.705  85.696  0.3982 -0.1767  2.0564
 8564TIP3    H247184   0.712   1.734  85.702  0.3033 -0.4310  1.1075
 8565TIP3   OH247185   0.387   2.066  93.257 -0.1566  0.3865 -0.3569
 8565TIP3    H147186   0.312   2.014  93.284  0.9527 -1.2717 -0.3087
 8565TIP3    H247187   0.410   2.032  93.170  1.6364 -0.4653  0.4016
 8566TIP3   OH247188   2.380   0.129 108.866  0.4883  0.2443 -0.0356
 8566TIP3    H147189   2.306   0.184 108.894  1.1954  1.7716 -1.0172
 8566TIP3    H247190   2.362   0.112 108.773  1.2418  0.4542 -0.2259
 8567TIP3   OH247191   1.653   0.672  79.817 -0.1725 -0.3680 -0.0335
 8567TIP3    H147192   1.565   0.636  79.828 -0.6853  1.1941  1.4078
 8567TIP3    H247193   1.648   0.721  79.735 -1.0009  0.6135  0.5802
 8568TIP3   OH247194   1.612   0.712   2.412 -0.5927  0.3505 -0.2377
 8568TIP3    H147195   1.652   0.653   2.348 -0.1193  0.0333  0.3392
 8568TIP3    H247196   1.673   0.787   2.416  0.5903 -0.6261  1.4549
 8569TIP3   OH247197   2.186   1.557   4.383 -0.4801  0.0337  0.0727
 8569TIP3    H147198   2.115   1.502   4.349 -1.0473  0.7623  0.0683
 8569TIP3    H247199   2.249   1.494   4.419 -0.7942 -0.6537 -0.5478
 8570TIP3   OH247200   1.058   0.527  32.040  0.0139  0.1492 -0.2480
 8570TIP3    H147201   1.098   0.481  31.967  0.1397  0.7118 -0.5361
 8570TIP3    H247202   1.027   0.610  32.003 -0.5862  0.1186  0.1703
 8571TIP3   OH247203   0.375   2.413   5.688 -0.0512 -0.2808  0.0300
 8571TIP3    H147204   0.425   2.337   5.721 -1.3093 -0.3592  1.9374
 8571TIP3    H247205   0.302   2.374   5.639 -0.7138 -0.3437  1.0342
 8572TIP3   OH247206   0.993   0.485  35.680  0.0809  0.2353 -0.3982
 8572TIP3    H147207   1.040   0.413  35.638  1.5921  0.6501  0.5006
 8572TIP3    H247208   0.966   0.541  35.608 -1.7954 -1.5471 -1.2016
 8573TIP3   OH247209   0.401   1.329  98.816 -0.5895  0.1232  0.1588
 8573TIP3    H147210   0.433   1.345  98.728  0.0446  0.0276  0.3667
 8573TIP3    H247211   0.306   1.328  98.807 -0.6284  2.5188 -0.1096
 8574TIP3   OH247212   0.902   1.037  29.008  0.0749  0.0071 -0.0615
 8574TIP3    H147213   0.936   1.005  28.924  0.4095 -1.7566  0.6894
 8574TIP3    H247214   0.904   0.960  29.065  0.2962  1.2570  1.7018
 8575TIP3   OH247215   1.416   0.737   9.918 -0.1559  0.4686 -0.1769
 8575TIP3    H147216   1.350   0.771   9.858 -0.7287  1.5138  0.9985
 8575TIP3    H247217   1.476   0.810   9.931 -0.7338  0.6958  1.4560
 8576TIP3   OH247218   1.175   1.902  19.002 -0.4303 -0.0551  0.2729
 8576TIP3    H147219   1.189   1.916  19.096 -0.0076 -2.4553  0.6404
 8576TIP3    H247220   1.184   1.989  18.963 -1.1132  1.0845  2.4972
 8577TIP3   OH247221   0.068   1.501  99.545  0.3192  0.0390 -0.1630
 8577TIP3    H147222   0.026   1.556  99.479  0.5019 -0.7006 -0.9150
 8577TIP3    H247223   0.027   1.415  99.535  0.4683 -0.1293  0.5786
 8578TIP3   OH247224   2.125   0.113 109.138 -0.1096  0.5654 -0.7650
 8578TIP3    H147225   2.156   0.079 109.222 -0.3182  1.1784 -0.4339
 8578TIP3    H247226   2.171   0.197 109.129  0.9242 -0.0942 -1.8882
 8579TIP3   OH247227   0.464   2.030 110.098 -0.0419 -0.0019  0.3981
 8579TIP3    H147228   0.411   2.036 110.178 -0.8215  2.5531 -0.2119
 8579TIP3    H247229   0.446   2.112 110.051  0.0819 -1.5703 -2.6203
 8580TIP3   OH247230   1.372   0.222 101.930 -0.4739 -0.1868  0.3408
 8580TIP3    H147231   1.318   0.214 101.851 -0.8663 -1.0018  0.6793
 8580TIP3    H247232   1.332   0.293 101.979  1.5929  2.5011 -1.5816
 8581TIP3   OH247233   1.077   1.048   8.446  0.3365  0.1270 -0.0304
 8581TIP3    H147234   1.130   1.045   8.366  0.2742 -0.5569 -0.0528
 8581TIP3    H247235   1.134   1.010   8.514  0.6973  1.4573  0.4429
 8582TIP3   OH247236   2.030   2.059  10.646  0.4497  0.0268 -0.1320
 8582TIP3    H147237   2.043   2.145  10.605  3.0924 -0.0021  0.4362
 8582TIP3    H247238   2.085   2.000  10.594 -2.1582 -1.6319 -1.1993
 8583TIP3   OH247239   0.084   1.690  10.597 -0.0876  0.2291  0.0033
 8583TIP3    H147240   0.009   1.746  10.618 -0.9631 -1.0707  0.4844
 8583TIP3    H247241   0.045   1.604  10.579  1.2984 -0.5095  0.3882
 8584TIP3   OH247242   0.811   2.003 102.622 -0.1845  0.1878 -0.7138
 8584TIP3    H147243   0.719   1.985 102.642 -0.3828  2.3134  0.6045
 8584TIP3    H247244   0.860   1.965 102.695 -0.1255  0.0509 -0.8238
 8585TIP3   OH247245   2.655   0.025  88.844 -0.3875 -0.5815 -0.6160
 8585TIP3    H147246   2.656  -0.046  88.910 -0.1209  0.9987  1.1641
 8585TIP3    H247247   2.740   0.067  88.854 -0.7470  0.3231 -1.2974
 8586TIP3   OH247248   0.784   2.465  24.787 -0.0883  0.5648  0.4580
 8586TIP3    H147249   0.777   2.471  24.882 -3.2409  0.2911  0.3719
 8586TIP3    H247250   0.814   2.376  24.770 -0.4791  0.2799  1.2118
 8587TIP3   OH247251   1.356   1.810 111.176 -0.3497 -0.1545 -0.3932
 8587TIP3    H147252   1.360   1.717 111.195  3.0496  0.2436  1.7003
 8587TIP3    H247253   1.277   1.841 111.222 -0.9776 -1.8147 -0.2958
 8588TIP3   OH247254   1.162   1.463 107.594 -0.7187 -0.0278 -0.0057
 8588TIP3    H147255   1.107   1.389 107.617 -0.3420 -0.6479 -1.0387
 8588TIP3    H247256   1.210   1.434 107.517 -1.5738  1.7572 -1.2854
 8589TIP3   OH247257   2.685   1.155  26.760 -0.2821  0.3383  0.1110
 8589TIP3    H147258   2.761   1.193  26.716 -0.2444 -0.8141 -0.8698
 8589TIP3    H247259   2.689   1.062  26.737 -1.0981 -0.0220  1.3613
 8590TIP3   OH247260   0.307   1.289  95.922  0.1756  0.1988 -0.5551
 8590TIP3    H147261   0.381   1.241  95.883 -0.2357 -1.2527  0.3612
 8590TIP3    H247262   0.256   1.318  95.847  1.0129  0.1465 -1.1705
 8591TIP3   OH247263   1.770   0.785  32.569  0.0753  0.0531  0.1360
 8591TIP3    H147264   1.722   0.717  32.616  1.2443 -0.6837  0.3239
 8591TIP3    H247265   1.823   0.828  32.637 -0.5104  1.0334 -0.0183
 8592TIP3   OH247266   2.089   0.351  36.059 -0.0234 -0.0505  0.2007
 8592TIP3    H147267   2.059   0.400  35.983  2.5481 -0.6992 -1.3801
 8592TIP3    H247268   2.109   0.264  36.025  0.0938 -0.7207  1.8836
 8593TIP3   OH247269   1.765   0.455  92.542  0.6514 -0.0175 -1.0259
 8593TIP3    H147270   1.838   0.396  92.524  0.2996 -0.8387  0.1580
 8593TIP3    H247271   1.712   0.409  92.607  1.6710  2.6158  1.8866
 8594TIP3   OH247272   0.274   2.058  34.280  0.3558 -0.4841 -0.3927
 8594TIP3    H147273   0.180   2.039  34.282  0.1721  0.4755  0.8862
 8594TIP3    H247274   0.279   2.144  34.237  0.5467 -0.0416  0.5025
 8595TIP3   OH247275   1.472   1.651 102.394  0.5559  0.0109  0.3410
 8595TIP3    H147276   1.535   1.619 102.329  0.2971  1.0292 -0.4438
 8595TIP3    H247277   1.389   1.611 102.369 -0.1588  2.4608 -1.7114
 8596TIP3   OH247278   1.404   0.971  14.773 -0.2409 -0.2020 -0.0051
 8596TIP3    H147279   1.427   1.050  14.725  0.2865  0.7825  1.7835
 8596TIP3    H247280   1.476   0.910  14.756  1.0053  0.8897  1.1713
 8597TIP3   OH247281   1.508   0.118   0.505  0.2100  0.2868 -0.0132
 8597TIP3    H147282   1.518   0.187   0.440 -0.8022  0.0426 -0.4406
 8597TIP3    H247283   1.416   0.093   0.500  0.5879 -1.2123  0.0043
 8598TIP3   OH247284   1.260   1.962  19.263 -0.4521 -0.1130 -0.1988
 8598TIP3    H147285   1.305   1.924  19.339 -0.8665 -1.5109 -0.6230
 8598TIP3    H247286   1.193   2.019  19.301  2.2581  2.9407  0.4742
 8599TIP3   OH247287   2.408   0.149  92.503 -0.1447 -0.3871 -0.1130
 8599TIP3    H147288   2.444   0.127  92.417 -0.9483  0.0131 -0.5653
 8599TIP3    H247289   2.405   0.066  92.550  1.1053 -0.4746 -0.1577
 8600TIP3   OH247290   1.621   0.970  52.922  0.0348  0.0942  0.6477
 8600TIP3    H147291   1.561   1.044  52.929  0.7016  0.5430  2.0708
 8600TIP3    H247292   1.613   0.924  53.005  1.6074  0.1491  0.8658
 8601TIP3   OH247293   0.065   1.282 108.060 -0.1421  0.3218 -0.4590
 8601TIP3    H147294   0.120   1.206 108.038 -0.5671  0.0117 -0.4637
 8601TIP3    H247295   0.042   1.320 107.975 -0.5552 -0.0007 -0.5027
 8602TIP3   OH247296   1.226   1.764  97.814 -0.0039  0.1249  0.4165
 8602TIP3    H147297   1.294   1.780  97.749 -1.0276  1.1942 -0.4323
 8602TIP3    H247298   1.158   1.717  97.767 -0.5245  0.4358  0.8443
 8603TIP3   OH247299   0.626   0.697 101.653  0.1511  0.0375 -0.5142
 8603TIP3    H147300   0.673   0.759 101.598  1.4054 -0.1526  0.3186
 8603TIP3    H247301   0.580   0.752 101.718 -0.2893  0.1826 -0.9412
 8604TIP3   OH247302   0.155   1.836   6.820 -0.1580 -0.1389 -0.3150
 8604TIP3    H147303   0.081   1.793   6.865  1.0567 -1.5663  0.3976
 8604TIP3    H247304   0.223   1.842   6.887  0.7006  0.3374 -1.2146
 8605TIP3   OH247305   0.986   2.159  74.952 -0.1000 -0.0064 -0.1958
 8605TIP3    H147306   1.007   2.191  75.040 -0.5153  2.1700 -0.8375
 8605TIP3    H247307   0.910   2.102  74.966 -0.4332  0.6471  0.8343
 8606TIP3   OH247308   0.041   0.509  98.415 -0.2433 -0.4355  0.5212
 8606TIP3    H147309   0.009   0.589  98.373  1.3024  0.7003  1.4028
 8606TIP3    H247310   0.122   0.488  98.369 -1.2876 -2.3193 -0.5792
 8607TIP3   OH247311   2.254   2.252  24.392 -0.2395  0.6067  0.0121
 8607TIP3    H147312   2.214   2.234  24.307 -0.1559  0.9051 -0.0945
 8607TIP3    H247313   2.240   2.346  24.406 -0.1094  0.5932  0.2516
 8608TIP3   OH247314   0.375   0.398 105.365  0.0196  0.4711 -0.2231
 8608TIP3    H147315   0.368   0.487 105.399  0.5918  0.9745 -1.3822
 8608TIP3    H247316   0.431   0.353 105.429  0.4747  1.1918 -0.1066
 8609TIP3   OH247317   2.192   1.408  79.900  0.2848 -0.4311  0.2028
 8609TIP3    H147318   2.175   1.330  79.953  1.2622 -0.3787  0.6234
 8609TIP3    H247319   2.133   1.400  79.825 -0.4311 -1.0011  0.8070
 8610TIP3   OH247320   1.956   2.158  79.566  0.3485  0.1514 -0.4214
 8610TIP3    H147321   1.915   2.155  79.479  0.5135  0.1862 -0.4999
 8610TIP3    H247322   2.010   2.237  79.564 -0.5547  0.7929  0.1134
 8611TIP3   OH247323   0.096   0.892  74.887 -0.1798 -0.0584  0.1297
 8611TIP3    H147324   0.138   0.858  74.808 -2.0835 -0.7316 -0.6418
 8611TIP3    H247325   0.091   0.986  74.872  1.6977  0.1625  0.5952
 8612TIP3   OH247326   0.580   1.113   7.734  0.2102  0.2660 -0.5155
 8612TIP3    H147327   0.651   1.165   7.696  0.8047 -0.0394  0.1711
 8612TIP3    H247328   0.551   1.056   7.662 -1.1222  2.1706 -1.5963
 8613TIP3   OH247329   0.977   1.477 104.449  0.2589 -0.4335 -0.0000
 8613TIP3    H147330   0.989   1.549 104.387  0.3985 -0.8422 -0.4531
 8613TIP3    H247331   0.981   1.518 104.535  0.6696  0.0525 -0.2469
 8614TIP3   OH247332   1.395   0.378  97.275 -0.4550 -0.1306 -0.6604
 8614TIP3    H147333   1.469   0.392  97.215  1.5666 -0.5104  1.6160
 8614TIP3    H247334   1.429   0.319  97.341 -2.9820 -0.6433  0.2617
 8615TIP3   OH247335   1.896   1.799  32.381 -0.2419 -0.6653  0.0731
 8615TIP3    H147336   1.836   1.732  32.351  0.0489 -1.6212  1.5432
 8615TIP3    H247337   1.930   1.839  32.300 -0.7730 -1.9501 -0.8101
 8616TIP3   OH247338   0.678   2.419  93.168  0.4787  0.5054 -0.4019
 8616TIP3    H147339   0.610   2.372  93.120 -1.0454  0.5806  1.5587
 8616TIP3    H247340   0.735   2.351  93.203  0.0871  0.2937 -0.1712
 8617TIP3   OH247341   0.228   1.428  88.130  0.8585 -0.1236 -0.5059
 8617TIP3    H147342   0.188   1.446  88.215  1.9767  0.7854 -0.1466
 8617TIP3    H247343   0.194   1.497  88.073  1.8241  0.6087 -0.2180
 8618TIP3   OH247344   0.165   1.582  19.755 -0.0169 -0.3406 -0.2287
 8618TIP3    H147345   0.229   1.567  19.824  1.2256 -1.3839 -1.5291
 8618TIP3    H247346   0.087   1.615  19.800  0.9276 -0.4551  1.5729
 8619TIP3   OH247347   0.610   0.049  91.771 -0.1803  0.1802 -0.9066
 8619TIP3    H147348   0.682  -0.004  91.737 -0.6475 -0.5511 -0.7762
 8619TIP3    H247349   0.609   0.030  91.865  0.3843  1.3191 -0.6572
 8620TIP3   OH247350   1.612   0.372  86.783 -0.2554 -0.2976  0.3440
 8620TIP3    H147351   1.618   0.446  86.844  1.6224 -1.0812  1.1920
 8620TIP3    H247352   1.626   0.412  86.697 -1.5822  0.6320  0.5221
 8621TIP3   OH247353   2.070   1.269  18.663  0.4142  0.0169  0.2454
 8621TIP3    H147354   2.130   1.342  18.674 -0.3377  0.7912 -0.6148
 8621TIP3    H247355   2.069   1.253  18.568 -1.0607  0.3368  0.1805
 8622TIP3   OH247356   1.348   2.080  87.665 -0.2268  0.0070 -0.1085
 8622TIP3    H147357   1.321   1.994  87.695  0.5515  0.0095  0.6180
 8622TIP3    H247358   1.279   2.106  87.603 -0.8116 -0.8400  0.1705
 8623TIP3   OH247359   2.577   2.076  93.732 -0.1121 -0.2705  0.0969
 8623TIP3    H147360   2.523   2.153  93.748  0.7063  0.3571 -0.0523
 8623TIP3    H247361   2.527   2.003  93.767 -1.6299  0.1137 -1.1709
 8624TIP3   OH247362   2.593   2.167  27.327  0.0285  0.0631 -0.0431
 8624TIP3    H147363   2.670   2.203  27.284  0.4540  0.4106  0.9813
 8624TIP3    H247364   2.581   2.220  27.405 -1.0468 -0.2124  0.0020
 8625TIP3   OH247365   1.181   2.481  35.630 -0.1328  0.0850 -0.0564
 8625TIP3    H147366   1.179   2.539  35.706  0.7294 -1.0836  0.9013
 8625TIP3    H247367   1.239   2.409  35.656 -1.1221 -1.1871 -1.1927
 8626TIP3   OH247368   0.544   1.663  89.867 -0.7073  0.0240  0.9083
 8626TIP3    H147369   0.590   1.663  89.783  0.8988 -0.9316  1.7240
 8626TIP3    H247370   0.499   1.748  89.870 -0.8486  0.0458 -0.9169
 8627TIP3   OH247371   2.326   1.114  79.995 -0.6328 -0.2963 -0.1913
 8627TIP3    H147372   2.240   1.087  80.028 -0.2311  0.1105  1.3033
 8627TIP3    H247373   2.373   1.033  79.981 -0.3193 -0.4882  1.7325
 8628TIP3   OH247374   2.676   1.871  84.747 -0.7712  0.3797  0.4465
 8628TIP3    H147375   2.729   1.938  84.789  1.6399 -0.3446 -1.2643
 8628TIP3    H247376   2.619   1.920  84.687 -1.2486  1.0885  1.4603
 8629TIP3   OH247377   1.044   1.391  74.479  0.1482  0.1074  0.8848
 8629TIP3    H147378   1.113   1.422  74.420 -1.5135 -0.1918 -1.3418
 8629TIP3    H247379   0.996   1.470  74.504 -0.9768 -0.0245 -0.6859
 8630TIP3   OH247380   1.297   0.994  14.241 -0.1449  0.3928  0.2641
 8630TIP3    H147381   1.348   0.992  14.160 -1.8077 -2.2424 -0.8592
 8630TIP3    H247382   1.347   0.939  14.302  0.4235  1.2814  0.6272
 8631TIP3   OH247383   2.174   1.472  81.923 -0.1442  0.6160 -0.8878
 8631TIP3    H147384   2.098   1.480  81.981  0.3073  1.3316 -0.3794
 8631TIP3    H247385   2.210   1.560  81.918  1.0961  0.1553 -0.5180
 8632TIP3   OH247386   1.213   0.471  22.290 -0.2676  0.0606  0.1880
 8632TIP3    H147387   1.211   0.408  22.363 -0.6340  0.6590  0.7040
 8632TIP3    H247388   1.268   0.429  22.224 -1.5424 -1.3935 -0.0137
 8633TIP3   OH247389   2.359   1.899   6.501 -0.4353  0.1482 -0.5911
 8633TIP3    H147390   2.364   1.924   6.408 -0.9640  0.2246 -0.5996
 8633TIP3    H247391   2.450   1.894   6.529 -0.2771  0.3161 -1.0662
 8634TIP3   OH247392   2.346   0.269   4.828  0.8936  0.1356  0.5429
 8634TIP3    H147393   2.367   0.175   4.827  2.4099  0.4524 -0.1531
 8634TIP3    H247394   2.427   0.312   4.801  0.3160  1.6826  1.1627
 8635TIP3   OH247395   2.324   0.707  81.264 -0.3636 -0.0035 -0.2423
 8635TIP3    H147396   2.353   0.765  81.334 -0.6435 -1.2295  0.9376
 8635TIP3    H247397   2.252   0.657  81.303 -0.1499 -1.1078 -1.2089
 8636TIP3   OH247398   1.587   0.964 106.422 -0.2712  0.0727  0.1021
 8636TIP3    H147399   1.641   1.025 106.373 -1.2110  0.9436  0.1013
 8636TIP3    H247400   1.570   1.009 106.505 -0.4300 -0.4789  0.3750
 8637TIP3   OH247401   0.187   1.365  19.005 -0.0304  0.0206 -0.1643
 8637TIP3    H147402   0.105   1.316  19.009  1.2666 -2.2817  3.9139
 8637TIP3    H247403   0.254   1.297  18.994  1.5514  1.4145  0.4983
 8638TIP3   OH247404   0.625   1.064  13.940 -0.9124 -0.1942  0.1728
 8638TIP3    H147405   0.673   1.038  13.862 -0.8383  0.7790 -0.1136
 8638TIP3    H247406   0.588   1.149  13.919 -0.6397  0.2195  1.3042
 8639TIP3   OH247407   1.926   0.003  82.714  0.2448  0.0414 -0.1537
 8639TIP3    H147408   1.847   0.053  82.692 -0.0593  0.0416  0.8740
 8639TIP3    H247409   1.899  -0.053  82.788  1.2186  0.0841  0.2480
 8640TIP3   OH247410   0.984   0.326 103.946  0.1938  0.4193 -0.0821
 8640TIP3    H147411   0.949   0.398 104.000  1.4821  0.7111  0.3929
 8640TIP3    H247412   0.973   0.249 104.001  1.7894  0.7631  0.7631
 8641TIP3   OH247413   1.244   1.502 101.829 -0.2399 -0.5219 -0.0666
 8641TIP3    H147414   1.200   1.451 101.760  0.3009 -1.0839 -0.0000
 8641TIP3    H247415   1.178   1.512 101.897  0.2620 -3.0457  0.8993
 8642TIP3   OH247416   0.355   1.540  13.066 -0.2492 -0.1280 -0.0897
 8642TIP3    H147417   0.261   1.538  13.050 -0.3826  1.4724  0.3547
 8642TIP3    H247418   0.379   1.632  13.058  1.2825 -0.5060 -0.1673
 8643TIP3   OH247419   1.018   2.602  68.435 -0.1392 -0.0865 -0.3799
 8643TIP3    H147420   1.018   2.593  68.530 -1.1060 -1.6901 -0.4848
 8643TIP3    H247421   1.055   2.520  68.403  1.3659  0.9379 -1.3962
 8644TIP3   OH247422   0.628   1.662  28.233  0.2439  0.1944  0.0971
 8644TIP3    H147423   0.627   1.680  28.327  2.0798  2.1528 -0.1678
 8644TIP3    H247424   0.676   1.579  28.225 -0.4413 -0.2945  0.8911
 8645TIP3   OH247425   1.417   1.174   9.437  0.1401 -0.0089 -0.0575
 8645TIP3    H147426   1.441   1.203   9.349  1.0227 -0.4942  0.0073
 8645TIP3    H247427   1.408   1.254   9.488 -0.4015  0.2756 -0.5963
 8646TIP3   OH247428   1.364   1.450  77.053 -0.1704 -0.5335  0.5004
 8646TIP3    H147429   1.279   1.407  77.064 -0.5151  0.1996  0.7041
 8646TIP3    H247430   1.368   1.469  76.959  1.4078 -3.9246 -0.2831
 8647TIP3   OH247431   1.115   1.954 103.957 -0.3722  0.3297 -0.0428
 8647TIP3    H147432   1.102   2.025 103.893  1.3148  0.1466 -0.6357
 8647TIP3    H247433   1.116   1.874 103.905  0.3791  0.1230  0.2660
 8648TIP3   OH247434   2.596   1.420 107.140 -0.3917 -0.0940 -0.1897
 8648TIP3    H147435   2.601   1.513 107.117  1.6161 -0.1348 -0.1562
 8648TIP3    H247436   2.584   1.375 107.056 -0.3726  0.1434 -0.3190
 8649TIP3   OH247437   0.618   1.627  10.637  0.9176  0.0424 -0.0890
 8649TIP3    H147438   0.702   1.607  10.678  0.7252 -0.4163  0.0807
 8649TIP3    H247439   0.620   1.722  10.624  0.3671  0.4643  2.3968
 8650TIP3   OH247440   1.048   0.998  17.975 -0.1056 -0.7859 -0.1993
 8650TIP3    H147441   1.084   1.084  17.954  0.6627 -1.4302 -1.6395
 8650TIP3    H247442   0.959   1.016  18.006  0.1156  0.5319 -0.2742
 8651TIP3   OH247443   1.021   2.471  77.924  0.4735  0.0465  0.5682
 8651TIP3    H147444   0.989   2.382  77.913 -2.7026  0.7666  2.4696
 8651TIP3    H247445   1.087   2.464  77.993 -0.0309 -0.8056  0.9833
 8652TIP3   OH247446   2.111   0.053  57.424  0.2738  0.1158  0.5431
 8652TIP3    H147447   2.125   0.092  57.510 -0.0775  0.4781  0.4376
 8652TIP3    H247448   2.200   0.037  57.390  0.4943  2.4547 -0.1390
 8653TIP3   OH247449   0.529   1.587  15.838  0.2090 -0.4694 -0.2661
 8653TIP3    H147450   0.528   1.598  15.933 -2.6201  0.6489 -0.3425
 8653TIP3    H247451   0.554   1.673  15.804 -1.7311  0.0375 -0.5237
 8654TIP3   OH247452   1.450   2.490  24.623  0.6172 -0.2325  0.3505
 8654TIP3    H147453   1.464   2.420  24.559  1.0859  0.4702 -0.3309
 8654TIP3    H247454   1.469   2.448  24.707  1.8287 -0.6949 -0.1163
 8655TIP3   OH247455   2.494   0.106  94.047  0.0427  0.0699  0.1380
 8655TIP3    H147456   2.496   0.052  93.968 -1.8219  1.0893 -0.6692
 8655TIP3    H247457   2.477   0.043  94.118  0.2698 -0.6808 -0.4553
 8656TIP3   OH247458   1.170   2.458  35.346  0.2782 -0.1830 -0.5780
 8656TIP3    H147459   1.156   2.508  35.427  0.5417  0.1950 -0.7671
 8656TIP3    H247460   1.259   2.481  35.319 -0.5797  1.4800 -2.2074
 8657TIP3   OH247461   1.614   0.898 105.687 -0.5435  0.3468 -0.2682
 8657TIP3    H147462   1.547   0.896 105.755  0.0727 -0.5107  0.3356
 8657TIP3    H247463   1.572   0.861 105.610 -0.2993 -1.7425  0.5602
 8658TIP3   OH247464   2.440   2.366  87.327  0.4227 -0.3173  0.1288
 8658TIP3    H147465   2.362   2.357  87.273  0.9861 -1.5008 -0.5393
 8658TIP3    H247466   2.419   2.436  87.389 -0.6060  0.4088 -0.9893
 8659TIP3   OH247467   1.105   0.714  25.151  0.4899  0.2784 -0.1935
 8659TIP3    H147468   1.160   0.638  25.131  0.1449 -0.2300  0.7410
 8659TIP3    H247469   1.165   0.788  25.145  0.6815  0.0399 -1.7933
 8660TIP3   OH247470   0.800   1.047  18.073  0.0269 -0.4138 -0.0210
 8660TIP3    H147471   0.708   1.057  18.048  0.1330 -0.5209 -0.4569
 8660TIP3    H247472   0.802   1.073  18.165 -0.3764 -0.0723 -0.1050
 8661TIP3   OH247473   2.510   0.999  40.372  0.1597  0.2520  0.3388
 8661TIP3    H147474   2.442   0.935  40.395  0.7370 -0.8236 -0.8632
 8661TIP3    H247475   2.464   1.083  40.372 -1.5907 -0.6113 -2.0218
 8662TIP3   OH247476   0.074   0.915 111.682  0.0660  0.3381 -0.5478
 8662TIP3    H147477   0.005   0.885 111.741 -0.5881 -0.0307 -1.4710
 8662TIP3    H247478   0.043   0.999 111.649  0.0613  0.1807 -0.9500
 8663TIP3   OH247479   1.713   2.139  85.102 -0.3197 -0.1576  0.4382
 8663TIP3    H147480   1.676   2.218  85.061 -1.0534  0.0140  1.4075
 8663TIP3    H247481   1.637   2.092  85.136  0.1282 -1.2114  0.0283
 8664TIP3   OH247482   0.041   2.605 100.222 -0.3884  0.3614  0.6114
 8664TIP3    H147483  -0.036   2.653 100.193 -0.4708 -0.4821 -0.6433
 8664TIP3    H247484   0.005   2.536 100.278 -0.3357  1.2513  1.7800
 8665TIP3   OH247485   0.038   2.365  28.992  0.4297 -0.0262  0.2028
 8665TIP3    H147486   0.095   2.306  29.040  0.0360 -2.2559 -1.9008
 8665TIP3    H247487   0.076   2.452  29.006  1.2976 -0.7686  3.0124
 8666TIP3   OH247488   2.124   1.177  81.619  0.3992 -0.4711  0.2597
 8666TIP3    H147489   2.161   1.169  81.707 -2.6708  0.0750  1.7276
 8666TIP3    H247490   2.131   1.270  81.598  2.6196 -0.8356 -0.8656
 8667TIP3   OH247491   1.509   1.037 109.833 -0.0211 -0.3537  0.0743
 8667TIP3    H147492   1.451   1.028 109.758 -0.3495  0.2011  0.2562
 8667TIP3    H247493   1.509   1.131 109.853  0.7627 -0.3709  0.2186
 8668TIP3   OH247494   1.321   2.086  92.270 -0.0350  0.1604  0.0350
 8668TIP3    H147495   1.245   2.075  92.327  0.2444 -1.4848  0.1351
 8668TIP3    H247496   1.369   2.003  92.278  0.3250  0.1167 -2.1535
 8669TIP3   OH247497   0.472   1.659  77.474  0.5045  0.1979 -0.7497
 8669TIP3    H147498   0.456   1.689  77.564  1.2592  1.7634 -1.0944
 8669TIP3    H247499   0.446   1.733  77.420  2.0986  0.1151 -1.6948
 8670TIP3   OH247500   2.354   0.773  48.017 -0.3293 -0.2021  0.4096
 8670TIP3    H147501   2.386   0.818  47.938  0.5297 -1.2591  0.1232
 8670TIP3    H247502   2.258   0.779  48.011 -0.3097 -0.9562 -1.1584
 8671TIP3   OH247503   2.098   1.211  24.126 -0.4374 -0.2770  0.0150
 8671TIP3    H147504   2.153   1.181  24.054 -0.0004  1.2183 -0.3077
 8671TIP3    H247505   2.009   1.209  24.090 -0.1808  0.8917 -0.7666
 8672TIP3   OH247506   2.574   1.487  11.334  0.2278 -0.4386 -0.1254
 8672TIP3    H147507   2.486   1.479  11.297  0.1085 -1.4806  0.3353
 8672TIP3    H247508   2.627   1.520  11.261 -0.5051  0.0472 -0.4573
 8673TIP3   OH247509   1.309   0.384  75.371 -0.1681 -0.6798 -0.3168
 8673TIP3    H147510   1.366   0.426  75.307  0.4066  2.0919  1.7752
 8673TIP3    H247511   1.246   0.335  75.320  0.6738  0.7989 -2.9385
 8674TIP3   OH247512   2.252   2.007   2.764 -0.0284  0.1174  0.4272
 8674TIP3    H147513   2.278   2.026   2.854  0.1633 -1.4999  0.7573
 8674TIP3    H247514   2.296   1.925   2.743  1.6779  1.5123 -1.9375
 8675TIP3   OH247515   2.627   1.817  32.507  0.0113  0.5646  0.1047
 8675TIP3    H147516   2.674   1.765  32.442 -1.1436  0.8199 -0.9634
 8675TIP3    H247517   2.626   1.905  32.470 -0.8673  0.6654  0.3564
 8676TIP3   OH247518   0.928   2.177  81.574 -0.6773 -0.9568  0.0126
 8676TIP3    H147519   0.928   2.140  81.485 -2.5504  0.0510 -0.4749
 8676TIP3    H247520   0.835   2.194  81.592 -0.3198 -1.0496  2.1461
 8677TIP3   OH247521   1.929   0.822  18.642 -0.3362  0.0737 -0.1845
 8677TIP3    H147522   1.923   0.905  18.690  1.1581  1.1170 -1.7005
 8677TIP3    H247523   1.942   0.847  18.551 -1.5947 -1.8606 -0.9676
 8678TIP3   OH247524   2.345   0.093  34.628  0.0004 -0.6797  0.0449
 8678TIP3    H147525   2.387   0.170  34.589  1.0058 -1.2236  0.0176
 8678TIP3    H247526   2.348   0.027  34.558 -0.0714 -1.0144  0.3581
 8679TIP3   OH247527   0.492   2.277  96.795 -0.2179 -0.3419  0.3801
 8679TIP3    H147528   0.404   2.295  96.761 -0.3784  0.1651  1.0583
 8679TIP3    H247529   0.543   2.354  96.772  0.0502 -0.6248  0.0101
 8680TIP3   OH247530   1.939   2.256  92.418  0.1451  0.0016  0.1554
 8680TIP3    H147531   1.891   2.179  92.387  0.6408 -0.8617  1.4140
 8680TIP3    H247532   1.871   2.315  92.450 -0.2121 -0.1740 -0.2730
 8681TIP3   OH247533   1.400   1.614  10.752  0.4175 -0.3297 -0.0560
 8681TIP3    H147534   1.368   1.531  10.718 -3.2121  0.3381  1.3148
 8681TIP3    H247535   1.416   1.598  10.845  1.0530  0.1922 -0.0645
 8682TIP3   OH247536   1.673   2.494  27.341 -0.2705  0.1943  0.2296
 8682TIP3    H147537   1.624   2.411  27.341 -0.8828  0.5557  0.7400
 8682TIP3    H247538   1.606   2.562  27.346  0.2153  0.7410 -0.4717
 8683TIP3   OH247539   2.591   0.735  75.472 -0.0681 -0.0127 -0.2090
 8683TIP3    H147540   2.528   0.803  75.451  0.8283 -0.0927 -3.6580
 8683TIP3    H247541   2.553   0.655  75.437  1.7498 -0.0787 -2.2811
 8684TIP3   OH247542   0.579   0.014  78.567 -0.1901 -0.0478 -0.0824
 8684TIP3    H147543   0.642   0.083  78.592 -0.5642 -0.2846  1.5719
 8684TIP3    H247544   0.511   0.061  78.519  0.7370  0.3522 -1.0780
 8685TIP3   OH247545   0.241   0.752  83.623  0.1196  0.0090  0.2656
 8685TIP3    H147546   0.312   0.758  83.687  0.9370  0.7280 -0.6944
 8685TIP3    H247547   0.281   0.715  83.545 -0.4642  0.7743 -0.4158
 8686TIP3   OH247548   0.621   1.754 102.569 -0.5200  0.3766 -0.1218
 8686TIP3    H147549   0.628   1.678 102.512 -0.3782  1.5217 -1.6885
 8686TIP3    H247550   0.590   1.825 102.512 -1.9296  1.2025  1.5648
 8687TIP3   OH247551   1.685   0.599  31.710 -0.0370  1.0425  0.0175
 8687TIP3    H147552   1.591   0.604  31.727 -0.4857 -1.9736 -0.9139
 8687TIP3    H247553   1.716   0.532  31.771  1.5042  1.8589  0.1733
 8688TIP3   OH247554   2.490   2.357  31.544  0.2594 -0.0207 -0.3506
 8688TIP3    H147555   2.414   2.385  31.595  0.2969  1.1051 -0.8748
 8688TIP3    H247556   2.456   2.288  31.487 -0.1354 -0.2179  0.1147
 8689TIP3   OH247557   0.525   0.652  12.637  0.5003  0.3069  0.4070
 8689TIP3    H147558   0.453   0.701  12.678  0.4214  0.9777 -0.4978
 8689TIP3    H247559   0.529   0.686  12.547  1.3620 -0.3682  0.1775
 8690TIP3   OH247560   0.867   0.413  73.798 -0.3896 -0.2070  0.5346
 8690TIP3    H147561   0.854   0.508  73.795  1.0480  0.0154  0.3513
 8690TIP3    H247562   0.907   0.392  73.714 -0.9632 -1.0264  0.4600
 8691TIP3   OH247563   2.126   0.190  73.454 -0.3118 -0.5309  0.0700
 8691TIP3    H147564   2.140   0.183  73.359 -0.2058  0.7006 -0.0200
 8691TIP3    H247565   2.074   0.113  73.476 -2.0577  0.1738 -1.3445
 8692TIP3   OH247566   0.619   2.315  91.066 -0.0956  0.0831  0.0972
 8692TIP3    H147567   0.635   2.246  91.002  1.8651 -0.8844  1.5218
 8692TIP3    H247568   0.536   2.291  91.108  0.1765 -1.0137  0.0402
 8693TIP3   OH247569   0.703   1.243  18.619  0.2692  0.1798  0.1571
 8693TIP3    H147570   0.768   1.173  18.620  1.5150  1.3081  0.4908
 8693TIP3    H247571   0.741   1.311  18.562 -0.8626  0.6315 -0.0871
 8694TIP3   OH247572   1.595   1.139  97.020  0.3574 -0.2183 -0.4596
 8694TIP3    H147573   1.668   1.201  97.016 -1.6900  2.4492  0.2484
 8694TIP3    H247574   1.586   1.119  97.113 -0.9515  1.0788 -0.2618
 8695TIP3   OH247575   2.391   1.153  91.764 -0.7080  0.1486 -0.4014
 8695TIP3    H147576   2.407   1.238  91.803  2.0747  0.0190 -1.0558
 8695TIP3    H247577   2.378   1.171  91.671 -0.2375 -0.0990 -0.5215
 8696TIP3   OH247578   2.250   0.021  36.366 -0.2836  0.5353  0.1523
 8696TIP3    H147579   2.310   0.087  36.399 -1.5759  0.3055  3.3156
 8696TIP3    H247580   2.164   0.048  36.397 -1.2880 -1.0922 -1.0164
 8697TIP3   OH247581   1.449   0.731  36.876 -0.2202 -0.0291  0.0476
 8697TIP3    H147582   1.417   0.646  36.848 -2.0419  0.2113  1.2377
 8697TIP3    H247583   1.476   0.718  36.967  1.0206  0.3254 -0.2412
 8698TIP3   OH247584   2.317   0.651   6.674 -0.6255  0.0764 -0.0337
 8698TIP3    H147585   2.357   0.599   6.605 -1.1372 -0.5281  0.1161
 8698TIP3    H247586   2.223   0.643   6.659 -0.7792 -0.6365  1.1205
 8699TIP3   OH247587   2.463   1.647 110.078  0.5961 -0.2396 -0.4742
 8699TIP3    H147588   2.426   1.568 110.118 -1.9452 -0.0320 -2.1532
 8699TIP3    H247589   2.448   1.716 110.143 -1.0675 -0.3940 -0.6448
 8700TIP3   OH247590   2.037   1.203  32.631  0.1360  0.1974  0.0367
 8700TIP3    H147591   2.078   1.288  32.613 -1.8158  1.3626  0.7671
 8700TIP3    H247592   2.107   1.139  32.616  1.4428  1.8415 -1.3628
 8701TIP3   OH247593   2.216   2.315  87.161  0.0413  0.3310 -0.3352
 8701TIP3    H147594   2.221   2.354  87.074  1.0290 -0.7438 -0.7794
 8701TIP3    H247595   2.253   2.228  87.151  0.7240  0.3943  1.2908
 8702TIP3   OH247596   2.202   2.500  19.376 -0.2975  0.1914 -0.3636
 8702TIP3    H147597   2.139   2.480  19.445 -0.3297 -0.7686 -0.6563
 8702TIP3    H247598   2.156   2.480  19.295  0.0855  0.3461 -0.6214
 8703TIP3   OH247599   0.321   1.328  36.781  0.5537  0.1412 -0.2314
 8703TIP3    H147600   0.259   1.397  36.807 -0.2520  0.5033 -2.8111
 8703TIP3    H247601   0.268   1.249  36.777  0.6157  0.1204 -0.7868
 8704TIP3   OH247602   2.672   2.122   6.908 -0.2704 -0.3107  0.0738
 8704TIP3    H147603   2.753   2.161   6.940  0.8630 -1.0229 -1.7629
 8704TIP3    H247604   2.660   2.160   6.821 -1.5388 -0.7328  0.0538
 8705TIP3   OH247605   0.269   1.753 100.708  0.2054 -0.6965  0.2330
 8705TIP3    H147606   0.197   1.804 100.670 -0.3659 -1.4008  0.3471
 8705TIP3    H247607   0.317   1.817 100.761 -0.1688 -0.1503 -0.0642
 8706TIP3   OH247608   1.471   0.821  25.212 -0.1753 -0.0551 -0.2091
 8706TIP3    H147609   1.388   0.868  25.223  0.5647  0.9893  1.4519
 8706TIP3    H247610   1.538   0.890  25.215  0.9091 -1.0964  1.4501
 8707TIP3   OH247611   0.165   1.538  23.953  0.5395 -0.0399  0.0939
 8707TIP3    H147612   0.122   1.622  23.944 -0.4705 -0.6011 -0.4444
 8707TIP3    H247613   0.229   1.536  23.881  0.5389  0.2492  0.0859
 8708TIP3   OH247614   1.882   0.833  82.315 -0.1649 -0.4073 -0.1320
 8708TIP3    H147615   1.807   0.892  82.323 -0.8343 -1.1090 -0.9694
 8708TIP3    H247616   1.866   0.765  82.380  0.1199 -0.1729  0.1837
 8709TIP3   OH247617   1.179   0.654 102.146  0.3042  0.3051 -0.2251
 8709TIP3    H147618   1.091   0.668 102.182  0.5652 -2.4055  1.8858
 8709TIP3    H247619   1.167   0.586 102.079  0.7921 -0.5733  0.5464
 8710TIP3   OH247620   0.993   2.569 104.550  0.1394 -0.0931  0.1114
 8710TIP3    H147621   1.004   2.546 104.642  2.1337  0.2798  0.0232
 8710TIP3    H247622   1.028   2.494 104.503  1.3734  0.6917 -0.2733
 8711TIP3   OH247623   1.079   0.835  17.464 -0.3599 -0.1481  0.0339
 8711TIP3    H147624   1.067   0.772  17.535 -0.3371  0.4438  0.5842
 8711TIP3    H247625   1.132   0.789  17.399  1.1751 -0.1441  1.2072
 8712TIP3   OH247626   1.305   0.068  75.865 -0.3086  0.5871  0.0848
 8712TIP3    H147627   1.320   0.115  75.783 -2.0436  1.1876  0.0712
 8712TIP3    H247628   1.383   0.014  75.877  1.0322  2.2652 -0.7335
 8713TIP3   OH247629   2.241   2.552   8.588  0.0372 -0.3332 -0.0614
 8713TIP3    H147630   2.277   2.583   8.505  1.4760 -0.1398  0.6007
 8713TIP3    H247631   2.282   2.608   8.654 -3.2232  1.4792  0.6568
 8714TIP3   OH247632   1.717   2.657  29.019 -0.1208  0.5481  0.0179
 8714TIP3    H147633   1.716   2.567  29.052 -1.3540  0.5344 -0.0072
 8714TIP3    H247634   1.628   2.672  28.989  0.9222  0.4824 -3.5462
 8715TIP3   OH247635   2.570   1.787  16.840  0.4463  0.7022  0.0780
 8715TIP3    H147636   2.561   1.708  16.786  2.0430  1.1388 -0.9050
 8715TIP3    H247637   2.588   1.754  16.928  1.6041 -0.0664 -0.4167
 8716TIP3   OH247638   0.325   2.549  43.255  0.3621  0.0276 -0.4327
 8716TIP3    H147639   0.296   2.564  43.345  0.3364 -1.8981 -0.0795
 8716TIP3    H247640   0.286   2.621  43.205 -0.1840  0.7513  0.9744
 8717TIP3   OH247641   1.988   0.218 101.239  0.2275 -0.3356  0.5038
 8717TIP3    H147642   2.069   0.196 101.285  0.6477 -0.0074 -0.0692
 8717TIP3    H247643   1.987   0.159 101.163 -1.1366 -1.8262  1.6153
 8718TIP3   OH247644   1.032   2.568 110.826  0.5368  0.0444  0.1446
 8718TIP3    H147645   0.938   2.587 110.828  0.2150 -1.3127 -0.6283
 8718TIP3    H247646   1.037   2.476 110.799  2.0727 -0.0496  0.6691
 8719TIP3   OH247647   2.212   2.378  35.311 -0.4700 -0.6262 -0.2238
 8719TIP3    H147648   2.293   2.402  35.265 -0.4659  0.5945  0.3812
 8719TIP3    H247649   2.142   2.411  35.256 -0.4758  0.4830  0.4285
 8720TIP3   OH247650   0.075   2.636  11.127  0.0822 -0.0222  0.3703
 8720TIP3    H147651   0.064   2.624  11.032  0.5306  1.0865  0.1613
 8720TIP3    H247652   0.124   2.558  11.155 -1.3141 -1.0821 -0.0330
 8721TIP3   OH247653   2.104   2.207   1.927  0.2355  0.3071 -0.2629
 8721TIP3    H147654   2.097   2.282   1.985 -1.6440  0.5546 -0.7504
 8721TIP3    H247655   2.093   2.131   1.985 -1.6147  0.5511 -0.2496
 8722TIP3   OH247656   2.454   0.565 108.882 -0.4743  0.0512 -0.0196
 8722TIP3    H147657   2.372   0.536 108.923 -1.3172 -1.5765 -2.6449
 8722TIP3    H247658   2.436   0.655 108.855 -1.1890 -0.0786 -0.0041
 8723TIP3   OH247659   0.940   0.464 100.683  0.4050  0.2252 -0.5377
 8723TIP3    H147660   0.936   0.385 100.629  2.7955 -0.0119 -0.5061
 8723TIP3    H247661   0.991   0.526 100.630  1.1601  0.6570  0.6543
 8724TIP3   OH247662   0.800   1.274  17.006  0.0356 -0.5173 -0.6034
 8724TIP3    H147663   0.870   1.334  16.978  0.2133 -0.4342  0.0072
 8724TIP3    H247664   0.846   1.200  17.045 -0.2272  0.0793  0.8874
 8725TIP3   OH247665   1.142   1.816  94.356  0.1488 -0.3421  0.3333
 8725TIP3    H147666   1.157   1.722  94.341 -0.1477 -0.3397  0.0144
 8725TIP3    H247667   1.226   1.857  94.335  0.7371 -0.6716  1.8679
 8726TIP3   OH247668   0.137   1.747 111.245 -0.3604  0.1249  0.0584
 8726TIP3    H147669   0.165   1.671 111.297  0.9942  0.4797 -0.1149
 8726TIP3    H247670   0.074   1.711 111.182  0.5218 -0.9271 -0.2437
 8727TIP3   OH247671   1.502   0.834   1.499  0.1153 -0.1466  0.0043
 8727TIP3    H147672   1.425   0.776   1.499 -0.7497  0.9347  1.1193
 8727TIP3    H247673   1.515   0.857   1.408 -0.5009 -0.8428 -0.2727
 8728TIP3   OH247674   0.419   2.521   3.909  0.0173  0.0582  0.2605
 8728TIP3    H147675   0.330   2.496   3.935 -0.7707  2.7658  0.4875
 8728TIP3    H247676   0.458   2.556   3.988  1.3273 -1.1108  0.1542
 8729TIP3   OH247677   1.162   1.064  88.410 -0.4014  0.1531 -0.0920
 8729TIP3    H147678   1.240   1.117  88.428 -0.6284  0.4774 -0.0468
 8729TIP3    H247679   1.176   1.032  88.321 -0.5993  0.9054 -0.4055
 8730TIP3   OH247680   2.404   2.348   4.664  0.1313  0.1449  0.2583
 8730TIP3    H147681   2.423   2.388   4.749 -0.6150 -0.5675  0.7722
 8730TIP3    H247682   2.417   2.419   4.601 -0.3920  0.9961  1.0794
 8731TIP3   OH247683   1.919   2.434  31.145 -0.1712  0.4080 -0.2636
 8731TIP3    H147684   2.000   2.411  31.190 -0.4491  1.4334  0.7964
 8731TIP3    H247685   1.939   2.514  31.098 -1.1257  1.9377  1.7896
 8732TIP3   OH247686   2.673   0.673  28.307 -0.0334 -0.2543 -0.2806
 8732TIP3    H147687   2.689   0.589  28.264  0.9908 -0.4607  0.4456
 8732TIP3    H247688   2.668   0.651  28.400 -0.3100  0.4187 -0.1371
 8733TIP3   OH247689   0.999   2.114 106.972 -0.8496 -0.0189 -0.6499
 8733TIP3    H147690   0.972   2.130 106.881  0.7996 -0.9538 -1.3565
 8733TIP3    H247691   1.063   2.182 106.990 -1.5336  0.4595  0.0014
 8734TIP3   OH247692   1.578   0.916  53.651  0.0664 -0.1812 -0.4088
 8734TIP3    H147693   1.639   0.951  53.587  1.0227 -0.0065  0.5809
 8734TIP3    H247694   1.499   0.970  53.641 -0.3448 -1.0812 -2.4103
 8735TIP3   OH247695   0.990   0.944  20.086 -0.0955  0.1187  0.1312
 8735TIP3    H147696   1.026   0.899  20.162 -0.6688 -0.2946  0.1668
 8735TIP3    H247697   0.905   0.902  20.072  0.1893 -0.0995 -1.0014
 8736TIP3   OH247698   1.516   0.563  99.117  0.3814 -0.0484 -0.1572
 8736TIP3    H147699   1.488   0.471  99.108  1.0429 -0.1136 -1.8329
 8736TIP3    H247700   1.598   0.558  99.166  0.8314 -0.4370 -0.9325
 8737TIP3   OH247701   2.212   1.874  29.680 -0.0444  0.3414  0.0045
 8737TIP3    H147702   2.166   1.955  29.704 -0.7615 -0.2768  0.7494
 8737TIP3    H247703   2.148   1.824  29.630  1.2611  1.3944 -2.9726
 8738TIP3   OH247704   2.345   2.589 108.630 -0.2630 -0.1419 -0.4854
 8738TIP3    H147705   2.257   2.612 108.600  0.0840 -0.4688 -1.8121
 8738TIP3    H247706   2.342   2.494 108.642  0.0610 -0.2410 -1.1202
 8739TIP3   OH247707   2.202   2.126  83.889 -0.4437 -0.1803  0.4491
 8739TIP3    H147708   2.198   2.074  83.809 -1.4328  0.5699 -0.0070
 8739TIP3    H247709   2.118   2.111  83.932 -1.2501  1.8977 -0.2607
 8740TIP3   OH247710   0.469   2.290  19.221  0.2584 -0.1705 -0.3379
 8740TIP3    H147711   0.560   2.297  19.193  0.6163  1.9209  1.0411
 8740TIP3    H247712   0.458   2.199  19.247  2.3115 -0.2490  0.4553
 8741TIP3   OH247713   1.710   2.370  41.956 -0.0410 -0.1671  0.5453
 8741TIP3    H147714   1.760   2.313  41.898 -0.7466 -0.6199  0.3671
 8741TIP3    H247715   1.650   2.417  41.898  0.9257  1.2096  0.6135
 8742TIP3   OH247716   2.275   1.562  84.240 -0.0165  0.6479 -0.0150
 8742TIP3    H147717   2.293   1.653  84.219 -1.2180  0.7340 -0.8058
 8742TIP3    H247718   2.261   1.520  84.155 -1.7359  0.2596  0.4055
 8743TIP3   OH247719   0.281   0.583 102.960 -0.0919 -0.0634 -0.1254
 8743TIP3    H147720   0.356   0.528 102.980 -2.4952 -3.0950  1.4412
 8743TIP3    H247721   0.228   0.531 102.901 -0.9338  2.0876 -1.3994
 8744TIP3   OH247722   0.176   0.332  31.177  0.3414  0.1607 -0.4913
 8744TIP3    H147723   0.268   0.305  31.177  0.6242  1.0705 -0.7574
 8744TIP3    H247724   0.127   0.250  31.178  1.1561 -0.3436 -0.5636
 8745TIP3   OH247725   1.520   1.713 106.692  0.1584  0.1334 -0.0161
 8745TIP3    H147726   1.584   1.735 106.759  0.9309 -0.1550 -0.6333
 8745TIP3    H247727   1.534   1.621 106.674  0.2397  0.2956 -0.8517
 8746TIP3   OH247728   1.262   0.184  31.083  0.0667  0.0845 -0.4456
 8746TIP3    H147729   1.281   0.277  31.097 -1.5963  0.4190 -0.1010
 8746TIP3    H247730   1.302   0.140  31.157  2.1663  0.3123 -1.3836
 8747TIP3   OH247731   1.522   1.317  76.818 -0.1274 -0.2192  0.2711
 8747TIP3    H147732   1.428   1.323  76.835 -0.5618 -2.0828 -1.0604
 8747TIP3    H247733   1.536   1.375  76.743 -0.6060 -1.2405 -0.6474
 8748TIP3   OH247734   0.979   1.250  35.067  0.2979  0.3247 -0.6367
 8748TIP3    H147735   1.052   1.190  35.050  1.4397  0.9490  1.6523
 8748TIP3    H247736   1.020   1.333  35.091 -1.1461  0.7925  0.4096
 8749TIP3   OH247737   1.487   2.175 103.549  0.5394 -0.7571 -0.3403
 8749TIP3    H147738   1.497   2.205 103.459 -1.9504  0.6279 -0.2476
 8749TIP3    H247739   1.575   2.182 103.588  0.7446  4.0317 -1.0940
 8750TIP3   OH247740   1.259   2.501   0.861  0.3113 -0.0722  0.1454
 8750TIP3    H147741   1.267   2.469   0.951 -1.1101 -0.1103  0.2842
 8750TIP3    H247742   1.176   2.549   0.861  1.5078  2.1316 -0.4954
 8751TIP3   OH247743   0.518   1.565  34.659  0.0793 -0.3829 -0.4429
 8751TIP3    H147744   0.495   1.539  34.748  0.1152 -0.4664 -0.4594
 8751TIP3    H247745   0.434   1.577  34.615  0.0600 -0.2356 -0.3683
 8752TIP3   OH247746   0.951   2.013 108.310 -0.0622  0.0067  0.2884
 8752TIP3    H147747   1.008   2.087 108.331 -0.3541 -0.2697  2.2570
 8752TIP3    H247748   1.010   1.948 108.270  0.3720  0.9080 -0.5856
 8753TIP3   OH247749   1.846   2.314  88.159 -0.1400 -0.1317 -0.0061
 8753TIP3    H147750   1.771   2.312  88.100 -0.4585  2.2856  0.2250
 8753TIP3    H247751   1.809   2.306  88.246 -0.1175  0.6759  0.0870
 8754TIP3   OH247752   2.464   0.300  18.267  0.0410 -0.2420  0.1006
 8754TIP3    H147753   2.378   0.272  18.237  1.2116 -0.9345 -3.0477
 8754TIP3    H247754   2.487   0.239  18.337 -1.7949 -0.3056  0.6870
 8755TIP3   OH247755   1.165   0.069  25.852  0.1589 -0.3982 -0.2214
 8755TIP3    H147756   1.198   0.009  25.786  1.8114 -0.0857  0.2869
 8755TIP3    H247757   1.097   0.120  25.807  0.5635 -0.8610 -1.3773
 8756TIP3   OH247758   2.111   2.573  77.870  0.4345 -0.6915 -0.5883
 8756TIP3    H147759   2.129   2.667  77.882 -2.4747 -0.2861  2.1099
 8756TIP3    H247760   2.191   2.529  77.897  1.6147  0.9881 -1.2100
 8757TIP3   OH247761   1.512   2.318  88.926 -0.2035 -0.1987 -0.0402
 8757TIP3    H147762   1.419   2.312  88.904 -0.2388  0.2039 -0.0058
 8757TIP3    H247763   1.542   2.227  88.926 -0.9029 -0.4475  1.2702
 8758TIP3   OH247764   1.499   0.869  81.548  0.4220  0.4020  0.1337
 8758TIP3    H147765   1.455   0.843  81.467  1.6631  1.5814 -0.9671
 8758TIP3    H247766   1.589   0.838  81.537  0.2352 -0.9499  1.8505
 8759TIP3   OH247767   0.039   2.221  91.128  0.5938 -0.0980 -0.2142
 8759TIP3    H147768   0.079   2.306  91.149 -2.8868  1.6885 -0.1254
 8759TIP3    H247769   0.032   2.222  91.032 -0.1969  0.1181 -0.1601
 8760TIP3   OH247770   2.470   0.741  82.619  0.1743  0.0757 -0.0885
 8760TIP3    H147771   2.527   0.694  82.680  1.0127  1.3288  0.1540
 8760TIP3    H247772   2.525   0.755  82.542 -0.5103 -0.5193 -0.6897
 8761TIP3   OH247773   1.113   0.239 101.054 -0.2736 -0.3012  0.1980
 8761TIP3    H147774   1.195   0.247 101.103  0.1419  1.0632 -0.6595
 8761TIP3    H247775   1.113   0.314 100.994 -1.1505 -1.4364 -1.3044
 8762TIP3   OH247776   1.730   0.611  95.908  0.4040  0.1368  0.0675
 8762TIP3    H147777   1.649   0.595  95.861  0.8724  0.6592 -0.9515
 8762TIP3    H247778   1.737   0.706  95.912  0.2272  0.1122  1.4891
 8763TIP3   OH247779   2.064   0.706   3.821  0.4943 -0.2400 -0.1159
 8763TIP3    H147780   1.972   0.683   3.828  0.8866 -2.0833 -0.5458
 8763TIP3    H247781   2.099   0.648   3.753  2.1937 -0.3297  0.7771
 8764TIP3   OH247782   0.030   0.648  83.291 -0.1675 -0.2758  0.2557
 8764TIP3    H147783   0.022   0.744  83.292 -1.4532 -0.3711  1.3999
 8764TIP3    H247784  -0.032   0.620  83.224 -1.3613 -0.3912  1.3632
 8765TIP3   OH247785   2.002   0.151  37.587 -0.0020 -0.1784 -0.0925
 8765TIP3    H147786   1.999   0.244  37.612  2.6535  0.1349 -0.6191
 8765TIP3    H247787   1.935   0.109  37.641 -0.6696  1.9051  0.8010
 8766TIP3   OH247788   0.145   2.167 105.632  0.3009  0.3198 -0.3287
 8766TIP3    H147789   0.192   2.198 105.710 -0.4236 -1.2091  0.7875
 8766TIP3    H247790   0.108   2.246 105.593  0.0994  1.0702  1.3077
 8767TIP3   OH247791   1.804   0.182  16.402 -0.4168  0.1208 -0.2438
 8767TIP3    H147792   1.762   0.263  16.373  0.2668  0.4709 -0.2945
 8767TIP3    H247793   1.891   0.185  16.362  0.4903  0.5202  1.6629
 8768TIP3   OH247794   1.244   0.573 111.971 -0.1983  0.0589  0.1695
 8768TIP3    H147795   1.272   0.485 111.945 -1.2270 -0.5289  0.9822
 8768TIP3    H247796   1.266   0.629 111.897  0.0577 -0.9605 -0.5378
 8769TIP3   OH247797   0.276   0.005  26.240  0.0511 -0.2756 -0.0435
 8769TIP3    H147798   0.333   0.074  26.273  0.5203 -0.4483 -0.4793
 8769TIP3    H247799   0.330  -0.043  26.177 -0.5308 -0.5317 -0.3572
 8770TIP3   OH247800   2.279   2.607  25.403  0.5459  0.2723 -0.1338
 8770TIP3    H147801   2.291   2.649  25.488 -0.1820 -1.4102  0.8575
 8770TIP3    H247802   2.224   2.531  25.422 -2.5013  1.6405 -2.6064
 8771TIP3   OH247803   1.223   1.189  18.336  0.1558  0.1641  0.4002
 8771TIP3    H147804   1.236   1.095  18.341 -1.0190  0.0377  1.8970
 8771TIP3    H247805   1.128   1.200  18.324  0.4387  1.1447 -1.2246
 8772TIP3   OH247806   2.454   0.695  95.522 -0.1206  0.3016 -0.2926
 8772TIP3    H147807   2.382   0.710  95.583  0.8299  0.4834  0.8283
 8772TIP3    H247808   2.431   0.745  95.444 -0.8975  0.8801  0.2926
 8773TIP3   OH247809   0.518   1.062  90.780  0.7770  0.2303 -0.4701
 8773TIP3    H147810   0.574   1.116  90.725  0.2681 -0.0600 -1.2937
 8773TIP3    H247811   0.537   0.972  90.754  0.4311  0.0938 -0.2724
 8774TIP3   OH247812   2.551   1.776  11.036 -0.3603  0.2324 -0.1853
 8774TIP3    H147813   2.540   1.749  10.945 -1.8807 -0.0479  0.0425
 8774TIP3    H247814   2.542   1.871  11.035 -1.9544  0.1065 -0.1643
 8775TIP3   OH247815   0.717   1.140  12.490 -0.1981 -0.2587 -0.6534
 8775TIP3    H147816   0.629   1.170  12.512  0.0340 -0.4277  0.5679
 8775TIP3    H247817   0.772   1.218  12.497  0.1083 -0.5862  0.7744
 8776TIP3   OH247818   1.255   2.631   6.208 -0.2502  0.7353  0.2013
 8776TIP3    H147819   1.329   2.588   6.249 -1.2531 -0.7374  0.5499
 8776TIP3    H247820   1.193   2.560   6.189 -2.1026  2.0207  1.0873
 8777TIP3   OH247821   1.661   1.508  94.560  0.0795  0.0501  0.0893
 8777TIP3    H147822   1.654   1.462  94.644  0.4866  0.1762  0.1937
 8777TIP3    H247823   1.752   1.538  94.557 -0.4159  1.7148  0.4792
 8778TIP3   OH247824   2.607   2.422 100.377 -0.4819 -0.1059  0.2911
 8778TIP3    H147825   2.622   2.379 100.462 -0.3975  1.5661  1.1770
 8778TIP3    H247826   2.525   2.385 100.345  0.3539 -2.0212  0.2526
 8779TIP3   OH247827   0.694   1.981  95.432 -0.3875  0.2255  0.1653
 8779TIP3    H147828   0.765   1.952  95.490  0.5641 -0.1058 -1.1161
 8779TIP3    H247829   0.689   2.076  95.447  0.5140  0.2964  0.0942
 8780TIP3   OH247830   1.221   2.310  86.378  0.0724  0.3100 -0.0234
 8780TIP3    H147831   1.219   2.349  86.290 -0.0798 -0.3921 -0.3332
 8780TIP3    H247832   1.215   2.385  86.437 -0.7177  0.7375 -0.6220
 8781TIP3   OH247833   0.335   0.219  99.055 -0.3707  0.6170  0.7062
 8781TIP3    H147834   0.381   0.164  98.992 -0.8620  1.0184 -0.0113
 8781TIP3    H247835   0.357   0.181  99.140 -0.3346 -0.4123  0.2507
 8782TIP3   OH247836   0.010   1.801 105.488 -0.0850 -0.0385 -0.2676
 8782TIP3    H147837   0.005   1.886 105.445 -1.7904  0.0837  0.1136
 8782TIP3    H247838   0.025   1.823 105.581 -0.7796 -0.1378 -0.1275
 8783TIP3   OH247839   1.967   0.497 108.925  0.3871  0.0463 -0.3103
 8783TIP3    H147840   1.969   0.593 108.924 -0.0430  0.0697 -1.8595
 8783TIP3    H247841   1.876   0.475 108.945  0.5716 -0.0682  0.4677
 8784TIP3   OH247842   0.667   2.171  30.220  0.1385 -0.4366  0.1079
 8784TIP3    H147843   0.753   2.208  30.200 -0.2743  0.0102 -0.9266
 8784TIP3    H247844   0.657   2.182  30.314  1.8314 -1.8448  0.4990
 8785TIP3   OH247845   0.775   0.394  95.631 -0.5825 -0.1845 -0.4768
 8785TIP3    H147846   0.776   0.342  95.711 -0.3298  1.0165  0.3410
 8785TIP3    H247847   0.687   0.382  95.595 -0.0848 -2.3144 -1.1374
 8786TIP3   OH247848   0.576   1.009  34.447 -0.2457 -0.2147  0.1315
 8786TIP3    H147849   0.597   1.097  34.479  0.5299 -0.7078  0.9995
 8786TIP3    H247850   0.615   1.006  34.359  1.4647 -0.3469  0.8538
 8787TIP3   OH247851   2.466   2.049  21.015  0.0945  0.6308  0.0734
 8787TIP3    H147852   2.467   1.971  20.960 -1.4784  0.3962  0.3228
 8787TIP3    H247853   2.492   2.017  21.102 -0.2068  0.4439  0.0965
 8788TIP3   OH247854   0.524   2.590   6.541  0.0606 -0.2787 -0.2024
 8788TIP3    H147855   0.519   2.494   6.547 -1.4123 -0.2107 -0.0198
 8788TIP3    H247856   0.532   2.607   6.447 -0.9389 -0.5586 -0.3518
 8789TIP3   OH247857   1.205   1.772 100.494 -0.1148 -0.3827 -0.4191
 8789TIP3    H147858   1.223   1.687 100.535 -1.2240 -0.2046  0.4799
 8789TIP3    H247859   1.287   1.795 100.451  0.8735 -0.9592  1.0434
 8790TIP3   OH247860   1.164   2.003  74.261 -0.2538 -0.4245 -0.0284
 8790TIP3    H147861   1.173   1.986  74.355 -0.4767  1.1345  0.2975
 8790TIP3    H247862   1.250   2.034  74.234 -0.6069  0.6303  0.0077
 8791TIP3   OH247863   0.316   0.886  19.153  0.0950 -0.1151 -0.0544
 8791TIP3    H147864   0.243   0.823  19.149  0.7318 -0.7819 -2.3034
 8791TIP3    H247865   0.310   0.922  19.242 -2.7205 -0.4318 -0.0099
 8792TIP3   OH247866   2.618   0.486  30.451  0.0377 -0.1950 -0.4299
 8792TIP3    H147867   2.665   0.462  30.531  0.8365 -1.3894 -1.2083
 8792TIP3    H247868   2.541   0.429  30.451  1.3377 -2.1019 -1.7022
 8793TIP3   OH247869   1.537   2.643 107.748  0.2083 -0.2332 -0.1418
 8793TIP3    H147870   1.604   2.575 107.750  0.5565  0.1162  0.3746
 8793TIP3    H247871   1.524   2.665 107.840  0.3629  0.6552 -0.3254
 8794TIP3   OH247872   0.553   1.863  11.884  0.0773 -0.2315 -0.6515
 8794TIP3    H147873   0.505   1.933  11.840 -0.4939  0.2690  0.7234
 8794TIP3    H247874   0.645   1.885  11.869 -0.0628  1.3759  0.5557
 8795TIP3   OH247875   1.749   0.311  97.685 -0.2958  0.4005  0.1596
 8795TIP3    H147876   1.835   0.280  97.713 -0.2051  0.3344 -0.1780
 8795TIP3    H247877   1.767   0.362  97.606 -0.6591 -0.3689 -0.4306
 8796TIP3   OH247878   1.401   2.117   2.491 -0.3984 -0.5938  0.4306
 8796TIP3    H147879   1.331   2.062   2.526 -0.5708 -1.2657 -0.8891
 8796TIP3    H247880   1.375   2.132   2.400  0.7224 -0.0867  0.1824
 8797TIP3   OH247881   0.540   1.799  31.108 -0.2835 -0.2653 -0.0842
 8797TIP3    H147882   0.564   1.718  31.064  0.7298 -0.3698  0.6076
 8797TIP3    H247883   0.455   1.781  31.148 -0.5296 -0.6462 -0.7653
 8798TIP3   OH247884   1.881   2.212  18.227 -0.2529 -0.8023  0.3466
 8798TIP3    H147885   1.926   2.279  18.174  0.7629 -1.5761  0.2063
 8798TIP3    H247886   1.811   2.260  18.270  1.1994  0.6664  1.2233
 8799TIP3   OH247887   1.208   0.172  33.311  0.3054  0.2113 -0.7716
 8799TIP3    H147888   1.139   0.180  33.377  0.2649  0.7844 -0.8827
 8799TIP3    H247889   1.289   0.165  33.362  0.1374 -0.9319 -0.6238
 8800TIP3   OH247890   0.157   1.372 100.738 -0.4046 -0.4389 -0.1495
 8800TIP3    H147891   0.252   1.367 100.721 -0.3768  0.6394 -0.3954
 8800TIP3    H247892   0.118   1.382 100.651 -0.8163 -1.6792 -0.1188
 8801TIP3   OH247893   1.675   1.855   2.233 -0.4529 -0.0637  0.0298
 8801TIP3    H147894   1.660   1.948   2.216 -0.5839  0.2072  1.5147
 8801TIP3    H247895   1.732   1.853   2.310  1.2997 -1.2061 -1.2238
 8802TIP3   OH247896   0.172   0.315 104.873  0.5611 -0.2801 -0.3439
 8802TIP3    H147897   0.255   0.291 104.915  0.7872 -2.0912 -1.7033
 8802TIP3    H247898   0.123   0.233 104.869 -1.1777  0.6779  0.0650
 8803TIP3   OH247899   0.857   0.440  36.358 -0.1519  0.3509 -0.5559
 8803TIP3    H147900   0.791   0.409  36.297  1.8479 -0.4117 -2.4830
 8803TIP3    H247901   0.828   0.528  36.383 -1.2567  0.5183 -2.2985
 8804TIP3   OH247902   1.020   1.944  25.793 -0.2348 -0.2466 -0.0597
 8804TIP3    H147903   0.960   2.000  25.743 -0.8224 -0.2345  0.6310
 8804TIP3    H247904   1.009   1.858  25.754 -0.8464 -0.2814  0.1684
 8805TIP3   OH247905   1.340   1.859  32.058  0.0336  0.2303 -0.1280
 8805TIP3    H147906   1.253   1.821  32.045  0.0541  0.8108 -2.1575
 8805TIP3    H247907   1.389   1.833  31.980  1.3617  0.8272  0.4894
 8806TIP3   OH247908   0.813   2.258 103.612 -0.4512  0.3843 -0.2651
 8806TIP3    H147909   0.876   2.196 103.651 -1.0039 -0.0232 -0.0086
 8806TIP3    H247910   0.852   2.281 103.528  0.1199  0.2620 -0.0381
 8807TIP3   OH247911   1.771   2.138  78.516 -0.2423  0.3975 -0.4386
 8807TIP3    H147912   1.854   2.113  78.557  0.6209  2.5774 -0.7098
 8807TIP3    H247913   1.706   2.079  78.554  1.3335 -1.0645  0.1323
 8808TIP3   OH247914   2.156   1.227  85.540 -0.0862 -0.0583  0.3815
 8808TIP3    H147915   2.102   1.268  85.608  0.1607  1.3667 -0.2644
 8808TIP3    H247916   2.146   1.133  85.556 -2.9709  0.1228  0.1324
 8809TIP3   OH247917   2.131   0.193  77.257  0.6034  0.3601  0.1918
 8809TIP3    H147918   2.099   0.276  77.293  2.1767  0.5134  1.3699
 8809TIP3    H247919   2.061   0.130  77.275  0.2022  1.0316  1.0285
 8810TIP3   OH247920   2.431   0.357   1.526 -0.0619 -0.0424 -0.4746
 8810TIP3    H147921   2.423   0.338   1.432  2.0664  1.2859 -0.9998
 8810TIP3    H247922   2.463   0.275   1.564  0.1052 -0.2772 -1.0994
 8811TIP3   OH247923   0.176   1.674  74.531 -0.3968 -0.3864 -0.3008
 8811TIP3    H147924   0.096   1.720  74.556  0.0003  0.1112  0.0720
 8811TIP3    H247925   0.172   1.669  74.435 -0.3191  0.6641 -0.3693
 8812TIP3   OH247926   1.402   2.043  74.682  0.8570 -0.3271 -0.8105
 8812TIP3    H147927   1.361   2.083  74.758  0.3817  0.0558 -1.2611
 8812TIP3    H247928   1.456   2.113  74.644  2.3137 -0.9466  0.0243
 8813TIP3   OH247929   0.344   0.263  34.381  0.4783  0.5272  0.1885
 8813TIP3    H147930   0.299   0.302  34.306 -0.3888 -0.5426  0.1322
 8813TIP3    H247931   0.384   0.183  34.347 -0.0022 -0.0215  0.8769
 8814TIP3   OH247932   2.656   1.997  31.577  0.0604  0.0891  0.1580
 8814TIP3    H147933   2.581   2.023  31.631 -0.2453 -0.5027  0.0252
 8814TIP3    H247934   2.731   2.039  31.619 -0.6107  2.7570 -1.1231
 8815TIP3   OH247935   1.850   0.620 112.155  0.4221 -0.4138  0.0132
 8815TIP3    H147936   1.923   0.680 112.166  0.8074 -0.9868  0.6326
 8815TIP3    H247937   1.779   0.659 112.206  0.3495  0.0373 -0.4258
 8816TIP3   OH247938   1.095   1.462  99.967  0.0321  0.3827 -0.0663
 8816TIP3    H147939   1.024   1.399  99.978 -0.6697  0.9416 -1.1992
 8816TIP3    H247940   1.132   1.472 100.055 -1.1782 -0.0521  0.5217
 8817TIP3   OH247941   0.780   2.510  27.525  0.3320  0.2060 -0.2057
 8817TIP3    H147942   0.836   2.435  27.546 -1.2487 -1.5003 -1.6969
 8817TIP3    H247943   0.721   2.516  27.601  0.0057 -0.5473 -0.3875
 8818TIP3   OH247944   2.258   1.732  63.307 -0.2550  0.4766 -0.1169
 8818TIP3    H147945   2.164   1.732  63.286 -0.1990  0.0978 -0.3689
 8818TIP3    H247946   2.297   1.791  63.243 -0.2514  0.2575 -0.3157
 8819TIP3   OH247947   1.591   0.989 108.169  0.0351 -0.1815 -0.1039
 8819TIP3    H147948   1.658   1.056 108.153 -0.7830  0.6078 -0.3104
 8819TIP3    H247949   1.589   0.979 108.264 -1.7736  2.1905  0.2184
 8820TIP3   OH247950   0.918   0.093  14.356 -0.0679  0.0079 -0.2058
 8820TIP3    H147951   0.992   0.033  14.367  0.2166  0.4379  0.2901
 8820TIP3    H247952   0.951   0.177  14.387 -0.5235  0.3829 -0.7101
 8821TIP3   OH247953   2.416   1.276  48.841 -0.2023 -0.2468 -0.0124
 8821TIP3    H147954   2.360   1.332  48.894 -0.9936  0.0759 -1.1416
 8821TIP3    H247955   2.493   1.329  48.823 -0.0346 -0.2738  0.5993
 8822TIP3   OH247956   0.027   0.831  74.364  0.0804  0.9093  0.2294
 8822TIP3    H147957   0.032   0.738  74.383  0.6820  1.2345  1.7732
 8822TIP3    H247958   0.000   0.872  74.446  0.7647  2.1902 -0.1470
 8823TIP3   OH247959   0.317   1.552 103.564  0.3202  0.7339 -0.2499
 8823TIP3    H147960   0.267   1.630 103.587 -0.1583  0.5362 -0.5816
 8823TIP3    H247961   0.276   1.482 103.616  0.0617  0.5195 -0.7297
 8824TIP3   OH247962   0.327   1.782  30.759 -0.1110 -0.0274 -0.6130
 8824TIP3    H147963   0.283   1.854  30.804 -0.5299 -0.2640 -0.6362
 8824TIP3    H247964   0.366   1.822  30.681  0.9171  0.4489  0.1368
 8825TIP3   OH247965   1.383   2.398  78.646 -0.2240 -0.4816 -0.2112
 8825TIP3    H147966   1.349   2.415  78.734  0.4594  1.5186 -0.2654
 8825TIP3    H247967   1.476   2.420  78.652 -0.1754 -0.2697 -1.4402
 8826TIP3   OH247968   0.392   1.965   9.444  0.0915  0.5074  0.1314
 8826TIP3    H147969   0.407   1.974   9.350  1.2809 -1.8097  0.0429
 8826TIP3    H247970   0.384   1.871   9.459  1.3436  0.7066  2.5566
 8827TIP3   OH247971   2.011   1.776  73.429  0.1977  0.2375  0.4466
 8827TIP3    H147972   2.075   1.746  73.365 -0.7786 -0.3546 -0.2886
 8827TIP3    H247973   2.023   1.871  73.431 -0.9450  0.5217 -2.0276
 8828TIP3   OH247974   0.006   1.424  16.319 -0.3352  0.2004 -0.0942
 8828TIP3    H147975  -0.036   1.391  16.399  1.0268 -0.1662  0.4940
 8828TIP3    H247976   0.061   1.496  16.349  1.7299 -1.2006 -0.3602
 8829TIP3   OH247977   1.443   0.340  77.776 -0.2510  0.7379  0.0703
 8829TIP3    H147978   1.419   0.384  77.695  1.2733 -1.6240 -1.8368
 8829TIP3    H247979   1.362   0.302  77.808 -0.6258  0.2907 -1.3249
 8830TIP3   OH247980   2.305   1.663  80.398 -0.3871  0.0004 -0.3839
 8830TIP3    H147981   2.251   1.585  80.404  1.9315 -1.6533  0.4874
 8830TIP3    H247982   2.291   1.709  80.481  1.9723 -2.2370  1.4230
 8831TIP3   OH247983   0.425   2.122  75.719 -0.0576 -0.1529  0.2608
 8831TIP3    H147984   0.508   2.147  75.761 -0.3206 -0.9184  1.2788
 8831TIP3    H247985   0.364   2.192  75.743  0.7803  1.6443 -2.3617
 8832TIP3   OH247986   0.494   0.928  21.516 -0.0525 -0.3161 -0.0415
 8832TIP3    H147987   0.535   0.963  21.437  0.1296 -0.1226  0.1391
 8832TIP3    H247988   0.427   0.993  21.540  0.5479  0.1105  0.5158
 8833TIP3   OH247989   2.279   2.162  96.037  0.2994 -0.8807  0.4610
 8833TIP3    H147990   2.319   2.087  95.994  0.3313 -0.7531  0.2602
 8833TIP3    H247991   2.345   2.192  96.099  1.8706  1.2160 -1.9779
 8834TIP3   OH247992   2.221   0.113  42.409 -0.7521  0.4817  0.2552
 8834TIP3    H147993   2.172   0.194  42.424 -1.2740  0.5429 -1.5336
 8834TIP3    H247994   2.159   0.056  42.362 -0.0005 -0.5113  0.4295
 8835TIP3   OH247995   0.816   1.346  78.435  0.2620 -0.8593 -0.4238
 8835TIP3    H147996   0.830   1.432  78.474 -2.8147 -0.7195  0.5812
 8835TIP3    H247997   0.736   1.355  78.384 -0.0799 -3.1140 -0.3869
 8836TIP3   OH247998   2.676   0.861   9.725 -0.0187 -0.0772  0.6009
 8836TIP3    H147999   2.728   0.784   9.702  2.0651  1.2381  0.6156
 8836TIP3    H248000   2.741   0.929   9.744 -1.7629  1.2612  2.1282
 8837TIP3   OH248001   2.664   0.885  26.653 -0.2604 -0.1810  0.4288
 8837TIP3    H148002   2.594   0.820  26.648 -2.0012  1.5983  0.3864
 8837TIP3    H248003   2.716   0.871  26.574 -0.3945 -1.6710  0.5643
 8838TIP3   OH248004   2.474   2.056 104.942 -0.5055 -0.0809  0.2710
 8838TIP3    H148005   2.489   2.053 105.037 -0.6114 -0.3638  0.2785
 8838TIP3    H248006   2.553   2.097 104.907 -0.8895  0.9372  0.5765
 8839TIP3   OH248007   0.844   0.911 102.279 -0.0184  0.3601 -0.1464
 8839TIP3    H148008   0.764   0.904 102.330 -0.6457 -4.4951 -1.3191
 8839TIP3    H248009   0.912   0.874 102.336  0.6618  1.1113 -0.4613
 8840TIP3   OH248010   0.829   1.022 108.123  0.2406 -0.1637  0.4676
 8840TIP3    H148011   0.873   1.104 108.100 -2.4764  1.1469 -0.4957
 8840TIP3    H248012   0.736   1.039 108.106 -0.6238 -2.9204  1.8398
 8841TIP3   OH248013   0.626   1.167  11.461 -0.1983 -0.0624  0.6881
 8841TIP3    H148014   0.663   1.252  11.484  0.6587 -0.2717  0.1033
 8841TIP3    H248015   0.641   1.113  11.538  1.4245 -0.3638  0.1872
 8842TIP3   OH248016   0.749   2.015 104.410  0.1054  0.3414 -0.0115
 8842TIP3    H148017   0.791   2.087 104.362  0.2358 -0.2687 -0.8491
 8842TIP3    H248018   0.689   1.976 104.346  1.6143 -1.6517 -0.3322
 8843TIP3   OH248019   1.347   1.636  37.653  0.2522 -0.0079  0.6250
 8843TIP3    H148020   1.396   1.717  37.643 -0.1800  0.4644  2.0366
 8843TIP3    H248021   1.408   1.567  37.627  0.8287  0.7251 -0.0041
 8844TIP3   OH248022   1.659   0.095  36.634  0.2519  0.4033  0.2088
 8844TIP3    H148023   1.596   0.167  36.639 -2.6340 -2.0364  2.6428
 8844TIP3    H248024   1.727   0.118  36.697  0.7745  2.0613 -0.8745
 8845TIP3   OH248025   1.611   1.929  98.599 -0.1647  0.1446 -0.6375
 8845TIP3    H148026   1.612   1.953  98.692  0.9048  0.3185 -0.6795
 8845TIP3    H248027   1.701   1.901  98.581 -0.5180 -0.4632 -1.4783
 8846TIP3   OH248028   0.155   0.410   7.954 -0.4786  0.5145 -0.2026
 8846TIP3    H148029   0.185   0.351   7.885 -1.1701  0.5181 -0.5051
 8846TIP3    H248030   0.208   0.387   8.030  0.2998  0.5175 -0.7322
 8847TIP3   OH248031   1.090   2.658   1.260 -0.3974 -0.6888  0.1801
 8847TIP3    H148032   1.133   2.578   1.228 -0.9886 -0.6501 -0.7475
 8847TIP3    H248033   1.110   2.723   1.193 -1.8518 -0.6547 -0.2359
 8848TIP3   OH248034   1.290   1.103  93.691 -0.3685 -0.5651 -0.2851
 8848TIP3    H148035   1.210   1.078  93.737  1.5628 -0.5243  3.4465
 8848TIP3    H248036   1.341   1.023  93.686  0.6339  0.0208  0.2718
 8849TIP3   OH248037   1.364   1.924   6.957  0.4579 -0.3389  0.4665
 8849TIP3    H148038   1.402   2.011   6.946  0.4257 -0.3758  0.0212
 8849TIP3    H248039   1.390   1.897   7.045 -0.9615  0.8025  1.2731
 8850TIP3   OH248040   0.421   1.847  11.542  0.3124  0.1978  0.3748
 8850TIP3    H148041   0.461   1.895  11.470  0.2388 -0.3935 -0.0692
 8850TIP3    H248042   0.404   1.913  11.609  0.6244  0.7081 -0.0450
 8851TIP3   OH248043   1.029   1.261  33.515 -0.2726 -0.4341  0.0356
 8851TIP3    H148044   1.109   1.210  33.517 -1.6075 -2.8299 -2.1468
 8851TIP3    H248045   1.028   1.303  33.429 -1.2778 -0.3414  0.0726
 8852TIP3   OH248046   1.023   1.020 104.766  0.4608  0.4620  0.4955
 8852TIP3    H148047   1.020   0.938 104.815  1.7714 -0.1960 -0.4721
 8852TIP3    H248048   0.932   1.043 104.752 -0.0064 -1.9443 -0.9873
 8853TIP3   OH248049   2.525   1.116  86.531 -0.5718  0.5679 -0.0747
 8853TIP3    H148050   2.482   1.108  86.616 -0.3996  1.3574  0.0948
 8853TIP3    H248051   2.578   1.195  86.538  0.8763 -0.3411 -0.2980
 8854TIP3   OH248052   0.563   2.677 102.925 -0.4807 -0.5101 -0.5246
 8854TIP3    H148053   0.627   2.610 102.906 -0.2737 -0.6350  0.5631
 8854TIP3    H248054   0.479   2.637 102.902 -0.4298 -1.4188  0.7804
 8855TIP3   OH248055   2.599   1.010  10.781 -0.2746  0.1833  0.0180
 8855TIP3    H148056   2.553   1.067  10.719 -0.7048 -0.7689 -0.5698
 8855TIP3    H248057   2.568   0.922  10.759  1.4062 -0.4309 -0.0054
 8856TIP3   OH248058   2.553   0.504  33.512  0.6762 -0.2345 -0.3135
 8856TIP3    H148059   2.516   0.569  33.571  1.9640  0.3174 -0.0762
 8856TIP3    H248060   2.646   0.502  33.534  0.6924 -2.0811 -0.4021
 8857TIP3   OH248061   0.393   1.791  35.278 -0.7700  0.1028 -0.0296
 8857TIP3    H148062   0.402   1.706  35.233  0.9568  0.2254  0.0271
 8857TIP3    H248063   0.415   1.856  35.211  0.1064  0.3826  0.5230
 8858TIP3   OH248064   1.619   1.999  12.421  0.1720  0.2242  0.3029
 8858TIP3    H148065   1.630   2.076  12.477  0.0290  0.7306 -0.3536
 8858TIP3    H248066   1.527   2.001  12.396  0.0323 -0.4893  0.7499
 8859TIP3   OH248067   2.383   1.790  46.188 -0.5057 -0.0855  0.9110
 8859TIP3    H148068   2.318   1.747  46.244 -0.5803 -0.5588  0.4729
 8859TIP3    H248069   2.332   1.836  46.122 -0.4111 -1.4223 -0.1447
 8860TIP3   OH248070   2.578   0.025   2.513 -0.4200 -0.3229 -0.1914
 8860TIP3    H148071   2.587   0.105   2.565 -1.2065  0.6748 -1.5178
 8860TIP3    H248072   2.524  -0.033   2.566 -0.7319  0.4431  0.3397
 8861TIP3   OH248073   1.848   2.496  15.399  0.0683 -1.1223 -0.8509
 8861TIP3    H148074   1.893   2.460  15.323 -0.8271 -2.7959 -0.6262
 8861TIP3    H248075   1.758   2.510  15.370  0.3175  0.7962 -0.8573
 8862TIP3   OH248076   2.232   0.857  81.763 -0.1165 -0.0818  0.1087
 8862TIP3    H148077   2.178   0.843  81.840 -3.1552  1.0347 -1.6272
 8862TIP3    H248078   2.200   0.940  81.726  2.1191  0.1105 -1.6472
 8863TIP3   OH248079   0.602   0.218  74.691 -0.5148 -0.1390  0.1660
 8863TIP3    H148080   0.529   0.235  74.750  1.1779  1.7525  1.8498
 8863TIP3    H248081   0.614   0.300  74.643  1.0655 -0.1006  0.5829
 8864TIP3   OH248082   0.858   0.361   1.489 -0.1518 -0.2164  0.0462
 8864TIP3    H148083   0.880   0.285   1.543  0.2361 -0.3824 -0.3370
 8864TIP3    H248084   0.927   0.424   1.508 -1.4916  0.7963  1.7960
 8865TIP3   OH248085   0.428   2.346 110.933 -0.0925 -0.2578  0.2693
 8865TIP3    H148086   0.439   2.306 111.019  0.1477  0.4241  0.5597
 8865TIP3    H248087   0.335   2.367 110.928 -0.1910 -0.7075  0.1710
 8866TIP3   OH248088   0.133   0.699  19.035 -0.0672  0.1655 -0.0660
 8866TIP3    H148089   0.162   0.675  18.947  0.0492  2.4995 -0.7568
 8866TIP3    H248090   0.047   0.739  19.022 -0.0212  0.5993  0.8562
 8867TIP3   OH248091   1.861   1.711  37.713  0.0877  0.4017  0.3496
 8867TIP3    H148092   1.926   1.673  37.772  0.3694  1.5024  0.7782
 8867TIP3    H248093   1.787   1.733  37.770 -0.7873 -1.0554 -0.1712
 8868TIP3   OH248094   0.980   2.438  97.383 -0.3512  0.7438 -0.1245
 8868TIP3    H148095   1.018   2.351  97.365 -2.5591 -0.3314  0.0717
 8868TIP3    H248096   0.921   2.454  97.310 -1.3571  1.2224  0.7696
 8869TIP3   OH248097   0.902   0.350  27.960  0.3053 -0.1893  0.3181
 8869TIP3    H148098   0.899   0.317  27.871  0.0937 -1.2663  0.7081
 8869TIP3    H248099   0.995   0.365  27.977  0.1976  2.2739 -0.8469
 8870TIP3   OH248100   1.224   1.387  27.769 -0.3494  0.2719 -0.2148
 8870TIP3    H148101   1.136   1.380  27.808  0.6053 -0.4781  1.9970
 8870TIP3    H248102   1.248   1.479  27.781 -0.2814  0.1646  0.5342
 8871TIP3   OH248103   1.331   0.729   6.539 -0.0250  0.6448  0.1396
 8871TIP3    H148104   1.371   0.703   6.457 -1.4098  1.1171 -0.7254
 8871TIP3    H248105   1.400   0.775   6.586  0.3476  1.8251 -1.4874
 8872TIP3   OH248106   1.858   0.091  32.241  0.7004  0.2735 -0.1340
 8872TIP3    H148107   1.824   0.038  32.313  1.6764  0.0336  0.1703
 8872TIP3    H248108   1.838   0.040  32.162 -1.8641  1.3059 -0.2423
 8873TIP3   OH248109   1.093   1.217  79.798  0.2697 -0.7093 -0.1463
 8873TIP3    H148110   1.165   1.157  79.776  0.2970  0.1307 -2.6254
 8873TIP3    H248111   1.015   1.174  79.764  0.0556 -0.1165 -0.4081
 8874TIP3   OH248112   2.040   1.027 107.212 -0.3533  0.1487 -0.2905
 8874TIP3    H148113   2.119   1.037 107.159 -0.7726 -0.0061 -0.9608
 8874TIP3    H248114   2.052   1.087 107.285  1.0755 -0.9848  0.4583
 8875TIP3   OH248115   2.441   0.861 109.075  0.2752  0.4385  0.5077
 8875TIP3    H148116   2.372   0.805 109.039 -0.0549 -0.0006  1.7629
 8875TIP3    H248117   2.504   0.871 109.004  0.1635 -1.2500  0.1280
 8876TIP3   OH248118   0.806   2.411  89.848  0.2913 -0.0988  0.3461
 8876TIP3    H148119   0.777   2.371  89.766  0.3932 -0.4744  0.4888
 8876TIP3    H248120   0.861   2.485  89.821 -0.0864  0.0857  0.0828
 8877TIP3   OH248121   1.800   1.612   1.262 -0.2156  0.0508 -0.5707
 8877TIP3    H148122   1.817   1.520   1.283 -0.2766  0.2402  0.3619
 8877TIP3    H248123   1.754   1.646   1.339 -1.1598  0.5883 -1.3577
 8878TIP3   OH248124   1.928   2.134  99.473 -0.1568 -0.2744 -0.1908
 8878TIP3    H148125   1.886   2.220  99.479 -0.0550 -0.3007  1.5978
 8878TIP3    H248126   1.857   2.074  99.451 -0.2518  0.2245 -1.3183
 8879TIP3   OH248127   2.270   2.432  17.605 -0.0737  0.2412  0.4954
 8879TIP3    H148128   2.362   2.411  17.618 -0.4312 -1.1633  0.8172
 8879TIP3    H248129   2.264   2.453  17.511  0.4097 -0.5788  0.2696
 8880TIP3   OH248130   2.622   0.389  73.715 -0.4976 -0.1573 -0.2820
 8880TIP3    H148131   2.558   0.417  73.782 -1.9002 -0.1671 -1.5687
 8880TIP3    H248132   2.668   0.470  73.691 -0.2583 -0.0851  0.3919
 8881TIP3   OH248133   0.873   0.073  27.538 -0.0346 -0.4121 -0.6855
 8881TIP3    H148134   0.825  -0.009  27.522  0.3299 -0.7049 -0.2968
 8881TIP3    H248135   0.954   0.063  27.489 -0.4810  0.1925 -1.5498
 8882TIP3   OH248136   1.167   0.569   0.977  0.1313 -0.3339  0.4055
 8882TIP3    H148137   1.130   0.657   0.968  0.3512 -0.2097  0.6785
 8882TIP3    H248138   1.179   0.538   0.888  0.3209  0.0289  0.3045
 8883TIP3   OH248139   2.643   1.524  20.346  0.1919  0.1151 -0.1719
 8883TIP3    H148140   2.668   1.490  20.260 -1.1363 -1.4996  0.0237
 8883TIP3    H248141   2.671   1.456  20.408  1.2645  1.3229  0.7110
 8884TIP3   OH248142   1.072   2.266  81.924  0.3771 -0.3888 -0.6225
 8884TIP3    H148143   1.126   2.314  81.986  0.6266 -1.0815 -0.2892
 8884TIP3    H248144   1.026   2.201  81.977  0.6267 -1.0245 -1.1632
 8885TIP3   OH248145   0.026   1.239 100.927  0.0583 -0.1924  0.6392
 8885TIP3    H148146   0.077   1.294 100.867  1.0356  0.0845  1.6863
 8885TIP3    H248147   0.085   1.223 101.001 -1.0607 -0.6501  1.4571
 8886TIP3   OH248148   0.554   0.234  14.160 -0.3921 -0.0677  0.0513
 8886TIP3    H148149   0.605   0.313  14.181  0.2180 -1.0188  2.4746
 8886TIP3    H248150   0.566   0.177  14.236 -2.8284 -1.5120 -0.5579
 8887TIP3   OH248151   2.303   0.064  77.602  0.8916 -0.1294 -0.2923
 8887TIP3    H148152   2.357   0.115  77.542  0.2105  2.0397  0.8417
 8887TIP3    H248153   2.218   0.108  77.602 -0.4906 -2.6019 -0.9268
 8888TIP3   OH248154   1.639   2.212  75.030  0.4456  0.0160 -0.0162
 8888TIP3    H148155   1.599   2.125  75.035  1.0697 -0.2413  0.7282
 8888TIP3    H248156   1.717   2.200  74.975 -0.7547  0.6344 -1.9380
 8889TIP3   OH248157   0.483   1.097 109.962  0.5947 -0.0116 -0.1445
 8889TIP3    H148158   0.551   1.064 109.903  1.1137  1.2340 -0.2759
 8889TIP3    H248159   0.508   1.064 110.048  1.0533 -0.0255 -0.2834
 8890TIP3   OH248160   2.682   1.230  81.722  0.1969 -0.4728 -0.4771
 8890TIP3    H148161   2.775   1.243  81.705  0.1851 -1.5636 -1.5532
 8890TIP3    H248162   2.644   1.214  81.636 -0.9570 -0.2144 -0.0366
 8891TIP3   OH248163   1.797   1.529  75.852  0.5911 -0.0587  0.0248
 8891TIP3    H148164   1.864   1.487  75.798  0.4274  0.8470 -0.9180
 8891TIP3    H248165   1.715   1.492  75.821  0.6027 -0.8002  0.8414
 8892TIP3   OH248166   0.054   1.342 111.863 -0.4313 -0.3244  0.2278
 8892TIP3    H148167   0.103   1.394 111.927  0.1905 -0.1370 -0.3827
 8892TIP3    H248168  -0.038   1.360 111.883 -0.2565 -0.4917  1.2348
 8893TIP3   OH248169   1.672   0.256 103.536  1.2041  0.4975  0.0081
 8893TIP3    H148170   1.749   0.236 103.590  0.1592 -0.6259  1.1386
 8893TIP3    H248171   1.601   0.206 103.576 -0.2231  1.8292 -0.7617
 8894TIP3   OH248172   1.554   2.489  28.269 -0.8246  0.4316 -0.0147
 8894TIP3    H148173   1.462   2.513  28.261 -0.9660 -0.3897 -1.0887
 8894TIP3    H248174   1.591   2.555  28.328 -2.0104  0.9884  0.1353
 8895TIP3   OH248175   0.467   1.239   5.035  0.3295  0.1852 -0.3854
 8895TIP3    H148176   0.454   1.144   5.027 -1.0565  0.3964 -0.9229
 8895TIP3    H248177   0.388   1.277   4.996  1.1020  1.5767 -0.6431
 8896TIP3   OH248178   0.454   1.234 104.019  0.2181 -0.1925  0.4266
 8896TIP3    H148179   0.426   1.323 103.995  1.6453  0.7654  2.0788
 8896TIP3    H248180   0.426   1.180 103.946  0.4155  1.8240 -1.2427
 8897TIP3   OH248181   1.317   1.366  34.550  0.4741 -0.2695  0.3717
 8897TIP3    H148182   1.354   1.345  34.464  0.5105 -0.4607  0.4325
 8897TIP3    H248183   1.222   1.358  34.538  0.4028  0.9252  0.0257
 8898TIP3   OH248184   1.963   1.790   0.356  0.0636 -0.0119  0.7597
 8898TIP3    H148185   1.890   1.727   0.351  0.9735 -1.0407 -0.0704
 8898TIP3    H248186   1.932   1.866   0.306  0.0566 -0.9880 -0.7879
 8899TIP3   OH248187   2.675   1.312  10.146  0.2736  0.0249 -0.1373
 8899TIP3    H148188   2.715   1.264  10.074  0.3854 -0.4853  0.2552
 8899TIP3    H248189   2.683   1.253  10.221  0.9278  0.8821  0.4896
 8900TIP3   OH248190   2.176   2.068  22.792 -0.2817  0.0656 -0.1408
 8900TIP3    H148191   2.265   2.045  22.765 -0.1310 -1.7420  1.6870
 8900TIP3    H248192   2.120   2.007  22.744 -0.4228  0.2413 -0.2016
 8901TIP3   OH248193   0.604   0.783  10.495 -0.2332  0.2320 -0.1255
 8901TIP3    H148194   0.589   0.804  10.587 -2.5392 -0.1248 -0.3368
 8901TIP3    H248195   0.578   0.691  10.487  0.7581  0.0061 -0.9858
 8902TIP3   OH248196   1.556   0.969   8.250  0.0371  0.3865  0.2203
 8902TIP3    H148197   1.574   1.030   8.178 -0.6780 -0.5684 -0.7989
 8902TIP3    H248198   1.478   1.006   8.293  0.0429  0.5835  0.0639
 8903TIP3   OH248199   2.465   1.907  77.265  0.1069 -0.5447  0.1273
 8903TIP3    H148200   2.382   1.865  77.290 -0.7024  1.3237  0.7208
 8903TIP3    H248201   2.497   1.948  77.345  0.4947  0.5616 -0.5718
 8904TIP3   OH248202   0.483   2.260  66.513  0.0567  0.4216  0.4286
 8904TIP3    H148203   0.465   2.331  66.575 -1.0552 -0.1582  0.7896
 8904TIP3    H248204   0.528   2.194  66.566  0.1289  0.4027  0.3426
 8905TIP3   OH248205   0.989   0.565  32.548 -0.0367  0.3100 -0.4402
 8905TIP3    H148206   1.030   0.580  32.463 -0.5445  0.3200 -0.6890
 8905TIP3    H248207   1.060   0.532  32.604  1.2839  3.9317  0.2934
 8906TIP3   OH248208   2.489   2.618  34.319  0.2563  0.0661  0.6895
 8906TIP3    H148209   2.412   2.631  34.374  0.5023  1.1111  0.8092
 8906TIP3    H248210   2.500   2.523  34.316 -0.0206 -0.0339  2.0796
 8907TIP3   OH248211   2.588   0.343  86.705  0.0553  0.3365 -0.1807
 8907TIP3    H148212   2.593   0.371  86.796 -0.8357  2.2136 -0.6762
 8907TIP3    H248213   2.497   0.357  86.680 -0.5823 -3.3231 -0.4509
 8908TIP3   OH248214   2.114   2.120  29.689  0.2056 -0.1825 -0.3767
 8908TIP3    H148215   2.142   2.210  29.676 -1.0499  0.2265 -0.3276
 8908TIP3    H248216   2.023   2.118  29.660  0.3821 -1.5685 -0.9231
 8909TIP3   OH248217   2.532   1.522   6.349 -0.4550  0.2010 -0.3918
 8909TIP3    H148218   2.568   1.556   6.431 -0.7581 -0.1658 -0.0994
 8909TIP3    H248219   2.449   1.568   6.337  0.0273  0.9358 -0.9865
 8910TIP3   OH248220   0.774   1.813  51.971  0.5729 -0.2341  0.3298
 8910TIP3    H148221   0.791   1.775  51.885 -0.1848 -0.2775  0.1923
 8910TIP3    H248222   0.729   1.896  51.953 -0.2516 -0.5912  0.6905
 8911TIP3   OH248223   1.398   1.849  97.617  0.2324  0.2988 -0.2834
 8911TIP3    H148224   1.340   1.856  97.541 -0.3481  1.2987  0.2186
 8911TIP3    H248225   1.470   1.793  97.588 -0.9513 -0.9394 -0.9411
 8912TIP3   OH248226   1.157   0.611 109.391  0.3955  0.2090  0.2266
 8912TIP3    H148227   1.090   0.585 109.454  1.8208 -0.4254  1.5555
 8912TIP3    H248228   1.165   0.706 109.402 -1.6015  0.6073 -1.3421
 8913TIP3   OH248229   1.331   0.119   5.869 -0.6001 -0.2365 -0.0319
 8913TIP3    H148230   1.349   0.188   5.933 -2.1520 -0.8589  1.1284
 8913TIP3    H248231   1.410   0.064   5.871 -1.2589 -1.2377  2.6970
 8914TIP3   OH248232   2.627   1.545  10.256 -0.1659 -0.9190 -0.1571
 8914TIP3    H148233   2.616   1.455  10.225 -1.6570 -0.5585 -0.7775
 8914TIP3    H248234   2.721   1.554  10.272  0.4081 -1.7633 -2.6430
 8915TIP3   OH248235   1.057   1.689  28.212 -0.5435 -0.6144  0.5933
 8915TIP3    H148236   1.140   1.647  28.232  0.2635  0.0578 -1.0874
 8915TIP3    H248237   1.063   1.776  28.253  0.6171  0.3237 -1.4265
 8916TIP3   OH248238   1.570   0.227  20.121 -0.0370  0.2678  0.3848
 8916TIP3    H148239   1.623   0.147  20.115  1.7369  1.4835 -1.1486
 8916TIP3    H248240   1.587   0.274  20.040 -2.2787  1.5064  0.5541
 8917TIP3   OH248241   0.207   0.546  74.190  0.5816 -0.4507 -0.2648
 8917TIP3    H148242   0.280   0.514  74.243  1.1195  0.5311 -0.3873
 8917TIP3    H248243   0.148   0.589  74.253 -0.4982 -2.2296  0.0070
 8918TIP3   OH248244   0.369   1.741 101.680  0.2483  0.0020  0.3648
 8918TIP3    H148245   0.277   1.717 101.691  0.3982 -0.4894  0.6036
 8918TIP3    H248246   0.411   1.707 101.759  1.0279 -1.8108 -0.7709
 8919TIP3   OH248247   1.943   0.398  87.344 -0.1428  0.2829  0.1496
 8919TIP3    H148248   1.939   0.363  87.433  0.8222  0.3913  0.2468
 8919TIP3    H248249   1.883   0.472  87.345  0.2964  0.6431  0.8795
 8920TIP3   OH248250   1.801   2.680  11.937 -0.2522  0.0487 -0.5020
 8920TIP3    H148251   1.721   2.691  11.989  0.2246 -1.9035  0.7729
 8920TIP3    H248252   1.770   2.650  11.852 -0.9102 -1.3123  0.1732
 8921TIP3   OH248253   1.536   1.436 111.950  0.0294 -0.3833 -0.1179
 8921TIP3    H148254   1.580   1.365 111.996  0.0917 -0.2770 -0.0158
 8921TIP3    H248255   1.521   1.402 111.862  1.8689  0.1834 -0.6991
 8922TIP3   OH248256   0.015   1.791 102.123  0.3252 -0.6547  0.0304
 8922TIP3    H148257  -0.024   1.759 102.041  0.3281  0.9881 -0.6469
 8922TIP3    H248258   0.108   1.769 102.115  0.2082 -1.1342 -0.0816
 8923TIP3   OH248259   1.409   0.374  98.722 -0.0628 -0.2203 -0.1915
 8923TIP3    H148260   1.384   0.384  98.631  1.9750 -0.3495 -0.8147
 8923TIP3    H248261   1.419   0.463  98.755 -1.0254 -0.1716 -0.0086
 8924TIP3   OH248262   0.099   1.440  11.693  0.0622 -0.1650 -0.1889
 8924TIP3    H148263   0.148   1.517  11.664 -1.9885  1.3360  0.0976
 8924TIP3    H248264   0.151   1.405  11.765  0.8181  1.2140 -0.0188
 8925TIP3   OH248265   1.310   0.021  35.138 -0.6341  0.4860  0.0467
 8925TIP3    H148266   1.280  -0.024  35.059 -0.6641  2.3272 -1.0463
 8925TIP3    H248267   1.365  -0.043  35.182 -0.1339 -0.4160 -1.7861
 8926TIP3   OH248268   1.034   2.368  68.754  0.3541  0.0746  0.4626
 8926TIP3    H148269   0.954   2.357  68.703 -0.1986 -1.2954  1.5705
 8926TIP3    H248270   1.049   2.463  68.754 -0.1745  0.1901 -1.3541
 8927TIP3   OH248271   0.123   2.461   8.919 -0.4716 -0.2868 -0.5259
 8927TIP3    H148272   0.129   2.371   8.887  3.1390  0.4136 -2.3808
 8927TIP3    H248273   0.082   2.509   8.847 -1.8460 -0.3080  0.2201
 8928TIP3   OH248274   1.657   0.723  27.686  0.2096 -0.1958  0.0873
 8928TIP3    H148275   1.658   0.731  27.590  0.6819 -0.1498  0.0937
 8928TIP3    H248276   1.599   0.793  27.714  2.5367  1.9274 -0.0021
 8929TIP3   OH248277   0.019   1.398  35.631  0.5364 -0.3423  0.2314
 8929TIP3    H148278  -0.022   1.482  35.611 -0.0676 -0.2078  1.9517
 8929TIP3    H248279   0.078   1.416  35.704  1.2455 -1.2116 -0.0959
 8930TIP3   OH248280   2.302   0.907  88.416  0.5155  0.0015  0.7166
 8930TIP3    H148281   2.249   0.851  88.473  1.1528  0.8188  2.1441
 8930TIP3    H248282   2.330   0.849  88.346 -2.2999 -0.4574 -0.1585
 8931TIP3   OH248283   0.105   1.518  25.704  0.2621  0.6226 -0.5449
 8931TIP3    H148284   0.172   1.496  25.639 -0.3075  0.5229 -1.1039
 8931TIP3    H248285   0.122   1.609  25.726  0.9604  0.4222 -0.2244
 8932TIP3   OH248286   0.927   1.857 102.841 -0.0288 -0.6442 -0.3230
 8932TIP3    H148287   0.904   1.863 102.933 -1.2702 -0.7701 -0.6030
 8932TIP3    H248288   1.020   1.834 102.840  0.3802  0.8527  0.8752
 8933TIP3   OH248289   0.667   1.573  79.534  0.0077  0.1171 -0.0432
 8933TIP3    H148290   0.584   1.620  79.521  0.2490  0.4667 -0.3557
 8933TIP3    H248291   0.732   1.628  79.490  0.8378  1.1945  2.3510
 8934TIP3   OH248292   1.486   2.497  21.960  0.0391 -0.1857  0.5000
 8934TIP3    H148293   1.455   2.461  22.043  0.3609 -0.0752  0.6688
 8934TIP3    H248294   1.425   2.463  21.895  0.3647 -1.0638  0.6494
 8935TIP3   OH248295   0.895   0.336 101.908 -0.2676 -0.0075 -0.7736
 8935TIP3    H148296   0.838   0.408 101.881 -1.7559 -1.2559 -1.0641
 8935TIP3    H248297   0.892   0.274 101.836  0.2872 -0.7669 -0.1663
 8936TIP3   OH248298   0.549   0.494 106.404  0.2987  0.1389 -0.8119
 8936TIP3    H148299   0.635   0.536 106.405  0.4586 -0.1873 -0.4375
 8936TIP3    H248300   0.567   0.402 106.382  0.4598 -0.7598  2.5442
 8937TIP3   OH248301   1.866   0.756 103.244  0.0069 -0.3463 -0.1328
 8937TIP3    H148302   1.928   0.684 103.229 -1.9252 -2.0662 -0.2304
 8937TIP3    H248303   1.883   0.784 103.334  1.3548 -0.2772 -0.3765
 8938TIP3   OH248304   1.482   1.123  98.928  0.3740 -0.1456 -0.5916
 8938TIP3    H148305   1.457   1.039  98.891  0.0710 -0.6343  0.6515
 8938TIP3    H248306   1.523   1.100  99.012  0.6349  0.9204 -0.4176
 8939TIP3   OH248307   0.192   0.116 103.381 -0.2576 -0.2541 -0.2428
 8939TIP3    H148308   0.283   0.141 103.396 -0.7577  1.2189  0.5380
 8939TIP3    H248309   0.146   0.199 103.368 -1.8112 -0.8173  1.2770
 8940TIP3   OH248310   0.484   0.759 108.145  0.9117  0.8915  0.0553
 8940TIP3    H148311   0.425   0.835 108.151 -0.0153  0.1368  0.7193
 8940TIP3    H248312   0.532   0.759 108.227 -0.3158 -0.2054  0.8034
 8941TIP3   OH248313   1.354   2.414  20.940  0.6640  0.1810 -0.1095
 8941TIP3    H148314   1.432   2.460  20.971  0.2865  1.2887 -0.7571
 8941TIP3    H248315   1.375   2.390  20.850  1.4118 -2.2410  0.6265
 8942TIP3   OH248316   0.077   2.084  26.061 -0.1125  0.4513 -0.1665
 8942TIP3    H148317   0.066   2.149  25.992  1.0546  0.4746 -0.3630
 8942TIP3    H248318   0.026   2.117  26.135  0.2395  1.4556 -0.3578
 8943TIP3   OH248319   0.932   2.001  19.898 -0.3922 -0.3804  0.1139
 8943TIP3    H148320   0.887   2.050  19.966  0.1478 -1.8439  1.6047
 8943TIP3    H248321   0.865   1.985  19.832 -0.9106  1.1314  0.2428
 8944TIP3   OH248322   2.035   2.049  16.763  0.1140 -0.0172  0.1938
 8944TIP3    H148323   2.004   1.967  16.802  0.0276  0.1172  0.4160
 8944TIP3    H248324   2.116   2.026  16.719  0.2395 -0.1677  0.4979
 8945TIP3   OH248325   0.326   1.313  17.519  0.5147  0.0713 -0.0207
 8945TIP3    H148326   0.277   1.367  17.582  1.6953 -0.1589  1.1272
 8945TIP3    H248327   0.408   1.292  17.564  2.0004  1.0219 -2.1393
 8946TIP3   OH248328   0.026   0.897  35.802  0.2256 -0.1824  0.1740
 8946TIP3    H148329  -0.017   0.869  35.882  1.1190  0.4542  0.8985
 8946TIP3    H248330   0.092   0.830  35.786 -1.6858 -1.7949 -1.5765
 8947TIP3   OH248331   1.079   2.380 102.247  0.1788  0.1749 -0.1544
 8947TIP3    H148332   1.165   2.361 102.210  0.1887  0.5461 -0.3328
 8947TIP3    H248333   1.076   2.330 102.329  0.4649 -0.0361 -0.2723
 8948TIP3   OH248334   1.906   0.787 107.274  0.6052  0.4359 -0.0948
 8948TIP3    H148335   1.959   0.856 107.235  0.9728 -0.3237 -0.9448
 8948TIP3    H248336   1.817   0.823 107.274  0.8008  0.9302 -0.4693
 8949TIP3   OH248337   0.472   1.839  30.531 -0.0103  0.6113  0.0815
 8949TIP3    H148338   0.562   1.865  30.509  0.0709 -0.4668 -0.9616
 8949TIP3    H248339   0.418   1.884  30.466 -0.3487  2.0101  1.2763
 8950TIP3   OH248340   0.649   2.039   2.882  0.0752 -0.2540  0.4061
 8950TIP3    H148341   0.605   2.077   2.806  0.7418 -0.1342  0.0668
 8950TIP3    H248342   0.590   2.056   2.955 -0.2903  0.1804  0.0213
 8951TIP3   OH248343   1.480   0.937 104.107 -0.5507  0.3847  0.1706
 8951TIP3    H148344   1.476   1.029 104.132  1.1507  0.8291 -1.0551
 8951TIP3    H248345   1.432   0.891 104.176  0.2975  1.9774  1.8783
 8952TIP3   OH248346   2.064   2.067 108.750  0.5544 -0.1625 -0.5227
 8952TIP3    H148347   2.095   2.044 108.838 -1.6583 -0.6590  0.2177
 8952TIP3    H248348   2.137   2.047 108.692  1.9683 -0.1400  1.1681
 8953TIP3   OH248349   1.414   1.050  16.213  0.3107  0.3194  0.3635
 8953TIP3    H148350   1.485   1.110  16.237  0.2771  0.6229 -0.2768
 8953TIP3    H248351   1.336   1.088  16.252  0.4628  0.1048  0.8818
 8954TIP3   OH248352   1.267   0.400  34.844  0.6290  0.2326  0.4722
 8954TIP3    H148353   1.327   0.345  34.894  1.5151 -0.0673 -0.8605
 8954TIP3    H248354   1.323   0.447  34.782 -0.4362  0.4481 -0.3594
 8955TIP3   OH248355   1.918   1.595 106.860 -0.7597  0.1208 -0.2776
 8955TIP3    H148356   1.972   1.533 106.909 -0.3121  1.2863  0.7637
 8955TIP3    H248357   1.878   1.543 106.790 -0.2710 -1.2895  0.4609
 8956TIP3   OH248358   1.643   2.535  97.718  0.4425 -0.3431  0.2488
 8956TIP3    H148359   1.617   2.445  97.741  1.0213 -0.9023 -1.1470
 8956TIP3    H248360   1.577   2.564  97.656 -0.9846  1.0712  2.3007
 8957TIP3   OH248361   2.139   1.249 109.125  0.0059  0.1855  0.0376
 8957TIP3    H148362   2.229   1.271 109.148  0.5174 -0.0888 -1.5478
 8957TIP3    H248363   2.106   1.198 109.199  1.3330 -0.1834  0.3993
 8958TIP3   OH248364   2.031   1.921  90.209  0.3890  0.2792  0.2512
 8958TIP3    H148365   2.081   1.959  90.282  0.0896  0.6807  0.2517
 8958TIP3    H248366   1.953   1.975  90.203 -0.4763 -0.8567  0.8043
 8959TIP3   OH248367   2.098   2.567   6.296 -0.1854 -0.0370  0.3536
 8959TIP3    H148368   2.159   2.641   6.294  0.9470 -0.9406 -0.0559
 8959TIP3    H248369   2.139   2.504   6.355  0.1231 -1.3260 -1.1592
 8960TIP3   OH248370   0.919   1.155  57.617 -0.8436 -1.2433 -0.1220
 8960TIP3    H148371   0.949   1.163  57.527 -3.5822  0.9649 -0.9810
 8960TIP3    H248372   0.849   1.219  57.625  1.8471  1.7760  4.7672
 8961TIP3   OH248373   1.355   1.132 100.561  0.2932 -0.4365  0.1698
 8961TIP3    H148374   1.451   1.130 100.561  0.2938 -1.8863  1.1624
 8961TIP3    H248375   1.330   1.060 100.618 -1.3945  0.7006  0.9499
 8962TIP3   OH248376   0.742   0.969 104.823 -0.0012 -0.2798  0.0536
 8962TIP3    H148377   0.732   0.882 104.862 -1.7201 -0.2786 -0.2969
 8962TIP3    H248378   0.737   1.028 104.898  0.3485 -0.4416  0.2108
 8963TIP3   OH248379   1.149   0.179  81.557  0.0195  0.1600 -0.2924
 8963TIP3    H148380   1.064   0.147  81.527 -0.1956  1.4478 -1.1227
 8963TIP3    H248381   1.137   0.194  81.650 -0.3052 -0.7308 -0.1746
 8964TIP3   OH248382   1.952   0.695   0.757 -0.4228  0.2681  0.3559
 8964TIP3    H148383   1.965   0.728   0.846  0.6777  1.2230 -0.1393
 8964TIP3    H248384   1.979   0.767   0.701  1.1505 -1.1333 -0.7614
 8965TIP3   OH248385   1.328   1.021  35.760 -0.2129 -0.5126  0.1919
 8965TIP3    H148386   1.416   0.983  35.765 -0.1405 -0.2647  1.0008
 8965TIP3    H248387   1.344   1.115  35.751 -0.3483 -0.1686  2.7489
 8966TIP3   OH248388   1.288   2.577  80.614 -0.1185  0.0520  0.2638
 8966TIP3    H148389   1.377   2.612  80.615 -0.3115  0.5796 -0.4376
 8966TIP3    H248390   1.232   2.655  80.607 -0.5795 -0.3451 -0.6288
 8967TIP3   OH248391   1.502   0.361  12.806  0.0263  0.1957  0.0359
 8967TIP3    H148392   1.568   0.303  12.845  0.1035  0.8707  0.9511
 8967TIP3    H248393   1.552   0.417  12.747  0.0765 -0.1458 -0.2439
 8968TIP3   OH248394   0.992   1.948  32.779  0.0183 -0.1557 -0.1434
 8968TIP3    H148395   0.910   1.911  32.748  0.6546 -1.0494 -0.7998
 8968TIP3    H248396   1.015   2.014  32.713 -0.1060  0.0128 -0.0201
 8969TIP3   OH248397   2.584   1.862  32.167 -0.1488  0.0424  0.2918
 8969TIP3    H148398   2.627   1.861  32.082  0.3258 -2.0971  0.4989
 8969TIP3    H248399   2.632   1.797  32.219 -0.4020  1.3002  2.2210
 8970TIP3   OH248400   0.467   0.893 101.789  0.4533 -0.1195 -0.0614
 8970TIP3    H148401   0.432   0.980 101.806 -2.1670 -0.8386 -1.3067
 8970TIP3    H248402   0.460   0.847 101.873 -0.6318  0.0996 -0.0196
 8971TIP3   OH248403   1.316   0.067   2.019 -0.2618  0.2609  0.0953
 8971TIP3    H148404   1.393   0.065   1.962 -0.5040  0.1121 -0.2266
 8971TIP3    H248405   1.342   0.122   2.093 -0.0071  0.5927 -0.2411
 8972TIP3   OH248406   2.638   1.884 111.407  0.1013 -0.1488 -0.2339
 8972TIP3    H148407   2.562   1.827 111.394  0.4068 -0.4466 -0.7087
 8972TIP3    H248408   2.704   1.850 111.347  0.7894 -0.2101  0.5424
 8973TIP3   OH248409   1.662   0.719  15.057  0.1696 -0.2439 -0.0465
 8973TIP3    H148410   1.636   0.732  14.966 -0.9070  1.4236  0.4603
 8973TIP3    H248411   1.599   0.656  15.092  0.5475 -0.8383 -0.4064
 8974TIP3   OH248412   0.308   0.008  31.619 -0.2261  0.0079  0.0262
 8974TIP3    H148413   0.278   0.095  31.590 -0.1319 -0.6665 -2.3161
 8974TIP3    H248414   0.227  -0.040  31.637 -0.3507  0.0619 -0.3693
 8975TIP3   OH248415   0.047   0.098 104.791  0.0787  0.5661 -0.3239
 8975TIP3    H148416   0.049   0.018 104.739 -1.3687 -0.0094  0.4518
 8975TIP3    H248417   0.016   0.165 104.731  0.1580  0.2962 -0.6672
 8976TIP3   OH248418   2.225   0.621  37.866 -0.0024 -0.2437  0.5808
 8976TIP3    H148419   2.146   0.653  37.909 -0.9483 -0.6841 -0.7647
 8976TIP3    H248420   2.296   0.674  37.902 -0.9332  0.2826  1.6781
 8977TIP3   OH248421   0.286   0.492 105.969  0.0821 -0.1704  0.1573
 8977TIP3    H148422   0.365   0.447 105.997 -0.1018 -0.3637  0.3734
 8977TIP3    H248423   0.254   0.535 106.048 -0.6958 -1.0982  0.3645
 8978TIP3   OH248424   2.241   2.170  19.410  0.0410 -0.1487 -0.3119
 8978TIP3    H148425   2.163   2.127  19.376 -2.2761  2.9046  0.6533
 8978TIP3    H248426   2.281   2.213  19.334 -0.8321  0.4927 -0.4273
 8979TIP3   OH248427   2.419   2.298  27.788 -0.5132  0.2215  0.7347
 8979TIP3    H148428   2.409   2.380  27.835 -1.8599  0.5673 -0.0733
 8979TIP3    H248429   2.352   2.241  27.825 -0.7823  0.1001  0.0826
 8980TIP3   OH248430   1.685   1.868  47.996 -0.0220 -0.8249  0.0435
 8980TIP3    H148431   1.624   1.899  48.064 -0.2335 -1.0937 -0.0217
 8980TIP3    H248432   1.742   1.806  48.042  0.1900 -0.5872  0.1010
 8981TIP3   OH248433   1.091   1.433  82.437 -0.1515 -0.0302 -0.4414
 8981TIP3    H148434   1.001   1.422  82.409 -1.0528  0.3054  2.0941
 8981TIP3    H248435   1.128   1.495  82.374 -2.7093  2.4780  0.3298
 8982TIP3   OH248436   2.528   1.526  18.132 -0.7242 -0.1080 -0.9382
 8982TIP3    H148437   2.603   1.540  18.075 -1.6011  2.8618 -1.5876
 8982TIP3    H248438   2.469   1.469  18.082  0.0158 -0.3929 -1.4916
 8983TIP3   OH248439   0.065   0.610   3.261  0.4619  0.1428 -0.3736
 8983TIP3    H148440   0.124   0.580   3.330  1.7949 -0.3535 -1.6859
 8983TIP3    H248441   0.073   0.544   3.192  0.6320  1.5867 -1.7932
 8984TIP3   OH248442   2.133   2.148  63.225  0.6353 -0.1377 -0.4680
 8984TIP3    H148443   2.133   2.186  63.137 -1.3471 -0.1332 -0.4990
 8984TIP3    H248444   2.226   2.135  63.246  1.1839  1.0234 -2.0473
 8985TIP3   OH248445   1.569   2.132 103.034  0.6149 -0.1661  0.2620
 8985TIP3    H148446   1.639   2.164 102.978 -0.2059  0.1932 -0.5816
 8985TIP3    H248447   1.508   2.089 102.975  0.6332 -1.4129  1.1191
 8986TIP3   OH248448   0.890   0.954  88.887  0.7605  0.8058 -0.0860
 8986TIP3    H148449   0.821   0.972  88.822  0.5038  0.8453  0.1916
 8986TIP3    H248450   0.912   0.862  88.873  0.6551  0.7954 -0.1858
 8987TIP3   OH248451   0.793   1.668  79.792 -0.2203  0.2473  0.6704
 8987TIP3    H148452   0.855   1.603  79.825  0.5402  1.2126  1.2071
 8987TIP3    H248453   0.746   1.623  79.721 -1.8270 -1.8800  2.8901
 8988TIP3   OH248454   0.969   0.300  37.420  0.0837  0.1675 -0.0127
 8988TIP3    H148455   1.038   0.292  37.486 -0.4223 -3.9806  0.3109
 8988TIP3    H248456   1.015   0.312  37.338  1.1809 -1.2063  0.3631
 8989TIP3   OH248457   0.113   1.712   0.777  0.2463 -0.1537  0.1546
 8989TIP3    H148458   0.182   1.660   0.818  1.4371  1.0716 -0.2236
 8989TIP3    H248459   0.106   1.790   0.833 -0.0155  0.2716 -0.4604
 8990TIP3   OH248460   1.538   2.600  13.733  0.0829  0.4309 -0.2077
 8990TIP3    H148461   1.607   2.564  13.789 -0.1102  0.4087  0.0161
 8990TIP3    H248462   1.572   2.685  13.705 -0.7321  1.4734  1.7295
 8991TIP3   OH248463   1.324   1.211  12.623  0.2601 -0.4095  0.2882
 8991TIP3    H148464   1.283   1.295  12.600  1.1236  0.0338  0.3199
 8991TIP3    H248465   1.264   1.172  12.686 -0.0134  0.3313  0.5022
 8992TIP3   OH248466   1.031   0.684   7.932  0.1957  1.0188  0.0659
 8992TIP3    H148467   0.971   0.633   7.986  1.8939 -0.0215  1.0669
 8992TIP3    H248468   0.997   0.674   7.843 -1.5129  1.0856  0.6683
 8993TIP3   OH248469   2.535   1.340  84.898 -0.7649  0.1484 -0.3975
 8993TIP3    H148470   2.622   1.341  84.937 -0.4002  1.4942 -1.1783
 8993TIP3    H248471   2.550   1.345  84.804 -1.6824  1.9571 -0.4948
 8994TIP3   OH248472   0.081   0.794  72.709 -0.8900 -0.4006 -0.0216
 8994TIP3    H148473   0.096   0.819  72.800 -1.3569 -0.9641  0.2131
 8994TIP3    H248474   0.036   0.869  72.670  0.3011  0.3041 -0.0966
 8995TIP3   OH248475   0.467   1.154  22.259 -0.1346  0.0547 -0.0372
 8995TIP3    H148476   0.406   1.120  22.193 -0.7385  1.1403 -0.0494
 8995TIP3    H248477   0.428   1.128  22.342 -1.2171  1.6427  0.0005
 8996TIP3   OH248478   0.352   2.163  44.718 -0.5612  0.5375  0.7884
 8996TIP3    H148479   0.271   2.213  44.727 -0.8079  0.2465  0.2571
 8996TIP3    H248480   0.332   2.098  44.650  0.5261  1.2863 -0.2749
 8997TIP3   OH248481   1.711   2.545  76.764  0.0588 -0.4789  0.6758
 8997TIP3    H148482   1.712   2.635  76.797 -1.6536 -0.6337  1.2768
 8997TIP3    H248483   1.658   2.549  76.685 -0.4401 -1.0183  0.9698
 8998TIP3   OH248484   0.858   1.342  81.086  0.2840  0.5517 -0.1555
 8998TIP3    H148485   0.876   1.406  81.156 -2.1390  0.4499  0.6301
 8998TIP3    H248486   0.868   1.257  81.129 -0.2473  0.4759 -0.1733
 8999TIP3   OH248487   2.218   1.011 103.023 -0.2817 -0.3311  0.0787
 8999TIP3    H148488   2.212   1.103 103.049  3.2334 -0.4586  2.0855
 8999TIP3    H248489   2.129   0.978 103.031 -1.5412  2.6769  0.0331
 9000TIP3   OH248490   1.241   1.327  96.025  0.2578  0.1013 -0.0735
 9000TIP3    H148491   1.286   1.356  95.946 -0.0495 -0.6800 -0.5406
 9000TIP3    H248492   1.270   1.237  96.038  1.2073  0.5956  1.3714
 9001TIP3   OH248493   1.311   2.634 103.453 -0.1436  0.3882  0.1304
 9001TIP3    H148494   1.324   2.621 103.547  1.5315  2.8541  0.3321
 9001TIP3    H248495   1.399   2.624 103.415 -0.4509  1.3279 -0.8845
 9002TIP3   OH248496   0.576   1.353  89.064  0.1044 -0.2810 -0.3362
 9002TIP3    H148497   0.660   1.314  89.039  0.9273  1.6099 -0.7307
 9002TIP3    H248498   0.577   1.439  89.022 -2.5065 -0.6018 -1.2064
 9003TIP3   OH248499   0.702   1.261 111.727  0.5105  0.1505  0.0287
 9003TIP3    H148500   0.679   1.171 111.750 -0.9972  0.8727  1.5760
 9003TIP3    H248501   0.771   1.285 111.789 -0.0841  0.5026  0.5641
 9004TIP3   OH248502   2.068   0.067  91.255 -0.0088  0.0593 -0.2162
 9004TIP3    H148503   2.157   0.080  91.221  0.2706 -1.6290 -0.2000
 9004TIP3    H248504   2.055   0.139  91.316  0.6887  1.3208 -1.4874
 9005TIP3   OH248505   2.543   1.063  81.273  0.5842 -0.0248  0.5752
 9005TIP3    H148506   2.597   1.101  81.204  0.1522 -0.6350 -0.1151
 9005TIP3    H248507   2.577   1.101  81.354  0.6660  1.2148 -0.0190
 9006TIP3   OH248508   1.959   0.607  88.237 -0.5433  0.0240 -1.1656
 9006TIP3    H148509   1.961   0.702  88.236  1.6874  0.1241  1.5137
 9006TIP3    H248510   2.038   0.580  88.190 -0.8597 -0.5072 -1.4123
 9007TIP3   OH248511   2.151   0.827   4.578 -0.3638 -0.1390  0.3318
 9007TIP3    H148512   2.118   0.914   4.554 -1.1822 -0.0230  1.7901
 9007TIP3    H248513   2.225   0.812   4.519 -0.9439  1.0433 -0.7306
 9008TIP3   OH248514   1.567   2.352  18.071 -0.4491  0.2746 -0.3030
 9008TIP3    H148515   1.481   2.382  18.040 -0.4811  0.2942 -0.1956
 9008TIP3    H248516   1.616   2.334  17.991 -0.3618  0.7930 -0.3686
 9009TIP3   OH248517   2.379   2.658  78.382 -0.4355 -0.2767  0.2524
 9009TIP3    H148518   2.455   2.709  78.353  0.2144 -0.2198  1.9042
 9009TIP3    H248519   2.306   2.694  78.332  0.1622  1.6820  0.6726
 9010TIP3   OH248520   2.290   2.169 112.020  0.3105  0.2095  0.2998
 9010TIP3    H148521   2.368   2.177 111.965  0.4694  1.3550  0.6665
 9010TIP3    H248522   2.274   2.257 112.052 -2.2192  0.4177 -1.2263
 9011TIP3   OH248523   1.624   0.463  13.516 -0.2402  0.1884  0.0949
 9011TIP3    H148524   1.589   0.550  13.497  1.7293  0.6746 -1.6105
 9011TIP3    H248525   1.666   0.435  13.435  1.9910 -0.9675  1.5489
 9012TIP3   OH248526   0.615   1.364   9.247 -0.3984 -0.0388 -0.9063
 9012TIP3    H148527   0.574   1.302   9.187 -3.1677 -0.3744  1.1426
 9012TIP3    H248528   0.631   1.442   9.193 -1.0748 -0.9378 -2.4726
 9013TIP3   OH248529   0.734   0.243  18.847  0.0617  0.0228  0.3498
 9013TIP3    H148530   0.705   0.293  18.771  1.1324  0.0487 -0.0661
 9013TIP3    H248531   0.765   0.310  18.909  0.4628 -0.0610  0.2445
 9014TIP3   OH248532   1.056   1.262  15.431 -0.0820 -0.0363  0.0451
 9014TIP3    H148533   1.130   1.239  15.374 -1.6822 -0.7386 -1.8667
 9014TIP3    H248534   1.038   1.183  15.481 -0.2213 -0.2100 -0.2790
 9015TIP3   OH248535   0.314   1.777  86.514 -0.0540 -0.3876  0.7629
 9015TIP3    H148536   0.369   1.855  86.508  2.0877 -1.8826 -0.5223
 9015TIP3    H248537   0.282   1.762  86.425 -1.0606 -0.5608  1.1389
 9016TIP3   OH248538   0.960   0.455  66.997 -0.2041  0.1084  0.6552
 9016TIP3    H148539   1.005   0.539  66.996 -0.5499  0.3036  0.9623
 9016TIP3    H248540   0.880   0.471  67.048  0.5534 -0.8143  2.2218
 9017TIP3   OH248541   2.420   1.869  26.205  0.1342 -0.0308  0.3753
 9017TIP3    H148542   2.329   1.885  26.227  0.0317  0.4539 -0.3759
 9017TIP3    H248543   2.448   1.801  26.267 -1.1663 -1.3154 -0.3981
 9018TIP3   OH248544   0.263   0.911  99.553  0.4865  0.0545 -0.1749
 9018TIP3    H148545   0.247   0.816  99.555 -0.6972  0.2420  0.5503
 9018TIP3    H248546   0.193   0.946  99.498 -0.4464  0.6988  1.3393
 9019TIP3   OH248547   2.296   0.841  13.890 -0.3655 -0.1706 -0.4719
 9019TIP3    H148548   2.227   0.775  13.882  1.0621 -1.6081 -1.4447
 9019TIP3    H248549   2.271   0.909  13.828 -1.7384  0.1478  0.3856
 9020TIP3   OH248550   2.516   2.346  35.442 -0.6416  0.3291  0.4474
 9020TIP3    H148551   2.496   2.288  35.515  1.4013 -0.9569  0.0906
 9020TIP3    H248552   2.603   2.380  35.463 -0.3686  0.5680 -0.9933
 9021TIP3   OH248553   1.760   0.511  83.656  0.0868 -0.2181  0.1012
 9021TIP3    H148554   1.735   0.419  83.645 -0.3522  0.1079 -1.8617
 9021TIP3    H248555   1.850   0.515  83.624  0.6748 -0.2250  1.6460
 9022TIP3   OH248556   2.360   0.319  40.055 -0.0945  0.8806  0.2076
 9022TIP3    H148557   2.428   0.386  40.052  0.0906  0.7411  1.0003
 9022TIP3    H248558   2.389   0.259  40.125 -1.2644  1.0827  0.8956
 9023TIP3   OH248559   1.935   2.341  82.861  0.4263 -0.2788 -0.0753
 9023TIP3    H148560   1.905   2.404  82.926  2.0726  0.1711  0.2936
 9023TIP3    H248561   1.855   2.315  82.814 -1.0343 -1.6519  2.9384
 9024TIP3   OH248562   0.685   0.439  58.732 -0.0547 -0.2694 -0.1461
 9024TIP3    H148563   0.670   0.413  58.823  0.9684 -1.5577 -0.3092
 9024TIP3    H248564   0.599   0.432  58.691 -0.7848  1.5237  0.9671
 9025TIP3   OH248565   0.452   0.345 110.774  0.1235  0.1117  0.5093
 9025TIP3    H148566   0.478   0.329 110.684 -1.5950 -0.1243  0.0256
 9025TIP3    H248567   0.477   0.436 110.792  0.7328  0.0651 -0.0974
 9026TIP3   OH248568   1.209   1.537  16.307 -0.1728 -0.0967  0.1662
 9026TIP3    H148569   1.141   1.603  16.317  0.4553  0.6511 -0.3580
 9026TIP3    H248570   1.217   1.525  16.212  1.1151  0.5764  0.1642
 9027TIP3   OH248571   1.798   2.254 107.310 -0.1645 -0.3780  0.2158
 9027TIP3    H148572   1.841   2.176 107.275  1.2699 -0.0364  1.1422
 9027TIP3    H248573   1.706   2.243 107.287  0.0761 -2.1435 -0.0229
 9028TIP3   OH248574   2.195   1.456  96.847 -0.7524 -0.4031  0.1559
 9028TIP3    H148575   2.214   1.376  96.896  0.7875 -1.1042 -1.4681
 9028TIP3    H248576   2.260   1.457  96.777 -0.7749  2.2609  0.0783
 9029TIP3   OH248577   1.767   1.337  92.390  0.2449 -0.2024 -0.0696
 9029TIP3    H148578   1.749   1.251  92.351  1.6228  0.0760 -1.4221
 9029TIP3    H248579   1.842   1.321  92.447  0.3263  0.0479 -0.1067
 9030TIP3   OH248580   0.153   0.067  32.134  0.4588  0.6759 -0.0762
 9030TIP3    H148581   0.227   0.127  32.135  0.9601  0.2495  3.8912
 9030TIP3    H248582   0.191  -0.020  32.147 -0.6319  0.2598  0.4925
 9031TIP3   OH248583   1.381   2.007  92.932  0.1412 -0.3517  0.5240
 9031TIP3    H148584   1.419   1.928  92.972 -0.8662 -0.5114  1.1917
 9031TIP3    H248585   1.374   2.069  93.004 -1.3170 -0.5042  0.5451
 9032TIP3   OH248586   1.234   0.904   6.932 -0.2954  0.0093 -0.3212
 9032TIP3    H148587   1.198   0.836   6.875  1.5556 -1.7572  0.4973
 9032TIP3    H248588   1.306   0.942   6.882  0.2945 -0.4095  0.2031
 9033TIP3   OH248589   2.530   1.023  83.347  0.1079  0.5075  0.0880
 9033TIP3    H148590   2.535   1.052  83.438 -1.2478  0.4756  0.1966
 9033TIP3    H248591   2.499   1.100  83.299 -1.3379 -0.0770  0.0279
 9034TIP3   OH248592   2.109   0.658   0.159  0.3488 -0.2624  0.0489
 9034TIP3    H148593   2.203   0.645   0.150  0.5077  0.6224  0.3257
 9034TIP3    H248594   2.097   0.680   0.252  0.0088  0.6417 -0.1965
 9035TIP3   OH248595   0.062   1.154  17.823 -0.0456 -0.4025  0.5501
 9035TIP3    H148596  -0.008   1.128  17.883  0.1175  0.3484  1.0679
 9035TIP3    H248597   0.027   1.229  17.776 -0.2171 -1.0519 -0.3991
 9036TIP3   OH248598   0.862   0.562  18.632 -0.0039  0.3370 -0.2433
 9036TIP3    H148599   0.774   0.556  18.669  0.1230  0.2418  0.0483
 9036TIP3    H248600   0.918   0.584  18.707  0.0627  1.5151 -0.6291
 9037TIP3   OH248601   1.028   0.775  26.065 -0.5359 -0.0247 -0.2803
 9037TIP3    H148602   1.078   0.741  25.991 -0.0089 -0.6935  0.3664
 9037TIP3    H248603   1.020   0.869  26.048  0.0783 -0.0784 -0.8982
 9038TIP3   OH248604   1.633   1.025  93.393  0.0685  0.1703 -0.2801
 9038TIP3    H148605   1.630   1.120  93.386 -0.0056  0.2332  0.5313
 9038TIP3    H248606   1.688   0.997  93.320  0.8967  0.9042  0.0577
 9039TIP3   OH248607   1.178   2.277  24.060 -0.3890 -0.4286  0.2875
 9039TIP3    H148608   1.141   2.334  23.993 -1.2583 -0.5185  0.6639
 9039TIP3    H248609   1.175   2.189  24.021  0.6855 -0.2562 -0.1867
 9040TIP3   OH248610   2.560   1.093  37.748  0.1297  0.4088 -0.6721
 9040TIP3    H148611   2.553   1.170  37.805  0.0441 -1.4170  1.9469
 9040TIP3    H248612   2.650   1.065  37.757  0.0005 -0.1567 -1.1082
 9041TIP3   OH248613   0.834   0.960  12.322  0.1884 -0.2084  0.1967
 9041TIP3    H148614   0.807   0.871  12.345  1.4711 -1.0203 -1.2602
 9041TIP3    H248615   0.786   1.016  12.383  0.1478 -1.9454  1.8609
 9042TIP3   OH248616   1.581   1.370  12.273 -0.3168 -0.1341  0.1541
 9042TIP3    H148617   1.521   1.400  12.205 -0.6412  1.1792  0.9786
 9042TIP3    H248618   1.601   1.280  12.249 -1.6881 -0.2229 -0.7935
 9043TIP3   OH248619   0.862   1.975  78.517 -0.0780 -0.2113  0.5062
 9043TIP3    H148620   0.936   2.036  78.520 -0.0268 -0.2850  0.7958
 9043TIP3    H248621   0.785   2.031  78.514 -0.0004 -0.1321 -0.2535
 9044TIP3   OH248622   2.644   0.970   3.918 -0.0105 -0.2446  0.3761
 9044TIP3    H148623   2.598   1.019   3.985  0.0974 -0.0206  0.2877
 9044TIP3    H248624   2.733   0.961   3.951  0.5929  1.5837 -0.5958
 9045TIP3   OH248625   1.227   0.983  77.145 -0.2829  0.1601  0.0009
 9045TIP3    H148626   1.291   1.034  77.194  0.5176  1.8684 -2.5809
 9045TIP3    H248627   1.143   1.025  77.163 -0.1106  0.3219  0.4351
 9046TIP3   OH248628   1.737   0.656   5.340  0.4370  0.7623  0.2004
 9046TIP3    H148629   1.674   0.587   5.320  0.7456  0.3936  0.4737
 9046TIP3    H248630   1.741   0.710   5.261 -0.6377  1.1246  0.3749
 9047TIP3   OH248631   0.962   0.671 108.665  0.1119  0.4072  0.1890
 9047TIP3    H148632   0.882   0.639 108.622  1.5801 -0.4084 -2.1049
 9047TIP3    H248633   1.008   0.592 108.693  1.2842  0.7355 -0.7563
 9048TIP3   OH248634   1.183   1.526 100.652 -0.4549  0.2285 -0.2599
 9048TIP3    H148635   1.178   1.435 100.682  0.8956 -0.2564 -1.3832
 9048TIP3    H248636   1.249   1.567 100.709  2.3451 -0.7756 -2.5453
 9049TIP3   OH248637   0.042   0.035  31.866  0.0726  0.2433 -0.4793
 9049TIP3    H148638   0.015  -0.055  31.850  0.7247  0.0088 -0.3040
 9049TIP3    H248639   0.054   0.040  31.961  1.6432  0.0260 -0.6297
 9050TIP3   OH248640   1.011   0.010  16.453 -0.2415 -0.6485  0.1858
 9050TIP3    H148641   1.013   0.066  16.531  0.2625 -0.5886  0.1330
 9050TIP3    H248642   1.032  -0.078  16.486 -1.8985 -0.9932  0.4097
 9051TIP3   OH248643   0.276   0.828   1.411 -0.3041  0.0688 -0.1889
 9051TIP3    H148644   0.191   0.805   1.448  0.2062 -1.4627  0.1387
 9051TIP3    H248645   0.333   0.840   1.487 -0.4501  2.2552 -0.3587
 9052TIP3   OH248646   1.094   1.850 101.139 -0.3410  0.4301 -0.2748
 9052TIP3    H148647   1.160   1.810 101.195  0.1133  0.7275 -0.5921
 9052TIP3    H248648   1.104   1.944 101.153 -0.5111  0.4878 -0.5256
 9053TIP3   OH248649   1.677   1.933  33.778  0.6679 -0.2720  0.1545
 9053TIP3    H148650   1.677   1.962  33.686 -0.6936 -0.1865  0.1641
 9053TIP3    H248651   1.685   2.014  33.828 -0.2444 -0.1623  0.1310
 9054TIP3   OH248652   1.663   1.171  28.066 -0.2849 -0.0218 -0.2476
 9054TIP3    H148653   1.752   1.203  28.048 -0.2317 -0.2701 -0.4443
 9054TIP3    H248654   1.617   1.246  28.102  0.4593 -0.2965  1.3756
 9055TIP3   OH248655   1.830   2.370 109.139  0.1781 -0.0534 -0.1996
 9055TIP3    H148656   1.765   2.425 109.097  1.3635  1.2565 -0.3769
 9055TIP3    H248657   1.864   2.315 109.069  1.9054  1.8843 -0.9738
 9056TIP3   OH248658   1.273   1.386  80.539 -0.3515 -0.5835 -0.1511
 9056TIP3    H148659   1.204   1.401  80.602 -1.9750  0.4284 -2.0511
 9056TIP3    H248660   1.341   1.339  80.588 -2.8451 -2.7105  1.5226
 9057TIP3   OH248661   1.005   2.077 105.200 -0.5071  0.1205  0.1049
 9057TIP3    H148662   1.046   2.032 105.274  0.0052  0.4412  0.0185
 9057TIP3    H248663   0.921   2.108 105.234 -1.2887 -1.6440 -0.0674
 9058TIP3   OH248664   1.686   0.358   1.864  0.3193 -0.1279  0.2962
 9058TIP3    H148665   1.763   0.415   1.870  0.1223  0.0331  1.4080
 9058TIP3    H248666   1.655   0.349   1.954 -0.1674 -1.2958  0.0311
 9059TIP3   OH248667   0.130   2.369  89.283  0.5515 -0.6079  0.0018
 9059TIP3    H148668   0.044   2.362  89.242  0.5280 -0.2185 -0.0294
 9059TIP3    H248669   0.121   2.322  89.366  0.6739 -1.6101 -0.5380
 9060TIP3   OH248670   2.286   2.252  25.183  0.1837  0.4237 -0.0269
 9060TIP3    H148671   2.276   2.269  25.276 -1.0728  0.3837 -0.1276
 9060TIP3    H248672   2.213   2.193  25.161  0.8121 -0.0626 -0.9126
 9061TIP3   OH248673   0.778   0.688 111.499 -0.3414  0.1846 -0.2774
 9061TIP3    H148674   0.745   0.716 111.584  1.1726  0.1196  0.3585
 9061TIP3    H248675   0.764   0.593 111.498  1.8615 -0.2198  0.9863
 9062TIP3   OH248676   0.917   2.085  80.090  0.7739 -0.0410  0.4077
 9062TIP3    H148677   0.834   2.132  80.082  0.8453 -0.0089 -0.1222
 9062TIP3    H248678   0.963   2.131  80.161  0.7978  0.6215 -0.0294
 9063TIP3   OH248679   0.721   2.564  82.117  0.1735  0.0747 -0.2544
 9063TIP3    H148680   0.680   2.505  82.054 -2.9732  1.3337  0.4336
 9063TIP3    H248681   0.733   2.646  82.069  0.2994  0.2261  0.0330
 9064TIP3   OH248682   1.101   2.533  84.667  0.2407  0.7550 -0.0385
 9064TIP3    H148683   1.062   2.500  84.585  0.1134  1.9200 -0.4607
 9064TIP3    H248684   1.152   2.609  84.641  1.4055  0.2829  0.7737
 9065TIP3   OH248685   1.195   0.126  96.237 -0.4267 -0.4639  0.5874
 9065TIP3    H148686   1.274   0.143  96.289 -0.1290 -0.7747  0.2439
 9065TIP3    H248687   1.202   0.185  96.162 -1.2486  0.5586  1.2926
 9066TIP3   OH248688   1.275   1.720  81.871 -0.2064 -0.7283 -0.1596
 9066TIP3    H148689   1.336   1.793  81.872 -2.3740  1.2172  1.7961
 9066TIP3    H248690   1.209   1.744  81.806  0.3372 -2.1390 -1.2719
 9067TIP3   OH248691   2.615   0.075  34.849  0.0958  0.0040 -0.0494
 9067TIP3    H148692   2.601  -0.020  34.855  2.4629 -0.4788 -0.9518
 9067TIP3    H248693   2.649   0.088  34.761 -3.0739  2.1966 -1.0859
 9068TIP3   OH248694   1.348   1.266  22.562 -0.4877  0.6495 -0.4649
 9068TIP3    H148695   1.375   1.224  22.644 -0.6603 -1.0521 -1.2297
 9068TIP3    H248696   1.416   1.242  22.499 -1.7223 -0.3961 -1.4549
 9069TIP3   OH248697   0.211   2.346  99.261  0.0680  0.2601 -0.6915
 9069TIP3    H148698   0.129   2.301  99.237  1.0831 -2.8119  1.0380
 9069TIP3    H248699   0.192   2.386  99.346  0.3709 -0.6644 -0.1717
 9070TIP3   OH248700   1.273   1.118  94.402 -0.0652  0.1723 -0.3003
 9070TIP3    H148701   1.288   1.024  94.397 -1.1772  0.0004 -0.7936
 9070TIP3    H248702   1.183   1.129  94.372  0.2346  1.4511 -0.7966
 9071TIP3   OH248703   0.550   0.171  33.291 -0.3341  0.6294 -0.3398
 9071TIP3    H148704   0.457   0.152  33.278 -0.2678  0.6482 -0.8691
 9071TIP3    H248705   0.552   0.262  33.320 -0.4651  0.7221 -0.6170
 9072TIP3   OH248706   1.445   0.425   4.820  0.0197 -0.2921 -0.2200
 9072TIP3    H148707   1.402   0.362   4.877  0.2666  0.1877  0.5060
 9072TIP3    H248708   1.494   0.482   4.879 -0.7002  0.9764 -0.7934
 9073TIP3   OH248709   0.876   1.391 109.022 -0.7794 -0.3162  0.6749
 9073TIP3    H148710   0.787   1.410 108.992 -0.6756 -0.8450  0.0028
 9073TIP3    H248711   0.931   1.453 108.975 -0.7071 -0.5471  0.4548
 9074TIP3   OH248712   1.992   1.312  78.204  0.0129  0.2784 -0.3590
 9074TIP3    H148713   1.970   1.219  78.203  0.1975  0.2297 -1.6277
 9074TIP3    H248714   2.086   1.315  78.189 -0.1283  0.6795 -1.2549
 9075TIP3   OH248715   0.572   0.039  32.634 -0.2606  0.1128 -0.3574
 9075TIP3    H148716   0.578   0.093  32.555  1.4244  0.5481  0.0277
 9075TIP3    H248717   0.663   0.018  32.655 -0.6468  0.2372  1.6187
 9076TIP3   OH248718   0.110   1.708 108.072  0.2087 -0.5474 -0.0367
 9076TIP3    H148719   0.189   1.744 108.112 -0.2379 -1.1860  1.5043
 9076TIP3    H248720   0.093   1.765 107.997  2.0665 -0.3492 -0.3676
 9077TIP3   OH248721   1.168   1.283  20.149 -0.3381  0.0269 -0.1414
 9077TIP3    H148722   1.240   1.338  20.120 -0.0364 -1.4854 -2.5863
 9077TIP3    H248723   1.090   1.325  20.114 -0.3809  0.2835  0.2594
 9078TIP3   OH248724   1.496   0.271  95.918 -0.5310  0.0791  0.5729
 9078TIP3    H148725   1.497   0.176  95.915  1.8909  0.0491 -1.4567
 9078TIP3    H248726   1.504   0.293  96.011  0.8137 -1.7553  0.9225
 9079TIP3   OH248727   1.896   1.432   9.115 -1.2580  0.1983  0.1532
 9079TIP3    H148728   1.945   1.398   9.190 -0.0457 -0.7981 -1.0404
 9079TIP3    H248729   1.883   1.355   9.059 -0.4823  1.2793 -1.5490
 9080TIP3   OH248730   2.604   1.664  31.041  0.4331 -0.3084  0.6986
 9080TIP3    H148731   2.575   1.615  31.118  0.0785 -1.0059  0.1344
 9080TIP3    H248732   2.536   1.730  31.027  0.0899 -0.7063  0.5020
 9081TIP3   OH248733   1.044   2.072  77.034  0.1788  0.2900  0.2852
 9081TIP3    H148734   0.979   2.093  76.968  0.3382 -2.2240 -0.8043
 9081TIP3    H248735   1.093   2.153  77.047 -0.7915  1.2379 -1.6330
 9082TIP3   OH248736   0.203   0.626  85.016  0.0104  0.2170  0.2686
 9082TIP3    H148737   0.296   0.645  85.004  0.0314 -1.0433 -2.0919
 9082TIP3    H248738   0.157   0.699  84.975 -0.0487  0.3334  0.5351
 9083TIP3   OH248739   1.027   1.337   5.198 -0.6405 -0.5307  0.3706
 9083TIP3    H148740   1.006   1.270   5.263  1.5562 -1.9963 -0.3201
 9083TIP3    H248741   1.117   1.363   5.219 -0.6982  0.6341 -0.7191
 9084TIP3   OH248742   1.245   1.095 104.575 -0.7675  0.0634 -0.7158
 9084TIP3    H148743   1.180   1.064 104.639 -0.2923  0.4551 -0.0321
 9084TIP3    H248744   1.193   1.123 104.500 -1.5763  2.2208  0.5702
 9085TIP3   OH248745   2.254   0.239  19.852 -0.2090  0.1437  0.1134
 9085TIP3    H148746   2.299   0.319  19.876  1.5993 -0.7712 -0.0509
 9085TIP3    H248747   2.270   0.180  19.925  0.0409 -0.6410 -0.5532
 9086TIP3   OH248748   1.801   1.514 101.094 -0.0230 -0.4399  0.3116
 9086TIP3    H148749   1.765   1.431 101.062  0.3324 -1.0482  1.4271
 9086TIP3    H248750   1.884   1.524 101.047  0.1509 -0.9654  0.4860
 9087TIP3   OH248751   0.263   2.451  32.839 -0.0016  0.0295  0.4371
 9087TIP3    H148752   0.178   2.493  32.849  0.2755  0.5992  0.4507
 9087TIP3    H248753   0.327   2.522  32.853  0.4548  0.0471 -1.4085
 9088TIP3   OH248754   1.425   0.398  86.015 -0.0821 -0.1072  0.7828
 9088TIP3    H148755   1.440   0.395  85.920  0.5411  0.5695  0.8523
 9088TIP3    H248756   1.349   0.456  86.025  0.9568  1.3069  0.7918
 9089TIP3   OH248757   0.833   0.717  37.365  0.6662 -0.6284 -0.6852
 9089TIP3    H148758   0.778   0.639  37.362  0.1671 -0.2929 -0.3352
 9089TIP3    H248759   0.912   0.689  37.410 -0.2238 -0.5100  1.0228
 9090TIP3   OH248760   1.581   1.133  52.251 -0.5549  0.0636  0.4499
 9090TIP3    H148761   1.518   1.122  52.322 -1.4652 -0.8569 -0.4581
 9090TIP3    H248762   1.561   1.219  52.214 -0.9116  0.0102  0.5168
 9091TIP3   OH248763   1.968   1.803 108.803  0.2635 -0.1397 -0.2338
 9091TIP3    H148764   1.989   1.882 108.752  0.4875  0.0783  0.1935
 9091TIP3    H248765   1.926   1.745 108.740  0.6395  0.0850 -0.7019
 9092TIP3   OH248766   0.692   1.906 110.897  0.6415  0.1581 -0.4173
 9092TIP3    H148767   0.765   1.954 110.936  1.1033 -1.1049  0.3348
 9092TIP3    H248768   0.631   1.974 110.868  1.0533  1.1933  1.0321
 9093TIP3   OH248769   0.427   2.032 104.986  0.2457  0.2790  0.3091
 9093TIP3    H148770   0.385   2.045 105.071  0.4297  0.1641  0.4251
 9093TIP3    H248771   0.480   2.110 104.973 -0.3923  0.6543 -0.0580
 9094TIP3   OH248772   1.861   0.337  84.481  0.1160 -0.2757  0.0301
 9094TIP3    H148773   1.779   0.289  84.466 -0.3105  0.1773  0.8186
 9094TIP3    H248774   1.850   0.419  84.432 -0.3241  0.2049  0.8908
 9095TIP3   OH248775   2.009   1.635  95.884  0.0417 -0.1633 -0.3200
 9095TIP3    H148776   2.059   1.563  95.847 -0.1873 -0.4170 -0.1431
 9095TIP3    H248777   2.019   1.706  95.821 -0.2941 -0.5684 -0.8330
 9096TIP3   OH248778   2.587   1.261  90.926  0.0403  0.2289 -0.6955
 9096TIP3    H148779   2.607   1.311  91.005 -0.6955 -0.5108 -0.0247
 9096TIP3    H248780   2.648   1.187  90.928 -2.0697 -1.6317  0.9752
 9097TIP3   OH248781   1.062   2.021  99.197  0.2314 -0.2742  0.2451
 9097TIP3    H148782   1.058   2.083  99.125  1.8953  0.5920  0.8326
 9097TIP3    H248783   1.000   1.952  99.174 -1.3396  1.3746 -0.6429
 9098TIP3   OH248784   0.940   2.287   1.250 -0.0574  0.1798  0.3068
 9098TIP3    H148785   0.874   2.349   1.218  0.3980  0.2895 -0.4441
 9098TIP3    H248786   0.992   2.265   1.173 -0.7427 -1.8328  0.3615
 9099TIP3   OH248787   0.761   1.514   3.059  0.6294  0.7664  0.2176
 9099TIP3    H148788   0.676   1.557   3.063  0.4377  0.5705 -1.1951
 9099TIP3    H248789   0.825   1.586   3.067  0.3411  1.7340 -3.9312
 9100TIP3   OH248790   0.030   1.389  27.664  0.5511 -0.0873 -0.1685
 9100TIP3    H148791  -0.042   1.430  27.712  1.2777 -0.8973  1.7036
 9100TIP3    H248792   0.048   1.450  27.593  0.0363  1.6962  1.1438
 9101TIP3   OH248793   1.042   0.605  98.801 -0.2742 -0.4545 -0.4532
 9101TIP3    H148794   1.107   0.674  98.816  0.0959 -0.6256 -1.1887
 9101TIP3    H248795   1.089   0.541  98.747  0.0799 -2.2972  1.8450
 9102TIP3   OH248796   2.405   1.205  97.782  0.2855  0.1961  0.4255
 9102TIP3    H148797   2.321   1.182  97.822 -0.0922 -0.7056 -0.8209
 9102TIP3    H248798   2.429   1.128  97.730  1.0996  1.0398 -0.4903
 9103TIP3   OH248799   0.956   0.259 109.711 -0.2003 -0.1450  0.0005
 9103TIP3    H148800   0.865   0.238 109.689  0.3128 -1.0153 -1.4215
 9103TIP3    H248801   0.967   0.226 109.801 -1.4700  0.6192  0.4682
 9104TIP3   OH248802   2.383   0.324  85.576  0.1876  0.0803  0.9405
 9104TIP3    H148803   2.354   0.415  85.575  2.4131  0.8279  0.8792
 9104TIP3    H248804   2.392   0.302  85.669  0.5764  0.2406  0.9423
 9105TIP3   OH248805   1.489   0.692  30.564 -0.4942 -0.0539  0.2768
 9105TIP3    H148806   1.494   0.729  30.653 -3.3134  0.7493  0.1948
 9105TIP3    H248807   1.512   0.764  30.507 -0.2424 -0.1094  0.3091
 9106TIP3   OH248808   1.474   1.031  75.336 -0.1796 -0.4234  0.2247
 9106TIP3    H148809   1.461   0.985  75.252 -0.6370  2.4584 -1.4079
 9106TIP3    H248810   1.391   1.075  75.352  0.7010  1.0843  0.8576
 9107TIP3   OH248811   0.116   2.014  26.842 -0.2800  0.2457 -0.3706
 9107TIP3    H148812   0.107   2.082  26.775 -0.9027  1.1600  0.5999
 9107TIP3    H248813   0.026   1.993  26.867 -0.0808 -0.7361 -0.4518
 9108TIP3   OH248814   2.666   2.416   1.701  0.7250  0.2776 -0.5772
 9108TIP3    H148815   2.671   2.350   1.770  0.4934  1.7700  0.9228
 9108TIP3    H248816   2.573   2.427   1.684  0.6959  1.2202  0.1808
 9109TIP3   OH248817   1.552   0.775  34.903  0.0070 -0.0565  0.0363
 9109TIP3    H148818   1.516   0.833  34.836  0.0837  0.1802  0.1969
 9109TIP3    H248819   1.625   0.825  34.940  0.9633 -0.8093 -0.7743
 9110TIP3   OH248820   0.106   1.896  29.036 -0.7663 -0.0756 -0.2212
 9110TIP3    H148821   0.148   1.936  29.112 -0.6451  0.2949 -0.4812
 9110TIP3    H248822   0.025   1.945  29.025 -0.6274  0.0862 -0.5291
 9111TIP3   OH248823   1.424   0.546  31.798 -0.4391  0.0982  0.3552
 9111TIP3    H148824   1.463   0.559  31.885  0.0390 -1.9074  0.4852
 9111TIP3    H248825   1.329   0.549  31.814 -0.3628  0.8805  0.7275
 9112TIP3   OH248826   0.094   0.309  32.837  0.4478  0.3437  0.2255
 9112TIP3    H148827   0.188   0.301  32.820  0.6180 -1.1901  1.5783
 9112TIP3    H248828   0.052   0.256  32.769  0.7151 -0.6287  0.7982
 9113TIP3   OH248829   0.256   1.862  15.218  0.3210 -0.2230  0.1051
 9113TIP3    H148830   0.257   1.943  15.269 -1.1519  0.0243 -0.2124
 9113TIP3    H248831   0.188   1.875  15.152  0.5070 -1.4737 -0.3788
 9114TIP3   OH248832   0.073   2.331  77.768 -0.7244  0.7349 -0.1862
 9114TIP3    H148833   0.016   2.400  77.735  0.3554  1.1322 -1.3235
 9114TIP3    H248834   0.064   2.260  77.705  0.5383  1.0848 -0.8168
 9115TIP3   OH248835   2.053   0.808  24.745 -0.0765 -1.0070  0.1469
 9115TIP3    H148836   2.084   0.762  24.668  1.0124 -0.7604  0.4190
 9115TIP3    H248837   2.124   0.800  24.809 -0.5446 -0.3707  0.7745
 9116TIP3   OH248838   1.650   0.273 105.828  0.1334 -0.1353  0.1311
 9116TIP3    H148839   1.620   0.312 105.911  0.5289  0.7434 -0.1248
 9116TIP3    H248840   1.696   0.193 105.855  1.2754  0.7295  0.8841
 9117TIP3   OH248841   0.907   0.154 101.727 -0.3433  0.2955 -0.0359
 9117TIP3    H148842   0.871   0.088 101.786 -0.6011 -0.5777 -1.1464
 9117TIP3    H248843   0.916   0.109 101.643  1.3889  1.0933 -0.3197
 9118TIP3   OH248844   2.123   2.481  17.302  0.6743 -0.1479  0.5256
 9118TIP3    H148845   2.157   2.418  17.239  1.7584  2.1368 -1.3621
 9118TIP3    H248846   2.041   2.443  17.333  0.8836 -2.0842 -1.1247
 9119TIP3   OH248847   0.779   2.671   5.906  0.2785  0.4064 -0.0984
 9119TIP3    H148848   0.840   2.630   5.968  0.7843  0.0270 -0.8396
 9119TIP3    H248849   0.807   2.640   5.820 -1.0852  0.0648 -0.4418
 9120TIP3   OH248850   0.760   1.363 111.467  0.0840 -0.3599 -0.2247
 9120TIP3    H148851   0.750   1.342 111.559  0.4146  2.0618  0.4265
 9120TIP3    H248852   0.677   1.404 111.442  0.4956  0.2677 -0.6032
 9121TIP3   OH248853   0.993   2.659   5.243  0.4883 -0.5356 -0.4521
 9121TIP3    H148854   1.036   2.621   5.320  0.4121 -0.4265 -0.3544
 9121TIP3    H248855   0.931   2.721   5.280  1.1759  0.2755 -0.6342
 9122TIP3   OH248856   0.865   1.220  20.504 -0.0416 -0.3643  0.0413
 9122TIP3    H148857   0.930   1.275  20.547 -1.4546  0.7322  0.8924
 9122TIP3    H248858   0.817   1.178  20.575 -1.1101 -0.1045 -0.4957
 9123TIP3   OH248859   2.544   0.312 105.805 -0.5929 -0.0639  0.4043
 9123TIP3    H148860   2.591   0.241 105.849  0.3169  0.2740 -0.0130
 9123TIP3    H248861   2.453   0.282 105.802 -0.1991 -1.2791  0.0962
 9124TIP3   OH248862   1.896   1.246  38.306 -0.2678 -0.2708 -0.0022
 9124TIP3    H148863   1.818   1.263  38.253  0.1514  3.4254  0.2914
 9124TIP3    H248864   1.961   1.217  38.242 -0.3736  2.0775 -1.3065
 9125TIP3   OH248865   0.480   1.664  87.349 -0.3098 -0.2656 -0.1876
 9125TIP3    H148866   0.424   1.707  87.414 -1.2878  0.1810 -1.2912
 9125TIP3    H248867   0.531   1.600  87.400 -0.2202  0.8398  1.1860
 9126TIP3   OH248868   1.638   1.985  16.943 -0.2916  0.0435 -0.2108
 9126TIP3    H148869   1.559   1.952  16.985 -0.1591 -0.4553 -0.3550
 9126TIP3    H248870   1.652   1.927  16.868 -0.1847  0.5559 -0.5959
 9127TIP3   OH248871   2.615   1.178  92.618  0.1924 -0.5130  0.3635
 9127TIP3    H148872   2.675   1.244  92.583 -1.7274  1.9661  1.4197
 9127TIP3    H248873   2.623   1.104  92.559  1.6958  1.0699 -1.5338
 9128TIP3   OH248874   0.397   2.640   3.443  0.1627 -0.0707  0.4401
 9128TIP3    H148875   0.484   2.608   3.466  0.0704 -0.4827  0.2228
 9128TIP3    H248876   0.351   2.646   3.527  0.3883  0.1098  0.5507
 9129TIP3   OH248877   0.086   0.298  74.653 -0.2796  0.3178 -0.1122
 9129TIP3    H148878   0.059   0.206  74.644 -1.5618  0.4035  2.1605
 9129TIP3    H248879   0.035   0.344  74.586 -2.4995 -0.1772  1.1226
 9130TIP3   OH248880   2.130   1.581 110.116  0.5556  0.4147  0.1318
 9130TIP3    H148881   2.150   1.526 110.191 -0.7505  1.0886  1.0015
 9130TIP3    H248882   2.040   1.609 110.129  0.7166  1.5894 -1.0255
 9131TIP3   OH248883   0.102   2.299 111.813  0.0154 -0.4238 -0.0624
 9131TIP3    H148884   0.143   2.335 111.892  0.2751  0.5882 -0.6354
 9131TIP3    H248885   0.146   2.214 111.800  0.2070 -0.4478  0.6831
 9132TIP3   OH248886   1.579   2.131   0.879  0.4205 -0.5874  0.7008
 9132TIP3    H148887   1.563   2.079   0.800 -0.1489  0.0786  0.3657
 9132TIP3    H248888   1.608   2.216   0.847  0.6628 -0.4661  1.2285
 9133TIP3   OH248889   0.801   2.491 100.317 -0.0964  0.0374 -0.5527
 9133TIP3    H148890   0.860   2.497 100.392  0.1138  0.4147 -0.7446
 9133TIP3    H248891   0.714   2.477 100.356 -0.2261  1.7137 -0.1639
 9134TIP3   OH248892   2.419   2.248  32.025 -0.1155 -0.7140  0.0486
 9134TIP3    H148893   2.392   2.174  32.080 -0.8793 -0.7497 -0.3498
 9134TIP3    H248894   2.398   2.326  32.076  1.9960 -0.7520  1.0652
 9135TIP3   OH248895   0.391   0.412  12.664 -0.2412  0.4527 -0.0449
 9135TIP3    H148896   0.320   0.458  12.709 -0.4725 -1.4574  1.7502
 9135TIP3    H248897   0.461   0.476  12.657 -1.2919  1.6822  0.3492
 9136TIP3   OH248898   1.272   0.241   3.894 -0.2020 -0.0616 -0.3210
 9136TIP3    H148899   1.324   0.239   3.814  0.9037  0.4294  0.3474
 9136TIP3    H248900   1.201   0.302   3.876  0.2086  0.2723 -0.8430
 9137TIP3   OH248901   1.971   0.256  33.863  0.7127 -1.2946 -0.2642
 9137TIP3    H148902   1.938   0.255  33.953  0.5302  0.6509 -0.2531
 9137TIP3    H248903   1.903   0.214  33.811 -0.2999 -0.2766  0.2011
 9138TIP3   OH248904   0.208   2.472  91.236 -0.0211 -0.2730 -0.5603
 9138TIP3    H148905   0.277   2.461  91.301 -0.6477 -1.0833 -0.0171
 9138TIP3    H248906   0.251   2.519  91.164  1.2579 -1.2959 -0.5024
 9139TIP3   OH248907   2.662   2.053  68.078 -1.7813 -0.0049 -0.0692
 9139TIP3    H148908   2.578   2.007  68.082 -0.5713 -2.5884 -1.3847
 9139TIP3    H248909   2.665   2.090  67.990 -1.5997  0.1324 -0.0048
 9140TIP3   OH248910   0.657   0.703  99.335 -0.5322  0.2543 -0.1102
 9140TIP3    H148911   0.579   0.664  99.375 -0.2411  0.1706  0.3723
 9140TIP3    H248912   0.726   0.638  99.346 -0.2894  0.4979 -0.1706
 9141TIP3   OH248913   1.754   1.324  22.612  0.0428  0.2281  0.5421
 9141TIP3    H148914   1.700   1.246  22.625 -2.0790  1.4935 -0.3176
 9141TIP3    H248915   1.833   1.291  22.568 -0.9039 -1.4034 -0.0135
 9142TIP3   OH248916   1.210   2.229 110.480 -0.1232  0.0086  0.4781
 9142TIP3    H148917   1.223   2.188 110.395  0.0942  0.8972  0.0712
 9142TIP3    H248918   1.255   2.171 110.542  1.2027  0.2532 -0.2284
 9143TIP3   OH248919   0.536   1.576  19.467  0.2295  0.0488  0.2623
 9143TIP3    H148920   0.624   1.540  19.482  0.6289  0.8818 -0.0080
 9143TIP3    H248921   0.529   1.582  19.372  0.2929  0.9740  0.3124
 9144TIP3   OH248922   0.454   0.422  33.402 -0.4486  0.0376  0.6564
 9144TIP3    H148923   0.397   0.494  33.429 -0.5417  0.9435 -1.7361
 9144TIP3    H248924   0.398   0.344  33.405 -1.1535  0.5341  0.5335
 9145TIP3   OH248925   2.310   1.906  17.734  0.5495 -0.1923  0.2364
 9145TIP3    H148926   2.363   1.910  17.813  0.1926  0.4082  0.4537
 9145TIP3    H248927   2.227   1.947  17.759  0.6567  0.5631 -0.6271
 9146TIP3   OH248928   2.518   0.918  98.035 -0.4556 -0.1922  0.4697
 9146TIP3    H148929   2.599   0.899  97.986 -0.9838  1.3874 -1.1284
 9146TIP3    H248930   2.548   0.945  98.121  0.6902 -0.1179  0.0693
 9147TIP3   OH248931   0.107   1.089  27.396 -0.4922 -0.1926  0.1481
 9147TIP3    H148932   0.029   1.144  27.387  0.0087  0.4845 -0.0715
 9147TIP3    H248933   0.155   1.102  27.314 -0.4810 -1.1363 -0.0037
 9148TIP3   OH248934   2.292   2.277   9.130  0.1632  0.3155 -0.4268
 9148TIP3    H148935   2.373   2.235   9.158  1.2246  1.8427 -1.0873
 9148TIP3    H248936   2.293   2.363   9.172 -1.4643  0.1144  0.0940
 9149TIP3   OH248937   0.308   0.248  82.915  0.0338  0.1863 -0.0403
 9149TIP3    H148938   0.235   0.303  82.942 -1.3443 -1.0300 -1.1489
 9149TIP3    H248939   0.311   0.178  82.979  0.7262  0.6335  0.4301
 9150TIP3   OH248940   2.018   0.969  33.145  0.0242  0.6733 -0.1590
 9150TIP3    H148941   1.945   0.988  33.204  1.3920  1.7370  1.3091
 9150TIP3    H248942   2.028   0.874  33.149 -0.7438  0.6024  0.2983
 9151TIP3   OH248943   1.584   1.451  99.258  0.0324 -0.5012 -0.0045
 9151TIP3    H148944   1.574   1.409  99.172 -0.0939 -0.8652  0.1894
 9151TIP3    H248945   1.495   1.470  99.286 -0.0560 -1.9997  0.8373
 9152TIP3   OH248946   2.444   2.229  45.603  1.0398  0.4042  0.2931
 9152TIP3    H148947   2.421   2.289  45.532 -2.4531  0.0538  0.9494
 9152TIP3    H248948   2.453   2.143  45.561  0.0718  0.3828  0.1245
 9153TIP3   OH248949   2.679   0.067  26.480 -0.6076  0.1165  0.1408
 9153TIP3    H148950   2.750   0.047  26.419 -1.0022 -1.3359  0.1415
 9153TIP3    H248951   2.678  -0.005  26.542 -0.0832  1.6558  2.0578
 9154TIP3   OH248952   0.677   2.644  14.246 -0.4549  0.2303 -0.2757
 9154TIP3    H148953   0.758   2.667  14.292 -0.5012 -1.3375  0.6292
 9154TIP3    H248954   0.707   2.609  14.162 -0.0943 -1.5067  0.5445
 9155TIP3   OH248955   1.875   0.933  33.649 -0.3364  0.3760  0.0448
 9155TIP3    H148956   1.884   1.021  33.611  1.0285  0.6165  0.8476
 9155TIP3    H248957   1.949   0.884  33.613  0.0065  0.1215  1.0576
 9156TIP3   OH248958   2.397   1.380  33.057  0.0779  0.2931 -0.8988
 9156TIP3    H148959   2.412   1.290  33.025 -1.5961 -0.0777 -0.7113
 9156TIP3    H248960   2.418   1.376  33.150 -1.1575 -0.2390 -0.6205
 9157TIP3   OH248961   0.039   2.390 104.735  0.1099 -0.0144 -0.1651
 9157TIP3    H148962   0.030   2.475 104.690  2.3474 -0.9974 -2.7733
 9157TIP3    H248963  -0.047   2.349 104.724 -0.4177  1.1399 -0.6022
 9158TIP3   OH248964   0.114   2.374  10.123  0.4030 -0.2337 -0.5406
 9158TIP3    H148965   0.175   2.425  10.070  0.3602 -1.0090 -1.3445
 9158TIP3    H248966   0.146   2.385  10.213  0.1287  1.5654 -0.6219
 9159TIP3   OH248967   2.684   1.069 102.129 -0.1676  0.4590  0.4716
 9159TIP3    H148968   2.758   1.017 102.098 -0.9982  0.0600 -0.9019
 9159TIP3    H248969   2.625   1.005 102.168 -0.8538  0.4523 -0.5581
 9160TIP3   OH248970   2.144   0.080  24.565  0.4959  0.2619  0.3178
 9160TIP3    H148971   2.165   0.050  24.654  1.0222  0.2914  0.2047
 9160TIP3    H248972   2.055   0.115  24.572  0.6683  0.5932  0.9129
 9161TIP3   OH248973   0.865   1.192  52.494 -0.3008  0.1412 -0.3339
 9161TIP3    H148974   0.911   1.123  52.445 -0.4874 -0.2950  0.0964
 9161TIP3    H248975   0.933   1.234  52.546 -0.2579 -0.0152 -0.2612
 9162TIP3   OH248976   1.494   0.990  83.356  0.0299  0.6675 -0.1773
 9162TIP3    H148977   1.518   0.943  83.436 -1.7741  0.2763  0.1686
 9162TIP3    H248978   1.450   1.069  83.387 -1.9959 -0.1827 -0.7169
 9163TIP3   OH248979   0.887   1.266  27.278 -0.4021  0.6782 -0.1916
 9163TIP3    H148980   0.952   1.303  27.338 -0.7609  0.6156  0.2466
 9163TIP3    H248981   0.938   1.215  27.216 -0.1560 -1.2558  1.4931
 9164TIP3   OH248982   0.741   0.450  24.473  0.0752 -0.1694  0.2255
 9164TIP3    H148983   0.826   0.491  24.456 -0.5027  0.4073 -1.4597
 9164TIP3    H248984   0.725   0.394  24.398 -0.8212 -0.6552  0.7583
 9165TIP3   OH248985   0.421   0.728  51.945 -0.7715 -0.7982 -0.3944
 9165TIP3    H148986   0.384   0.770  51.867 -0.0121 -1.1874 -0.9794
 9165TIP3    H248987   0.498   0.681  51.912  0.1659 -0.1172  0.7664
 9166TIP3   OH248988   1.113   1.848  76.431  0.0248 -0.1291  0.6867
 9166TIP3    H148989   1.078   1.788  76.497 -0.4150 -0.1411  0.4426
 9166TIP3    H248990   1.037   1.897  76.400  0.2458 -0.0508  0.2577
 9167TIP3   OH248991   1.012   1.611  69.794  0.2060  0.3794  0.3822
 9167TIP3    H148992   0.976   1.538  69.744  2.1176  0.4611 -1.2245
 9167TIP3    H248993   1.075   1.571  69.853  2.9623  0.7712 -2.0644
 9168TIP3   OH248994   1.692   2.602  45.537 -0.0279 -0.1534  0.3506
 9168TIP3    H148995   1.670   2.510  45.525  3.5634 -1.2177  0.6451
 9168TIP3    H248996   1.683   2.641  45.450 -2.5499 -0.4557  0.4179
 9169TIP3   OH248997   0.515   1.327 109.082  0.0393 -0.4438  0.3867
 9169TIP3    H148998   0.455   1.321 109.007 -0.0196  0.0644  0.3919
 9169TIP3    H248999   0.556   1.241 109.086  1.2466  0.0040 -1.2383
 9170TIP3   OH249000   1.352   2.216   8.000  0.1957 -0.1651 -0.1274
 9170TIP3    H149001   1.420   2.199   8.065 -0.3599 -0.4793  0.3847
 9170TIP3    H249002   1.336   2.131   7.959  0.3870 -0.0126 -0.5160
 9171TIP3   OH249003   0.548   0.829  83.044  0.5995 -0.4887  0.3577
 9171TIP3    H149004   0.518   0.911  83.082  3.1395  0.1662  1.1425
 9171TIP3    H249005   0.544   0.766  83.116  1.8072 -0.1810  0.7230
 9172TIP3   OH249006   1.847   1.984   9.211 -0.1036  0.1513  0.5886
 9172TIP3    H149007   1.928   2.035   9.215 -0.2526  0.4412 -0.0267
 9172TIP3    H249008   1.792   2.021   9.280  0.3836 -0.2261  1.1912
 9173TIP3   OH249009   2.363   1.742 106.946 -0.5066 -0.4268 -0.0124
 9173TIP3    H149010   2.348   1.831 106.917 -2.7561 -0.6455  0.2260
 9173TIP3    H249011   2.373   1.691 106.866 -0.7982 -0.1680 -0.2147
 9174TIP3   OH249012   0.462   2.502  81.105 -0.2000  0.5168 -0.3718
 9174TIP3    H149013   0.511   2.443  81.049 -0.8464 -3.0519  2.4247
 9174TIP3    H249014   0.529   2.549  81.155  0.3180  1.9125 -2.2852
 9175TIP3   OH249015   1.895   0.905  58.015 -0.3442 -0.2474 -0.3777
 9175TIP3    H149016   1.851   0.830  58.052 -0.0524  0.7404  2.1715
 9175TIP3    H249017   1.849   0.981  58.052  1.2879  0.7965 -0.3814
 9176TIP3   OH249018   1.438   1.456  22.860 -0.4057 -0.3651  0.2083
 9176TIP3    H149019   1.479   1.472  22.775 -1.2447  0.0983 -0.1237
 9176TIP3    H249020   1.482   1.378  22.894  0.6913  0.0763 -0.1563
 9177TIP3   OH249021   2.358   1.573  29.620  0.1184  0.1970 -0.1125
 9177TIP3    H149022   2.373   1.482  29.648 -1.5109  0.1774  0.8240
 9177TIP3    H249023   2.302   1.565  29.542  0.5337  0.3885 -0.4330
 9178TIP3   OH249024   0.448   2.620   0.903  0.0396  0.0687 -0.1487
 9178TIP3    H149025   0.506   2.642   0.975  0.2719 -0.8533 -0.0459
 9178TIP3    H249026   0.410   2.704   0.876  0.4845  0.5090  0.5777
 9179TIP3   OH249027   0.494   0.454  78.554  0.9862  0.1625  0.1971
 9179TIP3    H149028   0.473   0.503  78.475 -0.2237 -0.8267 -0.1278
 9179TIP3    H249029   0.589   0.442  78.550  1.1925  1.6500 -0.1718
 9180TIP3   OH249030   1.627   0.606  91.186  0.1669 -0.0777  0.2117
 9180TIP3    H149031   1.615   0.546  91.112  1.6611 -0.0605 -0.0651
 9180TIP3    H249032   1.575   0.566  91.256  0.8917 -1.5720 -0.0556
 9181TIP3   OH249033   1.521   2.394 107.033  0.0283 -0.2916 -0.1554
 9181TIP3    H149034   1.607   2.422 107.064  0.0877 -1.1877  0.5323
 9181TIP3    H249035   1.537   2.355 106.947  0.6087 -2.0714  0.7175
 9182TIP3   OH249036   0.567   1.971 109.701 -0.0453  0.4340  0.1091
 9182TIP3    H149037   0.623   1.894 109.696 -0.0009  0.5189 -1.2085
 9182TIP3    H249038   0.484   1.937 109.735 -0.0267 -0.2061 -0.4469
 9183TIP3   OH249039   2.121   1.020  32.315 -0.2675  0.1140 -0.5969
 9183TIP3    H149040   2.167   1.099  32.343  2.1365 -0.8194 -1.6413
 9183TIP3    H249041   2.165   0.949  32.362 -2.7246 -0.6437  0.7365
 9184TIP3   OH249042   1.715   2.256  11.406  0.4845 -0.0874  0.1166
 9184TIP3    H149043   1.663   2.233  11.483  0.4859  0.2479  0.2188
 9184TIP3    H249044   1.768   2.178  11.389  0.4771 -0.1673  0.4478
 9185TIP3   OH249045   1.863   0.005  16.834 -0.2727  0.2295 -0.3058
 9185TIP3    H149046   1.883   0.067  16.904 -0.8314 -1.5096  1.4613
 9185TIP3    H249047   1.949  -0.025  16.803 -0.0152  1.3207 -0.6899
 9186TIP3   OH249048   1.149   2.215  83.092 -0.1128  0.3080 -0.4198
 9186TIP3    H149049   1.144   2.138  83.148 -1.1704  0.5001 -0.2236
 9186TIP3    H249050   1.061   2.253  83.097  0.3709  1.4698 -0.5952
 9187TIP3   OH249051   2.173   2.282  21.872  0.0744  0.7428  0.2615
 9187TIP3    H149052   2.228   2.310  21.799 -1.8866  0.6936 -1.3328
 9187TIP3    H249053   2.103   2.347  21.876  0.3778  0.9964  2.4524
 9188TIP3   OH249054   2.124   0.162  42.668 -0.3399 -0.0025 -0.3571
 9188TIP3    H149055   2.119   0.219  42.591 -1.7786  0.7573  0.2683
 9188TIP3    H249056   2.037   0.168  42.708  0.6141  0.2796  1.7915
 9189TIP3   OH249057   0.429   0.369  87.233 -0.1021 -0.0420 -0.0521
 9189TIP3    H149058   0.404   0.287  87.277 -1.0535  0.9294  1.2993
 9189TIP3    H249059   0.521   0.358  87.211  0.4175 -0.5933  2.2124
 9190TIP3   OH249060   2.491   0.342  85.315  0.1062 -0.5612 -0.2531
 9190TIP3    H149061   2.425   0.308  85.376 -1.1299 -0.4381 -1.4460
 9190TIP3    H249062   2.450   0.332  85.229  1.4592  0.0235 -0.9909
 9191TIP3   OH249063   2.273   2.448  63.032 -0.5069  0.3100  0.9765
 9191TIP3    H149064   2.253   2.541  63.039 -0.0504  0.2955  2.9932
 9191TIP3    H249065   2.362   2.446  62.996 -1.1383  0.5595 -0.7140
 9192TIP3   OH249066   1.084   1.107 105.893 -0.1755  0.4463  0.3458
 9192TIP3    H149067   0.997   1.068 105.888 -0.5565  0.9889  2.0059
 9192TIP3    H249068   1.144   1.036 105.872 -0.9455 -0.4396  1.0648
 9193TIP3   OH249069   0.180   0.821  63.092 -0.0024  0.4219  0.3922
 9193TIP3    H149070   0.142   0.746  63.046  4.1004 -2.0969  0.5784
 9193TIP3    H249071   0.189   0.790  63.183 -4.4044  3.8826  2.4102
 9194TIP3   OH249072   0.185   1.405  90.334 -0.4847  0.0176  0.0354
 9194TIP3    H149073   0.220   1.386  90.247  1.0527 -0.5763  0.7665
 9194TIP3    H249074   0.166   1.319  90.372 -0.5258  0.2437  0.5366
 9195TIP3   OH249075   0.955   0.601  90.909  0.2278  0.1578  0.4632
 9195TIP3    H149076   0.931   0.513  90.936 -1.0923  0.2902 -0.2261
 9195TIP3    H249077   0.993   0.640  90.988 -1.1084 -0.3298  1.3750
 9196TIP3   OH249078   2.677   0.992  47.437  0.2825  0.5594 -0.9856
 9196TIP3    H149079   2.619   1.000  47.361 -0.8839 -0.3885 -0.2311
 9196TIP3    H249080   2.633   0.928  47.494 -0.7451  3.7079  2.1468
 9197TIP3   OH249081   1.256   0.413  37.494 -0.2960  0.0904  0.2115
 9197TIP3    H149082   1.228   0.433  37.583 -1.0063 -0.0738  0.0350
 9197TIP3    H249083   1.316   0.339  37.503 -2.0295 -1.3679  0.3864
 9198TIP3   OH249084   0.777   1.728 107.647 -0.3999 -0.1479 -0.1443
 9198TIP3    H149085   0.857   1.717 107.595  0.7092 -0.3647  1.5435
 9198TIP3    H249086   0.784   1.662 107.715 -1.5753  0.4581  0.5779
 9199TIP3   OH249087   0.336   0.910   5.892  0.4671  0.1012 -0.5023
 9199TIP3    H149088   0.322   0.823   5.930  0.0302  0.1574 -0.5318
 9199TIP3    H249089   0.317   0.898   5.799  2.3866 -0.2470 -0.8965
 9200TIP3   OH249090   1.134   2.329  24.579 -0.1742 -0.0869  0.1485
 9200TIP3    H149091   1.136   2.363  24.489  1.0487  0.6747  0.4450
 9200TIP3    H249092   1.207   2.268  24.583  1.4247  1.7970  1.3191
 9201TIP3   OH249093   0.373   2.230  91.172 -0.5540 -0.3866  0.1601
 9201TIP3    H149094   0.280   2.250  91.177 -0.2720  1.3714 -1.0345
 9201TIP3    H249095   0.379   2.159  91.108 -0.9922  0.0194 -0.3313
 9202TIP3   OH249096   0.749   1.577  28.768  0.2860  0.2642  0.6257
 9202TIP3    H149097   0.774   1.562  28.859 -3.0511 -0.6087  1.5553
 9202TIP3    H249098   0.707   1.663  28.768 -0.6157 -0.1615  0.1331
 9203TIP3   OH249099   1.404   1.833  26.429  0.4849 -0.1143 -0.0744
 9203TIP3    H149100   1.394   1.850  26.523  1.0669 -3.0043  0.6000
 9203TIP3    H249101   1.329   1.878  26.389  0.0800  0.9824  1.7709
 9204TIP3   OH249102   2.473   2.120 101.060 -0.1744  0.6044  0.0125
 9204TIP3    H149103   2.421   2.145 101.136 -1.0803  1.0567 -0.7385
 9204TIP3    H249104   2.542   2.064 101.096 -0.1589  1.3906  1.2517
 9205TIP3   OH249105   1.737   2.055 100.181  0.0812  0.4202  0.1664
 9205TIP3    H149106   1.726   1.977 100.127  0.0422 -0.4421  1.3960
 9205TIP3    H249107   1.831   2.064 100.193  0.0934  0.6482 -0.0790
 9206TIP3   OH249108   1.429   0.026  94.488  0.7426 -0.2662  0.5275
 9206TIP3    H149109   1.454  -0.052  94.538  1.6563  0.9185  2.0235
 9206TIP3    H249110   1.513   0.068  94.466  0.2447  0.9505  0.8614
 9207TIP3   OH249111   0.020   2.277  30.216  0.4065  0.7566 -0.6928
 9207TIP3    H149112   0.035   2.351  30.275 -0.1712 -0.3996  1.0016
 9207TIP3    H249113   0.108   2.251  30.187  0.7376  1.1556 -0.0693
 9208TIP3   OH249114   0.033   0.093  35.097  0.1737  0.1882 -0.1770
 9208TIP3    H149115  -0.004   0.084  35.009 -1.3631 -1.0566  0.5396
 9208TIP3    H249116   0.123   0.124  35.082  0.7907 -2.2157 -2.3385
 9209TIP3   OH249117   0.088   1.153  20.756 -0.2262 -0.4658  0.2637
 9209TIP3    H149118   0.009   1.206  20.741 -0.6228 -1.1600 -0.1089
 9209TIP3    H249119   0.149   1.214  20.799 -0.0911  0.7547 -1.5659
 9210TIP3   OH249120   0.468   2.153   3.103  0.4095  0.3986 -0.3535
 9210TIP3    H149121   0.490   2.164   3.195 -0.6418 -0.7857  0.0741
 9210TIP3    H249122   0.450   2.241   3.071 -0.0040  0.7406  0.7913
 9211TIP3   OH249123   1.418   1.884   5.874  0.2724  0.2944 -0.5792
 9211TIP3    H149124   1.391   1.816   5.812  0.5371  1.0151 -1.5059
 9211TIP3    H249125   1.507   1.859   5.901  0.2307  0.0824 -0.6405
 9212TIP3   OH249126   2.198   1.758  25.600 -0.5150  0.2799  0.1549
 9212TIP3    H149127   2.212   1.667  25.573 -1.4410 -0.2436  1.3763
 9212TIP3    H249128   2.270   1.776  25.661 -0.2239  0.4291 -0.2327
 9213TIP3   OH249129   0.895   0.555  88.100 -0.5790  0.1130  0.0569
 9213TIP3    H149130   0.975   0.604  88.120 -0.5166  0.0993 -0.1611
 9213TIP3    H249131   0.922   0.463  88.100 -0.1079  0.1895 -2.1538
 9214TIP3   OH249132   0.950   1.078  32.106 -0.4548 -0.3925  0.4300
 9214TIP3    H149133   0.893   1.027  32.163 -1.1205 -0.9378 -0.6907
 9214TIP3    H249134   0.958   1.163  32.150  0.4133 -1.3259  2.1609
 9215TIP3   OH249135   0.146   1.567  15.160  0.1685 -0.1868 -0.4307
 9215TIP3    H149136   0.087   1.573  15.235  0.3551  0.1295 -0.3080
 9215TIP3    H249137   0.208   1.498  15.183  0.0646 -0.2693 -0.4039
 9216TIP3   OH249138   2.157   0.951 106.904 -0.1298 -0.5889  0.5501
 9216TIP3    H149139   2.145   0.856 106.907 -1.6942 -0.4278  0.3522
 9216TIP3    H249140   2.229   0.969 106.964 -0.4296 -1.8037  1.2939
 9217TIP3   OH249141   0.212   0.670  13.793 -0.5637 -0.6392 -0.0056
 9217TIP3    H149142   0.212   0.723  13.714  0.0870 -0.1076  0.3422
 9217TIP3    H249143   0.301   0.677  13.827 -1.5619  1.8165  2.5209
 9218TIP3   OH249144   2.481   2.077   9.186  0.5633 -1.2259  0.1519
 9218TIP3    H149145   2.542   2.086   9.113 -0.7273 -0.1404 -0.8583
 9218TIP3    H249146   2.410   2.023   9.151 -0.3432 -0.2164  0.3768
 9219TIP3   OH249147   1.724   2.641   6.842 -0.2605 -0.2385 -0.1158
 9219TIP3    H149148   1.779   2.659   6.766 -0.2992 -0.5673 -0.2237
 9219TIP3    H249149   1.744   2.551   6.865 -2.2755 -1.1202 -1.4575
 9220TIP3   OH249150   2.250   0.004  17.195 -0.2498  0.1901 -0.0084
 9220TIP3    H149151   2.198  -0.056  17.248  0.0496  0.8273  1.0403
 9220TIP3    H249152   2.321  -0.051  17.159 -0.0827 -0.1306  0.7871
 9221TIP3   OH249153   2.600   0.500  97.627  0.4567 -0.1487 -0.2024
 9221TIP3    H149154   2.512   0.468  97.648 -0.0704  0.2519 -1.7229
 9221TIP3    H249155   2.636   0.434  97.568  1.3759 -0.5306  0.7387
 9222TIP3   OH249156   0.760   1.239   9.982 -0.1653 -0.4400 -0.9981
 9222TIP3    H149157   0.852   1.241   9.953 -0.0052 -1.4814 -0.6185
 9222TIP3    H249158   0.765   1.240  10.077 -0.6028  0.5627 -0.9721
 9223TIP3   OH249159   0.318   0.219  92.717  0.2107  0.0297 -0.2163
 9223TIP3    H149160   0.282   0.299  92.756  0.6729 -0.2993  0.9461
 9223TIP3    H249161   0.370   0.249  92.643  0.7819  0.8496  0.5149
 9224TIP3   OH249162   2.155   1.637   9.166 -0.5312 -0.0284  0.1036
 9224TIP3    H149163   2.119   1.661   9.081 -1.7245 -2.6495 -0.2094
 9224TIP3    H249164   2.192   1.550   9.153  1.0933  0.3262  1.8151
 9225TIP3   OH249165   1.901   1.681  79.854 -0.3993 -0.1035  0.2914
 9225TIP3    H149166   1.991   1.661  79.880 -0.3804 -0.2145  0.1409
 9225TIP3    H249167   1.847   1.620  79.904 -0.2952 -1.0462 -0.7183
 9226TIP3   OH249168   1.473   1.066 103.384 -0.2020  0.0856  0.1806
 9226TIP3    H149169   1.568   1.074 103.380 -0.2975  2.1793  0.9323
 9226TIP3    H249170   1.454   1.055 103.478 -0.7288  0.1876  0.0902
 9227TIP3   OH249171   2.313   2.354  95.536 -0.1421  0.3918  0.1998
 9227TIP3    H149172   2.237   2.317  95.582  0.1535 -0.1964  0.2223
 9227TIP3    H249173   2.293   2.340  95.444 -0.2025  0.5310  0.1900
 9228TIP3   OH249174   0.991   2.441  33.350  0.3844 -0.0962 -0.0761
 9228TIP3    H149175   1.072   2.457  33.302 -0.6405  0.2924 -1.7515
 9228TIP3    H249176   0.956   2.528  33.368 -0.0437 -0.2676 -0.0598
 9229TIP3   OH249177   0.160   0.295   4.795 -0.3615  0.2935 -0.0820
 9229TIP3    H149178   0.202   0.359   4.852  0.4143 -0.8712  0.7099
 9229TIP3    H249179   0.227   0.274   4.729 -0.8097  0.6962 -0.6808
 9230TIP3   OH249180   0.821   1.412  18.085  0.2870  0.2338 -0.7673
 9230TIP3    H149181   0.730   1.409  18.113  0.4906 -1.1948 -0.1930
 9230TIP3    H249182   0.857   1.491  18.126 -0.1427 -0.3373  0.7569
 9231TIP3   OH249183   0.962   2.341 106.059  0.1640  0.2495  0.0808
 9231TIP3    H149184   1.046   2.362 106.101  0.1494  2.0725 -0.7080
 9231TIP3    H249185   0.923   2.426 106.040 -1.6330 -0.5698 -0.0750
 9232TIP3   OH249186   1.663   0.208 110.823  0.0028  0.1487  0.6631
 9232TIP3    H149187   1.737   0.163 110.782  0.0502  0.1730  0.7218
 9232TIP3    H249188   1.668   0.182 110.915 -1.2219 -1.4710  0.3227
 9233TIP3   OH249189   0.586   2.405  30.711 -0.2624  0.4879 -0.2389
 9233TIP3    H149190   0.618   2.436  30.796 -0.6954  0.4077 -0.0398
 9233TIP3    H249191   0.529   2.476  30.680 -0.3681  0.3761 -0.3033
 9234TIP3   OH249192   1.330   0.251   6.952  0.3924 -0.3080  0.3697
 9234TIP3    H149193   1.394   0.281   6.886 -0.4392  0.0291 -0.3021
 9234TIP3    H249194   1.322   0.157   6.936 -0.4634 -0.0876 -0.6283
 9235TIP3   OH249195   0.935   1.113   4.212 -0.0822  0.2806 -0.2345
 9235TIP3    H149196   0.869   1.166   4.168  0.4012 -0.1519 -1.5254
 9235TIP3    H249197   0.921   1.024   4.179 -0.6485 -0.3636  1.6180
 9236TIP3   OH249198   1.582   0.827  96.253 -0.1526 -0.2909  0.2304
 9236TIP3    H149199   1.610   0.841  96.343  0.2989  1.1564 -0.1097
 9236TIP3    H249200   1.596   0.734  96.237  2.3655 -0.0874  0.8135
 9237TIP3   OH249201   0.350   0.936  33.959  0.2084  0.7916 -0.0497
 9237TIP3    H149202   0.381   1.025  33.975 -0.5030  0.6186  2.8848
 9237TIP3    H249203   0.326   0.902  34.045 -0.9334 -1.7501 -1.2231
 9238TIP3   OH249204   1.959   1.517  89.115  0.1842 -0.3952  0.0829
 9238TIP3    H149205   1.908   1.437  89.099  1.0774 -0.7320 -1.2896
 9238TIP3    H249206   2.034   1.487  89.166 -0.3171 -0.1225  0.9979
 9239TIP3   OH249207   2.425   1.402  78.725  0.0677 -0.7925 -0.4511
 9239TIP3    H149208   2.419   1.432  78.815 -0.2518 -0.8004 -0.4704
 9239TIP3    H249209   2.341   1.426  78.686  0.1084 -1.0137 -0.6794
 9240TIP3   OH249210   1.750   2.386   0.060  0.2099  0.3034 -0.3654
 9240TIP3    H149211   1.760   2.478   0.038 -1.8748  1.4293  2.7288
 9240TIP3    H249212   1.662   2.363   0.030 -0.2734  0.1304  1.0778
 9241TIP3   OH249213   0.388   0.193 108.079 -0.0669  0.0767  0.0256
 9241TIP3    H149214   0.319   0.129 108.099  0.4077 -0.4560 -0.0424
 9241TIP3    H249215   0.366   0.269 108.133 -0.6534 -0.1275  0.0812
 9242TIP3   OH249216   0.597   1.523 103.528 -0.0458 -0.0905 -0.0440
 9242TIP3    H149217   0.512   1.521 103.572  0.5620 -0.7205  1.1476
 9242TIP3    H249218   0.625   1.431 103.526 -0.2560 -0.1569 -2.2017
 9243TIP3   OH249219   1.620   1.821  74.887 -0.0429 -0.1302 -0.4188
 9243TIP3    H149220   1.582   1.902  74.919  0.1599 -0.7813  1.6165
 9243TIP3    H249221   1.573   1.752  74.934 -0.1836 -1.2265 -2.0555
 9244TIP3   OH249222   1.757   2.597 107.065 -0.2999 -0.1684 -0.0633
 9244TIP3    H149223   1.833   2.541 107.051 -0.4254 -0.8893  1.9180
 9244TIP3    H249224   1.794   2.685 107.074  0.2291 -0.4022  0.1170
 9245TIP3   OH249225   1.828   2.226  90.375 -0.0642 -0.0618 -0.0226
 9245TIP3    H149226   1.847   2.254  90.464  0.3895  1.6569 -0.6166
 9245TIP3    H249227   1.788   2.139  90.385  0.3754 -0.0980  1.8019
 9246TIP3   OH249228   1.523   0.387  81.078 -0.3691 -0.6932 -0.5911
 9246TIP3    H149229   1.485   0.447  81.012 -1.4599 -0.2743  0.3907
 9246TIP3    H249230   1.501   0.428  81.162 -2.0601 -2.9631  0.1656
 9247TIP3   OH249231   0.862   2.519  95.429 -0.0954  0.0003  0.4266
 9247TIP3    H149232   0.858   2.610  95.400 -0.4874  0.3679  1.5825
 9247TIP3    H249233   0.951   2.508  95.463 -0.1099  0.0153  0.4698
 9248TIP3   OH249234   1.812   2.443 101.129 -0.1485  0.4463  0.4408
 9248TIP3    H149235   1.787   2.371 101.071  1.1596  0.6533 -0.4192
 9248TIP3    H249236   1.733   2.495 101.138 -0.9653 -0.7808  0.6150
 9249TIP3   OH249237   2.003   0.265  34.523  0.4461 -0.4043 -0.8953
 9249TIP3    H149238   1.991   0.307  34.608  1.4324 -0.0988 -0.8985
 9249TIP3    H249239   2.080   0.309  34.486 -0.4504  0.0573 -2.2934
 9250TIP3   OH249240   0.045   0.908  21.858  0.1532 -0.3138  0.0154
 9250TIP3    H149241  -0.023   0.885  21.795 -0.0607 -0.9789  0.4832
 9250TIP3    H249242   0.038   0.842  21.927  0.5399  0.2647  0.6243
 9251TIP3   OH249243   2.366   0.841  83.231  0.3166 -0.0661  0.5484
 9251TIP3    H149244   2.350   0.858  83.138  2.5244 -4.2287 -0.8401
 9251TIP3    H249245   2.446   0.889  83.251  0.7684 -0.4665 -0.2402
 9252TIP3   OH249246   1.168   1.017 102.434  0.0464 -0.1001  0.1354
 9252TIP3    H149247   1.240   1.079 102.426  0.3280 -0.4214  0.1507
 9252TIP3    H249248   1.121   1.024 102.351 -0.9236  1.3585  0.7635
 9253TIP3   OH249249   0.679   1.684  82.280  0.5581 -0.0227  0.0068
 9253TIP3    H149250   0.709   1.678  82.190 -0.1587 -2.1343 -0.1679
 9253TIP3    H249251   0.638   1.770  82.287  0.3490  0.0479 -1.7769
 9254TIP3   OH249252   0.928   0.321   6.055  0.2526  0.1133  0.2216
 9254TIP3    H149253   1.008   0.273   6.076  0.9324  0.7849 -0.7589
 9254TIP3    H249254   0.906   0.292   5.966 -0.4432  0.1448  0.3780
 9255TIP3   OH249255   1.377   2.443  75.508  0.0199 -0.6158  0.1934
 9255TIP3    H149256   1.301   2.398  75.545 -0.9384 -0.4112 -1.4061
 9255TIP3    H249257   1.344   2.483  75.428  1.3079  1.3167  0.5597
 9256TIP3   OH249258   0.724   0.652  23.314  0.3265 -0.3376 -0.4165
 9256TIP3    H149259   0.765   0.732  23.347  0.2432 -0.2404 -0.5508
 9256TIP3    H249260   0.783   0.623  23.244 -0.9692  1.0244 -2.1665
 9257TIP3   OH249261   1.287   0.473  83.293  0.1700  0.3924 -0.1463
 9257TIP3    H149262   1.364   0.530  83.301  0.4086 -0.2232  3.3508
 9257TIP3    H249263   1.226   0.505  83.359 -1.0902 -1.3470 -0.3959
 9258TIP3   OH249264   1.359   1.300  13.620 -0.3471 -0.5115 -0.3739
 9258TIP3    H149265   1.334   1.341  13.537 -1.8002  1.1034  0.8038
 9258TIP3    H249266   1.276   1.282  13.665  0.4132  0.8431  1.7293
 9259TIP3   OH249267   2.572   0.553  86.918  0.2813  0.1632  0.0543
 9259TIP3    H149268   2.577   0.610  86.842 -1.9630 -0.4221 -0.6120
 9259TIP3    H249269   2.557   0.613  86.992 -0.5039  0.5604 -0.4111
 9260TIP3   OH249270   1.685   1.143  35.741  0.2935  0.1701 -0.0185
 9260TIP3    H149271   1.621   1.135  35.670  0.7394  1.3476 -0.5791
 9260TIP3    H249272   1.664   1.227  35.782  1.2649  0.4071  0.0012
 9261TIP3   OH249273   1.103   1.156  85.140  0.1872  0.4094 -0.3992
 9261TIP3    H149274   1.010   1.133  85.138  0.2745 -0.1991  1.1089
 9261TIP3    H249275   1.148   1.072  85.154  0.8908  0.8071 -0.2310
 9262TIP3   OH249276   1.029   0.044  12.991  0.4297 -0.8385 -0.4846
 9262TIP3    H149277   0.999   0.109  12.927  1.7850  0.8793  0.5459
 9262TIP3    H249278   0.997   0.077  13.075  2.4164 -0.6694  0.2398
 9263TIP3   OH249279   2.432   1.242  81.575 -0.1890  0.1016 -0.2107
 9263TIP3    H149280   2.429   1.148  81.555  1.5604  0.1680 -0.9523
 9263TIP3    H249281   2.430   1.246  81.671 -0.2008 -0.6789 -0.1739
 9264TIP3   OH249282   0.253   1.391   9.848  0.0219 -0.2761 -0.1598
 9264TIP3    H149283   0.343   1.399   9.879 -0.3941  2.8595  0.5428
 9264TIP3    H249284   0.260   1.384   9.753  1.0095 -1.4214 -0.0245
 9265TIP3   OH249285   0.935   1.347 105.570 -0.2495 -0.4818  0.3460
 9265TIP3    H149286   0.981   1.276 105.527 -0.9952 -0.3921 -0.6299
 9265TIP3    H249287   0.847   1.312 105.587 -0.3856 -0.0467  0.5519
 9266TIP3   OH249288   1.093   2.447  12.929  0.8054 -0.1895 -0.4892
 9266TIP3    H149289   1.059   2.395  13.002  1.8834  0.3589  0.4395
 9266TIP3    H249290   1.080   2.538  12.957  1.3474  0.0221 -0.9141
 9267TIP3   OH249291   2.202   2.398  41.335  0.5647  0.1997  0.1705
 9267TIP3    H149292   2.217   2.450  41.414  1.6592 -0.5843  0.5111
 9267TIP3    H249293   2.121   2.350  41.352  1.1114 -0.4309  1.1056
 9268TIP3   OH249294   2.146   1.915  17.475 -0.6693  0.3331 -0.3854
 9268TIP3    H149295   2.180   2.003  17.458 -0.7261  0.0274 -2.2666
 9268TIP3    H249296   2.162   1.901  17.569  1.9387  1.2377 -0.6139
 9269TIP3   OH249297   1.404   1.909  78.264  0.1445 -0.1512  0.4235
 9269TIP3    H149298   1.329   1.947  78.310 -0.0707 -0.6631  0.5014
 9269TIP3    H249299   1.459   1.873  78.334  1.4480  1.9002  0.5331
 9270TIP3   OH249300   2.427   1.342  28.510  0.2489 -0.6097 -0.1470
 9270TIP3    H149301   2.401   1.276  28.446 -2.1797  0.2090 -0.1202
 9270TIP3    H249302   2.447   1.292  28.589 -1.1553 -1.3942 -0.2496
 9271TIP3   OH249303   1.107   0.474  25.607  0.0943  0.0436  0.0005
 9271TIP3    H149304   1.195   0.449  25.577  0.1285  0.3440 -0.1548
 9271TIP3    H249305   1.082   0.547  25.550 -0.1119  0.1928  0.2805
 9272TIP3   OH249306   1.538   0.447  21.464  0.2892  0.2084  0.5773
 9272TIP3    H149307   1.626   0.424  21.495  0.1775 -0.3693  0.4756
 9272TIP3    H249308   1.480   0.383  21.505  0.1594 -0.7386 -0.9808
 9273TIP3   OH249309   2.105   2.384 103.675 -0.9122  0.4122 -0.8556
 9273TIP3    H149310   2.183   2.432 103.701 -1.5862  1.2979 -0.3896
 9273TIP3    H249311   2.129   2.342 103.592 -0.0860  1.0455 -0.9595
 9274TIP3   OH249312   2.564   1.283  14.612  0.0609  0.0752 -0.2537
 9274TIP3    H149313   2.559   1.268  14.518 -0.5842  0.9557 -0.3645
 9274TIP3    H249314   2.504   1.218  14.650 -0.5893  0.5089 -0.5337
 9275TIP3   OH249315   0.255   2.184  84.174 -0.7369  0.3013 -0.0349
 9275TIP3    H149316   0.227   2.098  84.146  0.9242  0.3521 -2.0568
 9275TIP3    H249317   0.176   2.238  84.168 -1.3329 -0.6166 -0.7519
 9276TIP3   OH249318   2.132   0.467  96.001  0.0347  0.1246 -0.4234
 9276TIP3    H149319   2.201   0.413  95.962  1.3991  1.5209 -0.0407
 9276TIP3    H249320   2.146   0.458  96.096  0.8317  1.7763 -0.3576
 9277TIP3   OH249321   0.504   1.548  95.505  0.1652 -0.3241  0.2756
 9277TIP3    H149322   0.590   1.589  95.515  0.4482 -1.1681  1.5485
 9277TIP3    H249323   0.490   1.500  95.587 -1.7060  0.1195  0.2709
 9278TIP3   OH249324   2.323   0.294 102.451 -0.2219 -0.4066 -0.2154
 9278TIP3    H149325   2.343   0.387 102.441 -1.8619  0.0794  0.5487
 9278TIP3    H249326   2.391   0.249 102.402  0.3214  1.2195 -1.0349
 9279TIP3   OH249327   1.394   0.848  98.848 -0.3616  0.0638 -0.0033
 9279TIP3    H149328   1.311   0.840  98.895 -0.4264  0.3286 -0.0670
 9279TIP3    H249329   1.429   0.759  98.845  0.7143  0.3319  2.4513
 9280TIP3   OH249330   0.630   2.314  29.876 -0.7595 -0.0699 -0.2585
 9280TIP3    H149331   0.583   2.238  29.911 -0.9068  0.3053  0.3835
 9280TIP3    H249332   0.720   2.284  29.865 -0.4102  0.1314  1.6281
 9281TIP3   OH249333   1.449   1.994  36.194  0.3925 -0.6598  0.0313
 9281TIP3    H149334   1.406   2.080  36.190  1.3660 -0.1405  0.4272
 9281TIP3    H249335   1.531   2.005  36.147  0.2365 -1.5712 -0.4823
 9282TIP3   OH249336   0.960   1.028  17.644 -0.0276 -0.2407 -0.2611
 9282TIP3    H149337   0.988   0.954  17.590 -1.8003 -1.7838  0.8150
 9282TIP3    H249338   0.872   1.004  17.673  0.1720  1.3256  1.8722
 9283TIP3   OH249339   2.511   0.482  68.157 -0.2970 -0.7094 -0.7319
 9283TIP3    H149340   2.588   0.473  68.100 -0.5043 -3.8902 -0.7113
 9283TIP3    H249341   2.441   0.437  68.110 -1.8975  1.1767 -0.2472
 9284TIP3   OH249342   1.086   1.617 109.491  0.3899 -0.1216 -0.4069
 9284TIP3    H149343   1.171   1.659 109.472  0.0166  0.6869 -0.3456
 9284TIP3    H249344   1.046   1.605 109.405  0.5876 -0.5513 -0.4360
 9285TIP3   OH249345   1.764   1.184  74.044  0.0877 -0.6762  0.0892
 9285TIP3    H149346   1.762   1.164  73.951  1.0069 -1.4849  0.2255
 9285TIP3    H249347   1.671   1.186  74.070 -0.3551  2.1529 -1.3330
 9286TIP3   OH249348   0.593   2.544 111.182  0.3789  0.0867  0.4893
 9286TIP3    H149349   0.522   2.496 111.224 -0.3103  1.7019  1.2244
 9286TIP3    H249350   0.553   2.627 111.155  1.8386  0.7805  0.3913
 9287TIP3   OH249351   0.918   2.296  87.518  0.7336 -0.2746 -0.3185
 9287TIP3    H149352   0.976   2.333  87.584 -0.9612  2.2431 -0.1004
 9287TIP3    H249353   0.899   2.207  87.549  3.6379 -0.8599  0.0540
 9288TIP3   OH249354   0.704   1.723  92.095  0.2393 -0.6453 -0.5556
 9288TIP3    H149355   0.668   1.782  92.161  0.6586 -0.1254 -0.7861
 9288TIP3    H249356   0.645   1.732  92.020 -0.4184 -1.4734 -0.1531
 9289TIP3   OH249357   0.587   1.391  78.249  0.1999 -0.6662  0.2429
 9289TIP3    H149358   0.636   1.335  78.188 -0.1076 -1.9151  1.0892
 9289TIP3    H249359   0.510   1.338  78.272 -0.6210  0.5307  0.3168
 9290TIP3   OH249360   0.517   2.203   5.531  0.1457  0.2366 -0.0372
 9290TIP3    H149361   0.519   2.180   5.624  0.5739 -0.9742 -0.3234
 9290TIP3    H249362   0.546   2.124   5.486  0.3925  0.9471 -1.1822
 9291TIP3   OH249363   2.007   0.370 105.689  0.1721 -0.2413  0.0518
 9291TIP3    H149364   2.032   0.350 105.779  0.8283  0.4904  0.0439
 9291TIP3    H249365   1.924   0.417 105.697  0.5788  0.4500  0.3331
 9292TIP3   OH249366   2.500   2.034  11.358 -0.4410  0.0124  0.1105
 9292TIP3    H149367   2.452   1.953  11.341  1.4427 -1.2847  0.6550
 9292TIP3    H249368   2.522   2.030  11.451  0.7234  0.5272 -0.1176
 9293TIP3   OH249369   0.935   2.038  26.557 -0.2328  0.1036  0.0957
 9293TIP3    H149370   0.960   1.969  26.619 -0.9401 -1.5905 -1.4099
 9293TIP3    H249371   0.857   2.077  26.596  1.0487  1.1696  1.7277
 9294TIP3   OH249372   0.416   0.831  23.857  0.3125  0.1163 -0.2723
 9294TIP3    H149373   0.325   0.854  23.838 -0.0631 -0.4184  0.8118
 9294TIP3    H249374   0.429   0.746  23.816  0.3550  0.2299 -0.4972
 9295TIP3   OH249375   2.203   0.021 104.546  0.0489  0.0131 -0.4064
 9295TIP3    H149376   2.274   0.077 104.515  0.4283 -0.1012  0.2369
 9295TIP3    H249377   2.185  -0.038 104.473  0.2855  0.3540 -0.7420
 9296TIP3   OH249378   2.231   1.487  18.590  0.6969 -0.1616  0.1722
 9296TIP3    H149379   2.244   1.567  18.538 -0.0525 -0.3365 -0.3078
 9296TIP3    H249380   2.267   1.417  18.536  0.4767 -0.2653  0.1569
 9297TIP3   OH249381   0.810   1.256 101.671 -0.3575 -0.7402  0.1947
 9297TIP3    H149382   0.774   1.344 101.677  0.0282 -0.6262  0.9729
 9297TIP3    H249383   0.870   1.249 101.745  2.0319 -0.5448 -1.6097
 9298TIP3   OH249384   1.093   2.180  74.697 -0.2741  0.8386  0.3028
 9298TIP3    H149385   1.123   2.093  74.669 -2.1707  0.3312 -0.2992
 9298TIP3    H249386   1.070   2.169  74.789  1.0296  1.1431  0.6777
 9299TIP3   OH249387   0.519   2.675  13.310  0.3624 -0.3263 -0.1823
 9299TIP3    H149388   0.555   2.761  13.332 -0.0533 -0.1659 -0.1267
 9299TIP3    H249389   0.567   2.648  13.231  1.7984 -0.8621  0.8207
 9300TIP3   OH249390   2.144   1.532  73.530  0.3323  0.3119 -0.1904
 9300TIP3    H149391   2.176   1.505  73.445 -1.1592  0.4068 -0.8107
 9300TIP3    H249392   2.059   1.573  73.512 -0.1517  0.0614  1.3635
 9301TIP3   OH249393   2.160   0.383 106.749 -0.1533  0.0328  0.1323
 9301TIP3    H149394   2.162   0.466 106.702  1.4436  0.0736  0.2095
 9301TIP3    H249395   2.211   0.323 106.694 -0.8080 -0.7482  0.3529
 9302TIP3   OH249396   0.338   2.356  97.398 -0.0738 -0.0044 -0.1276
 9302TIP3    H149397   0.341   2.408  97.317  0.5424  0.3414  0.1092
 9302TIP3    H249398   0.258   2.305  97.391  0.5173 -0.7944 -1.4565
 9303TIP3   OH249399   1.527   1.668 111.767 -0.3079  0.7117 -0.3223
 9303TIP3    H149400   1.567   1.631 111.846 -1.5854  0.2178  0.1136
 9303TIP3    H249401   1.571   1.622 111.695 -1.1698 -1.0265  0.1885
 9304TIP3   OH249402   2.172   0.974  91.041  0.2600  0.7496  0.2113
 9304TIP3    H149403   2.228   1.024  90.982 -0.6686  0.2793 -1.1398
 9304TIP3    H249404   2.140   1.037  91.105 -0.7882  1.9179 -1.3781
 9305TIP3   OH249405   2.592   2.067  36.322 -0.3684  0.0783 -0.0442
 9305TIP3    H149406   2.664   2.127  36.300  0.9271 -1.2794  0.3452
 9305TIP3    H249407   2.569   2.090  36.412  1.6376 -1.3885  0.9205
 9306TIP3   OH249408   2.179   0.227  14.461  0.1827  0.0759 -0.1275
 9306TIP3    H149409   2.245   0.191  14.402 -1.0663 -1.5129 -0.6379
 9306TIP3    H249410   2.173   0.163  14.532  0.5872  1.2097  0.9569
 9307TIP3   OH249411   0.813   0.652  84.991  0.4292 -0.6468 -0.3068
 9307TIP3    H149412   0.845   0.591  85.057  0.2014  0.0708  0.4876
 9307TIP3    H249413   0.739   0.608  84.950 -1.3180  0.0610  1.9557
 9308TIP3   OH249414   0.669   0.062  83.510  0.5025  0.2516 -0.4793
 9308TIP3    H149415   0.671   0.153  83.541  2.0976  0.2500 -0.4807
 9308TIP3    H249416   0.646   0.068  83.418 -0.0600  0.5893 -0.3194
 9309TIP3   OH249417   2.547   0.099  24.549  0.2902  0.4240  0.2428
 9309TIP3    H149418   2.642   0.105  24.540  0.2240  5.0623  0.1773
 9309TIP3    H249419   2.514   0.101  24.459  0.2187  3.2628  0.2363
 9310TIP3   OH249420   2.144   0.293  63.562 -0.0111  0.0580 -0.2253
 9310TIP3    H149421   2.157   0.325  63.651  2.4428 -0.5780 -0.2934
 9310TIP3    H249422   2.228   0.253  63.538 -1.1799 -1.3913 -2.1724
 9311TIP3   OH249423   2.621   1.470  34.500  0.1480 -0.0024 -0.0189
 9311TIP3    H149424   2.649   1.401  34.440 -1.6177  1.1633 -2.3556
 9311TIP3    H249425   2.532   1.445  34.526 -0.0640  0.7970  0.0510
 9312TIP3   OH249426   0.094   0.101  85.033 -0.1560 -0.2377 -0.4312
 9312TIP3    H149427   0.005   0.126  85.007 -0.3805 -0.7109 -0.1275
 9312TIP3    H249428   0.085   0.064  85.121  0.6142  1.4264  0.3938
 9313TIP3   OH249429   0.980   1.269  96.032 -0.2356 -0.0860 -0.1520
 9313TIP3    H149430   1.071   1.297  96.032 -0.4969  0.8290  0.7160
 9313TIP3    H249431   0.976   1.201  96.100  0.3549 -2.1782 -2.1019
 9314TIP3   OH249432   2.390   1.042  77.391  0.1445 -0.0452 -0.3764
 9314TIP3    H149433   2.390   0.968  77.330  0.5304 -0.2466 -0.1411
 9314TIP3    H249434   2.398   1.001  77.477  0.7596  0.2996 -0.2743
 9315TIP3   OH249435   0.006   2.374 100.640  0.4488 -0.5030  0.3034
 9315TIP3    H149436  -0.049   2.301 100.667 -0.6083  0.4942  0.9495
 9315TIP3    H249437   0.029   2.418 100.722  1.7229 -0.5500 -0.0100
 9316TIP3   OH249438   2.323   1.236  97.369 -0.3868  0.8423 -0.0247
 9316TIP3    H149439   2.285   1.171  97.309  0.4808 -1.5775  1.8516
 9316TIP3    H249440   2.416   1.216  97.370 -0.3499  0.8793  1.9424
 9317TIP3   OH249441   1.625   1.715  79.704 -0.2051  0.4509 -0.7934
 9317TIP3    H149442   1.695   1.753  79.757  0.9792 -2.5482 -0.0490
 9317TIP3    H249443   1.611   1.628  79.740 -2.5109 -0.0513 -2.6303
 9318TIP3   OH249444   0.300   0.787  11.255 -0.0598 -0.6228  0.0806
 9318TIP3    H149445   0.230   0.802  11.192 -1.2805 -0.5721  1.4034
 9318TIP3    H249446   0.323   0.695  11.244  0.1648 -0.4705 -0.8248
 9319TIP3   OH249447   1.217   1.944  79.879 -0.3422  0.6101  0.3184
 9319TIP3    H149448   1.165   2.025  79.873 -0.6565  0.4878  1.3025
 9319TIP3    H249449   1.279   1.951  79.806 -0.3588  1.7356  0.3882
 9320TIP3   OH249450   1.839   1.441 109.947  0.1818  0.3490  0.2218
 9320TIP3    H149451   1.794   1.526 109.944 -0.5174 -0.0106  0.2415
 9320TIP3    H249452   1.790   1.390 110.012 -0.4839 -0.6553 -1.0148
 9321TIP3   OH249453   1.416   0.101  85.258  0.1298  0.2520 -0.1235
 9321TIP3    H149454   1.427   0.105  85.163 -0.2327  1.5357 -0.1353
 9321TIP3    H249455   1.354   0.171  85.278 -0.9105 -0.8983  0.9188
 9322TIP3   OH249456   1.877   0.392  12.676  0.2198  0.1559  0.3714
 9322TIP3    H149457   1.784   0.391  12.699  0.1904  0.4664  0.2682
 9322TIP3    H249458   1.895   0.483  12.651  0.5651  0.1124  0.4506
 9323TIP3   OH249459   0.235   1.880 108.810 -0.1348 -0.2177  0.2803
 9323TIP3    H149460   0.280   1.965 108.805  2.5373 -1.5049  0.3348
 9323TIP3    H249461   0.283   1.832 108.877 -1.3743 -1.8836  0.0293
 9324TIP3   OH249462   2.406   0.536  79.334 -0.0792  0.2875 -0.4314
 9324TIP3    H149463   2.343   0.469  79.360 -0.2018  0.3475 -0.5694
 9324TIP3    H249464   2.416   0.591  79.411 -1.2286  1.0714 -0.8104
 9325TIP3   OH249465   1.908   0.328  30.964  0.0099 -0.0903 -0.1103
 9325TIP3    H149466   1.833   0.370  30.922  0.1485  0.7379  0.4420
 9325TIP3    H249467   1.984   0.380  30.936  0.5284 -1.4756 -1.4161
 9326TIP3   OH249468   2.344   1.954  31.235 -0.7688  0.3837  1.0543
 9326TIP3    H149469   2.269   1.993  31.190  0.5792  1.3127 -0.4715
 9326TIP3    H249470   2.381   1.893  31.171  1.1372  1.6678  0.8550
 9327TIP3   OH249471   1.947   2.556  36.959 -0.1544 -0.2198 -0.3344
 9327TIP3    H149472   1.877   2.564  37.023  0.1159  3.0947 -0.2735
 9327TIP3    H249473   2.027   2.558  37.010  0.0230 -0.0433 -0.6140
 9328TIP3   OH249474   1.465   2.198   4.837  0.6617  0.1348  0.1884
 9328TIP3    H149475   1.439   2.152   4.916  0.6545  0.2233  0.2380
 9328TIP3    H249476   1.392   2.186   4.776  1.7022 -2.0986 -0.7279
 9329TIP3   OH249477   2.301   1.058  86.148 -0.1020 -0.0917  0.1233
 9329TIP3    H149478   2.225   1.094  86.194  1.4056  0.5172  2.2576
 9329TIP3    H249479   2.317   1.121  86.077 -1.4046 -0.1070 -0.2284
 9330TIP3   OH249480   1.396   1.284 106.506 -0.7308  0.2560 -0.0512
 9330TIP3    H149481   1.331   1.236 106.559 -1.5970  1.9683  0.5197
 9330TIP3    H249482   1.440   1.341 106.569  1.5342 -1.0139 -0.4038
 9331TIP3   OH249483   1.098   0.851   4.112  0.3568 -0.0565  0.4954
 9331TIP3    H149484   1.028   0.896   4.066 -0.6399 -0.6407  1.3980
 9331TIP3    H249485   1.178   0.895   4.083 -0.5165  1.9138  0.9058
 9332TIP3   OH249486   2.182   2.562 105.099 -0.4473  0.2283  0.3275
 9332TIP3    H149487   2.190   2.657 105.110 -0.6942  0.2009  0.7534
 9332TIP3    H249488   2.205   2.526 105.185  0.0275 -0.1214  0.0654
 9333TIP3   OH249489   0.307   1.624  34.281  0.0549 -0.5736  0.0410
 9333TIP3    H149490   0.252   1.620  34.360  1.9347 -1.2651  1.3922
 9333TIP3    H249491   0.359   1.703  34.292  0.4950 -0.8029 -0.3652
 9334TIP3   OH249492   1.893   0.789  90.727 -0.0352  0.0118 -0.2341
 9334TIP3    H149493   1.895   0.702  90.687 -1.4008  0.8111 -2.2427
 9334TIP3    H249494   1.976   0.829  90.701  0.0750 -0.2821 -0.3466
 9335TIP3   OH249495   1.031   0.896  16.367 -0.5893 -0.2547  0.4762
 9335TIP3    H149496   0.946   0.928  16.337 -0.1079  0.5096 -0.1087
 9335TIP3    H249497   1.095   0.946  16.316  0.2097 -1.0152  0.7070
 9336TIP3   OH249498   2.508   0.031 111.619 -0.1659 -0.2268 -0.1061
 9336TIP3    H149499   2.492  -0.061 111.600  2.0677 -0.6491 -0.2220
 9336TIP3    H249500   2.538   0.068 111.536 -1.1985  0.6608 -0.1101
 9337TIP3   OH249501   2.120   1.843 103.702  0.1933 -0.0430  0.4879
 9337TIP3    H149502   2.032   1.874 103.680 -0.0187 -0.6233  0.4973
 9337TIP3    H249503   2.108   1.751 103.725  0.8094 -0.1371  0.4546
 9338TIP3   OH249504   1.026   1.367  26.950  0.3855 -0.0938 -0.2237
 9338TIP3    H149505   0.953   1.384  26.891 -0.1626 -0.1815  0.4238
 9338TIP3    H249506   1.051   1.453  26.983 -0.0319 -0.1569  0.2661
 9339TIP3   OH249507   1.914   1.020   2.186 -0.0132  0.3168  0.6656
 9339TIP3    H149508   1.945   0.984   2.103 -0.8818 -2.4067  1.4105
 9339TIP3    H249509   1.852   1.089   2.161  0.6091  0.3576 -0.8926
 9340TIP3   OH249510   2.562   1.991  87.027 -0.0241  0.3695 -0.3831
 9340TIP3    H149511   2.576   2.022  87.117 -0.2156 -0.5137 -0.0324
 9340TIP3    H249512   2.624   2.040  86.974 -0.3001  1.3119  0.1552
 9341TIP3   OH249513   2.092   0.576  25.089  0.0602  0.2603 -0.1247
 9341TIP3    H149514   2.059   0.490  25.116  1.0397  0.1043  0.6137
 9341TIP3    H249515   2.168   0.592  25.145 -1.5340  2.7094  1.5519
 9342TIP3   OH249516   2.654   0.231  10.331 -0.4230  0.3061 -0.4949
 9342TIP3    H149517   2.749   0.232  10.322 -0.2838 -0.3649  0.6944
 9342TIP3    H249518   2.624   0.167  10.267  0.0046 -0.0573 -0.3368
 9343TIP3   OH249519   1.188   1.007 103.481 -0.1947 -0.3858 -0.4489
 9343TIP3    H149520   1.221   0.932 103.432 -3.2935 -2.0649 -0.2496
 9343TIP3    H249521   1.177   0.975 103.570 -0.2329  0.7646 -0.0226
 9344TIP3   OH249522   0.471   0.074  89.030  0.1449  0.0779  0.0546
 9344TIP3    H149523   0.439   0.154  89.073 -0.5468 -0.4235  0.5006
 9344TIP3    H249524   0.397   0.044  88.978 -0.0760 -0.9957  0.9536
 9345TIP3   OH249525   0.043   0.219  99.676 -0.5626  0.6064  0.0459
 9345TIP3    H149526   0.009   0.308  99.670 -0.0258  0.8175  0.0311
 9345TIP3    H249527   0.004   0.172  99.603  0.3773  1.2570 -0.9079
 9346TIP3   OH249528   0.105   2.487   8.567  0.1401 -0.2335  0.4058
 9346TIP3    H149529   0.191   2.461   8.599  0.5706 -1.1398 -1.3814
 9346TIP3    H249530   0.061   2.525   8.644  2.6009  1.5472  1.0632
 9347TIP3   OH249531   2.057   0.969  87.686 -0.4135 -0.2349 -0.2911
 9347TIP3    H149532   2.094   0.924  87.610 -0.5994  0.3536 -0.7328
 9347TIP3    H249533   2.039   0.899  87.749  1.4962 -0.5261 -0.0331
 9348TIP3   OH249534   2.209   0.395  10.885  0.5383 -0.0448  0.1445
 9348TIP3    H149535   2.210   0.476  10.834  0.4584 -0.1953 -0.0964
 9348TIP3    H249536   2.247   0.329  10.827  0.3936 -0.2309  0.2581
 9349TIP3   OH249537   2.049   1.802   2.839 -0.9105  0.1377  0.6607
 9349TIP3    H149538   2.088   1.880   2.798 -0.6250  0.3177  1.2518
 9349TIP3    H249539   1.955   1.810   2.823 -0.8639  0.5221  0.5691
 9350TIP3   OH249540   2.299   1.381  78.171 -0.0130  0.5569  0.2058
 9350TIP3    H149541   2.365   1.450  78.165  0.8704 -0.3431 -1.1041
 9350TIP3    H249542   2.237   1.401  78.100 -0.7083  0.9461  0.9104
 9351TIP3   OH249543   1.867   1.501  37.536  0.0983  0.5162  0.4026
 9351TIP3    H149544   1.855   1.581  37.587  0.6588  0.3250  0.8536
 9351TIP3    H249545   1.783   1.488  37.492 -0.3821  0.7341  1.2235
 9352TIP3   OH249546   1.159   1.277   1.339  0.3487 -0.2860 -0.0531
 9352TIP3    H149547   1.109   1.301   1.417  0.5970 -0.8942  0.3003
 9352TIP3    H249548   1.187   1.187   1.355  1.0349 -0.1641 -0.5266
 9353TIP3   OH249549   1.871   1.336  95.216  0.0459  0.4012  0.1721
 9353TIP3    H149550   1.914   1.264  95.261 -0.4709  0.5251  0.8792
 9353TIP3    H249551   1.778   1.325  95.235 -0.0733  1.0459 -0.0113
 9354TIP3   OH249552   1.349   2.494  97.605 -0.4747 -0.2896  0.1438
 9354TIP3    H149553   1.254   2.484  97.615 -0.3599 -1.1707  0.4239
 9354TIP3    H249554   1.384   2.407  97.624  0.2537 -0.4660 -1.8418
 9355TIP3   OH249555   0.640   0.702 111.183  0.4123 -0.1869  0.2502
 9355TIP3    H149556   0.601   0.618 111.204  0.7615  0.2800  3.1897
 9355TIP3    H249557   0.719   0.680 111.134 -0.0532 -1.4908  0.0426
 9356TIP3   OH249558   0.566   0.680  77.090  0.0436 -0.1403 -0.0456
 9356TIP3    H149559   0.477   0.696  77.059 -0.2806 -0.8956  0.4585
 9356TIP3    H249560   0.561   0.695  77.185  0.3627 -0.5490  0.0365
 9357TIP3   OH249561   0.184   2.218  14.492 -0.4122  0.3951  0.2741
 9357TIP3    H149562   0.258   2.188  14.544 -0.9457 -2.6294 -0.5122
 9357TIP3    H249563   0.220   2.288  14.437  1.7977 -0.8059  0.0881
 9358TIP3   OH249564   0.525   0.489  57.244  0.3083  0.1206  0.4302
 9358TIP3    H149565   0.492   0.401  57.223  1.1944 -0.2190  0.4128
 9358TIP3    H249566   0.498   0.504  57.334 -1.6447  0.6970 -0.1990
 9359TIP3   OH249567   1.607   0.341  89.489 -0.1050 -0.3234 -0.3461
 9359TIP3    H149568   1.681   0.291  89.454 -0.2204 -0.5476 -0.2791
 9359TIP3    H249569   1.565   0.281  89.551 -2.0070 -1.2798 -2.4107
 9360TIP3   OH249570   1.058   1.398  92.011  0.4987  0.4817  0.1232
 9360TIP3    H149571   1.132   1.451  92.039 -0.4233  1.7236  0.2941
 9360TIP3    H249572   1.065   1.318  92.063  1.5776  0.6876  0.3117
 9361TIP3   OH249573   2.484   2.156  82.060  0.3762 -0.4372  0.0232
 9361TIP3    H149574   2.496   2.125  81.970  3.0610 -1.3562  0.5946
 9361TIP3    H249575   2.563   2.207  82.079 -2.2349  3.8944  0.3826
 9362TIP3   OH249576   1.906   2.664  27.800  0.0348  0.3473  0.2103
 9362TIP3    H149577   1.822   2.685  27.762 -0.9088  0.0787  2.0208
 9362TIP3    H249578   1.911   2.718  27.879  0.9380 -0.6312  0.8565
 9363TIP3   OH249579   2.274   1.993   7.116 -0.0017 -0.3077  0.0003
 9363TIP3    H149580   2.185   1.998   7.079  0.5578 -2.0891 -1.7703
 9363TIP3    H249581   2.292   1.899   7.121  2.6700 -0.0011 -2.0540
 9364TIP3   OH249582   1.427   0.907  22.907 -0.2279  0.2395  0.1457
 9364TIP3    H149583   1.497   0.888  22.845  0.1868  1.5058  0.1930
 9364TIP3    H249584   1.408   0.823  22.949  0.7957 -0.2456 -0.3398
 9365TIP3   OH249585   2.024   1.917  78.430 -0.2117 -0.2081 -0.0650
 9365TIP3    H149586   2.050   1.926  78.339  3.3833  2.0364  1.0145
 9365TIP3    H249587   2.027   2.006  78.465  0.0467 -1.1927  2.6208
 9366TIP3   OH249588   1.309   1.702   6.180  0.2428 -0.0748  0.0404
 9366TIP3    H149589   1.264   1.673   6.100  1.2070  0.6599 -0.8101
 9366TIP3    H249590   1.325   1.795   6.165  1.0849 -0.0903  0.7832
 9367TIP3   OH249591   1.174   2.465 105.206 -0.2933  0.1214  0.7640
 9367TIP3    H149592   1.177   2.396 105.140  1.6674  0.8092  0.0588
 9367TIP3    H249593   1.231   2.534 105.171 -0.2738  1.0775  2.5589
 9368TIP3   OH249594   0.246   0.387  37.136 -0.0690 -0.0673  0.6029
 9368TIP3    H149595   0.182   0.347  37.195 -1.0871  0.1561 -0.3161
 9368TIP3    H249596   0.193   0.425  37.065  0.9211  1.9678  0.8810
 9369TIP3   OH249597   0.651   0.586  94.712  0.2411 -0.4248 -0.4830
 9369TIP3    H149598   0.577   0.575  94.651  0.2111 -0.2552 -0.4795
 9369TIP3    H249599   0.694   0.500  94.713 -0.7958 -0.9617  0.6145
 9370TIP3   OH249600   2.377   0.492  15.140 -0.0637 -0.3058  0.0319
 9370TIP3    H149601   2.389   0.427  15.070 -0.4277 -1.3292  0.8949
 9370TIP3    H249602   2.366   0.440  15.219 -2.2708  0.7605  0.4991
 9371TIP3   OH249603   0.877   2.198 108.109 -0.0555 -0.2493  0.0564
 9371TIP3    H149604   0.933   2.139 108.060  1.3001  1.1999 -0.2207
 9371TIP3    H249605   0.846   2.146 108.183  1.3016 -1.2293 -0.0321
 9372TIP3   OH249606   2.485   2.030  82.579  0.1884 -0.1198  0.2614
 9372TIP3    H149607   2.432   1.952  82.594 -1.2699  0.6709 -0.5246
 9372TIP3    H249608   2.521   2.019  82.491  1.3851 -0.6508  0.7922
 9373TIP3   OH249609   1.352   0.358  64.380  0.4512 -0.0635  0.1809
 9373TIP3    H149610   1.265   0.325  64.357  1.0305 -0.3969 -1.7345
 9373TIP3    H249611   1.400   0.357  64.297  3.0754 -2.2354  1.5795
 9374TIP3   OH249612   0.796   1.821  77.224  0.1931  0.2137  0.2835
 9374TIP3    H149613   0.772   1.729  77.226 -1.2866  0.5800  0.1912
 9374TIP3    H249614   0.773   1.851  77.136  1.1222  0.5713  0.1441
 9375TIP3   OH249615   0.206   1.652  90.830 -0.0118 -0.1736  0.4212
 9375TIP3    H149616   0.142   1.581  90.830  0.6962 -0.8564 -1.3806
 9375TIP3    H249617   0.283   1.616  90.873 -0.4052  0.2686  1.5386
 9376TIP3   OH249618   2.306   0.556  18.071 -0.0074  0.3732 -0.0729
 9376TIP3    H149619   2.388   0.581  18.029  0.6041 -1.2274  0.1009
 9376TIP3    H249620   2.262   0.639  18.089  1.5135  1.2552 -0.2699
 9377TIP3   OH249621   0.684   1.167  73.945 -0.2307 -0.0118  0.0611
 9377TIP3    H149622   0.710   1.095  74.003  3.4588 -0.4724 -1.8584
 9377TIP3    H249623   0.728   1.244  73.980  2.7371 -0.4426 -2.2922
 9378TIP3   OH249624   0.350   1.271  78.304 -0.2646 -0.1658  0.3402
 9378TIP3    H149625   0.334   1.364  78.316  1.9656  0.1884  0.9432
 9378TIP3    H249626   0.289   1.245  78.235 -0.2311  1.9501 -0.5578
 9379TIP3   OH249627   1.785   1.307  84.910  0.2877  0.4019 -0.5940
 9379TIP3    H149628   1.770   1.334  84.820  0.6886  1.7321 -0.2787
 9379TIP3    H249629   1.697   1.299  84.947  0.1290  0.0250 -1.0400
 9380TIP3   OH249630   2.624   0.165  33.040 -0.1293 -0.6061 -0.5307
 9380TIP3    H149631   2.681   0.241  33.026  0.4938 -1.0878 -0.6790
 9380TIP3    H249632   2.535   0.200  33.035  0.1368 -0.0380 -1.5343
 9381TIP3   OH249633   2.300   2.265  97.979 -0.3109 -0.0298  0.3129
 9381TIP3    H149634   2.213   2.233  97.954 -0.6749  1.5445 -0.5667
 9381TIP3    H249635   2.299   2.266  98.075 -1.2221 -0.1151  0.3068
 9382TIP3   OH249636   2.544   1.911  78.608  0.5082 -0.3262  0.2877
 9382TIP3    H149637   2.510   1.879  78.525 -0.7638  2.5600 -0.4428
 9382TIP3    H249638   2.636   1.886  78.608 -0.0275 -2.5227 -0.8091
 9383TIP3   OH249639   0.169   1.296  75.920  0.3810 -0.2860  0.4941
 9383TIP3    H149640   0.165   1.215  75.869 -0.8813 -0.8436  1.4263
 9383TIP3    H249641   0.251   1.337  75.893  0.4014 -1.2171 -0.9754
 9384TIP3   OH249642   0.534   0.599  15.494 -0.4178  0.4952 -0.2159
 9384TIP3    H149643   0.454   0.636  15.532  1.1312  0.4072  3.4864
 9384TIP3    H249644   0.519   0.505  15.491 -0.3975  0.4547  0.7138
 9385TIP3   OH249645   1.747   0.725  77.869 -0.3053  0.1838 -0.4099
 9385TIP3    H149646   1.664   0.702  77.910 -0.5763  1.5460 -0.1366
 9385TIP3    H249647   1.723   0.774  77.791  0.2347  0.3032 -0.5120
 9386TIP3   OH249648   0.584   2.596  11.384 -0.4033  0.6802  0.2703
 9386TIP3    H149649   0.494   2.591  11.352 -0.1107 -1.6410 -0.3835
 9386TIP3    H249650   0.638   2.596  11.304  0.2236 -1.8511  0.5874
 9387TIP3   OH249651   2.083   0.464  59.262 -0.6335  0.3701  0.4039
 9387TIP3    H149652   2.168   0.451  59.304 -0.1810 -1.2168 -0.9150
 9387TIP3    H249653   2.100   0.528  59.193 -0.2758 -0.6052 -0.4363
 9388TIP3   OH249654   0.339   1.892   6.374  0.4680 -0.0885  0.3853
 9388TIP3    H149655   0.297   1.829   6.434 -0.6981  1.3669  1.1673
 9388TIP3    H249656   0.432   1.888   6.397  0.2927 -0.8607  1.0460
 9389TIP3   OH249657   1.708   0.867  35.945 -0.1551 -0.1699 -0.1951
 9389TIP3    H149658   1.662   0.915  36.014  1.2622 -1.9971  2.2227
 9389TIP3    H249659   1.800   0.885  35.961  0.2200 -0.6316 -1.6763
 9390TIP3   OH249660   0.716   1.443  15.673  0.7233  0.2009 -0.4039
 9390TIP3    H149661   0.657   1.429  15.598  1.9745 -1.5019 -1.1261
 9390TIP3    H249662   0.670   1.509  15.727 -0.4758  1.0688 -2.3534
 9391TIP3   OH249663   2.626   2.268  47.017 -0.0841 -0.2323  0.2082
 9391TIP3    H149664   2.616   2.180  47.054  0.4276  1.2114  4.2391
 9391TIP3    H249665   2.714   2.268  46.979 -0.6835 -1.8348 -1.3439
 9392TIP3   OH249666   1.050   0.282  32.848  0.4071 -0.0955 -0.3711
 9392TIP3    H149667   1.061   0.258  32.940  1.8374  0.2542 -0.4304
 9392TIP3    H249668   1.092   0.212  32.799  1.0415  0.4844 -0.6819
 9393TIP3   OH249669   1.361   1.580   5.732  0.3923 -0.0448  0.0842
 9393TIP3    H149670   1.294   1.590   5.664  0.7354  0.9805 -0.1263
 9393TIP3    H249671   1.444   1.588   5.684  0.7727 -3.2391  0.0182
 9394TIP3   OH249672   0.833   1.296 101.329  0.0037  0.0702 -0.0909
 9394TIP3    H149673   0.856   1.228 101.392  3.6246  0.3809 -0.9112
 9394TIP3    H249674   0.858   1.378 101.371  2.4318  0.2870 -1.7787
 9395TIP3   OH249675   2.472   0.327  79.004  0.3703 -0.0547  0.3851
 9395TIP3    H149676   2.502   0.272  78.933  1.7850  1.7983 -0.5485
 9395TIP3    H249677   2.487   0.275  79.083  1.0143 -1.2606 -0.4972
 9396TIP3   OH249678   2.383   1.041  90.825  0.4206 -0.6080  0.7922
 9396TIP3    H149679   2.384   1.134  90.848 -2.6461 -0.1487 -0.4689
 9396TIP3    H249680   2.450   1.033  90.757  1.1120  0.5259  1.2987
 9397TIP3   OH249681   0.656   0.112  32.066  0.6266 -0.0126 -0.3560
 9397TIP3    H149682   0.689   0.050  32.001 -0.6090  0.7047 -1.7414
 9397TIP3    H249683   0.722   0.182  32.068  0.1727  0.5078 -1.7295
 9398TIP3   OH249684   1.650   0.084  16.074  0.0969 -0.0146 -0.2140
 9398TIP3    H149685   1.591   0.080  15.999  1.6696 -1.2098 -1.4498
 9398TIP3    H249686   1.592   0.102  16.148 -1.6892 -0.1781 -1.4864
 9399TIP3   OH249687   1.202   0.931 103.742  0.1011 -0.0732 -0.3015
 9399TIP3    H149688   1.181   0.839 103.727  0.2214 -0.1021 -0.2832
 9399TIP3    H249689   1.182   0.945 103.835 -0.8097  0.1487 -0.5203
 9400TIP3   OH249690   0.348   2.410  27.674  0.2575  0.7991  0.1692
 9400TIP3    H149691   0.269   2.456  27.701  1.0903  1.4726  1.5640
 9400TIP3    H249692   0.419   2.456  27.719  1.4796  0.3346 -1.1897
 9401TIP3   OH249693   0.043   2.530  37.832 -0.0575 -0.0781 -0.1366
 9401TIP3    H149694   0.063   2.494  37.919 -2.6548 -2.8296 -0.5119
 9401TIP3    H249695   0.085   2.470  37.771  1.2899  1.5288 -0.8553
 9402TIP3   OH249696   0.480   2.087 110.844 -0.1928  0.3442 -0.0124
 9402TIP3    H149697   0.473   2.161 110.904 -0.2603  1.5882 -1.5010
 9402TIP3    H249698   0.392   2.049 110.840 -0.3898  0.8020  0.0094
 9403TIP3   OH249699   2.022   2.095  47.159 -0.4444  0.0069  1.0969
 9403TIP3    H149700   1.940   2.109  47.208 -1.1851  1.5328 -0.4838
 9403TIP3    H249701   1.994   2.086  47.068  0.9135 -2.6876  0.8550
 9404TIP3   OH249702   1.812   1.167  24.026  0.0748  0.4001  0.4502
 9404TIP3    H149703   1.809   1.079  24.064  0.1002  0.5368  0.7745
 9404TIP3    H249704   1.721   1.189  24.008  0.1343 -0.0381 -0.4449
 9405TIP3   OH249705   2.362   1.584  35.453 -0.1666  0.0892 -0.1184
 9405TIP3    H149706   2.308   1.567  35.376 -0.3215 -0.7298  0.1614
 9405TIP3    H249707   2.442   1.623  35.419 -0.3249 -0.0677 -0.6707
 9406TIP3   OH249708   2.530   1.276 108.238  0.4594 -0.4958 -0.4087
 9406TIP3    H149709   2.573   1.282 108.153  0.7599 -0.2029 -0.2378
 9406TIP3    H249710   2.510   1.183 108.250  0.9319 -0.6144 -0.5424
 9407TIP3   OH249711   2.180   1.082  78.577  0.1096  0.4689  0.4376
 9407TIP3    H149712   2.240   1.087  78.651  1.4376  1.3849 -0.6650
 9407TIP3    H249713   2.180   1.170  78.540 -1.4439  0.3278  0.0129
 9408TIP3   OH249714   0.499   2.311   6.510 -0.3265 -0.4510 -0.0568
 9408TIP3    H149715   0.415   2.270   6.487 -0.5738  0.1755 -0.2890
 9408TIP3    H249716   0.555   2.292   6.435 -1.0377  1.3176 -1.0859
 9409TIP3   OH249717   1.188   0.891 105.791 -0.1464  0.5371 -0.2644
 9409TIP3    H149718   1.279   0.880 105.819 -0.4972  0.4212  0.8569
 9409TIP3    H249719   1.171   0.815 105.735 -0.0168 -0.2762  0.7731
 9410TIP3   OH249720   1.363   0.700  16.799 -0.2894  0.0343  0.9694
 9410TIP3    H149721   1.318   0.780  16.775 -0.0443 -0.5059 -1.5889
 9410TIP3    H249722   1.320   0.631  16.748  1.0564 -1.0762  1.2546
 9411TIP3   OH249723   2.113   1.409  73.839 -0.2353 -0.1653  0.1942
 9411TIP3    H149724   2.038   1.411  73.780  0.5398 -0.1290 -0.8265
 9411TIP3    H249725   2.188   1.395  73.781  0.6477  0.7693  1.0823
 9412TIP3   OH249726   2.543   1.567  84.039  0.2804 -0.1688 -0.7911
 9412TIP3    H149727   2.501   1.639  84.086 -0.0393 -1.1841  0.5465
 9412TIP3    H249728   2.487   1.553  83.963 -0.7612 -0.2426 -0.0440
 9413TIP3   OH249729   1.265   0.983   7.951  0.3206  0.0204 -0.0172
 9413TIP3    H149730   1.325   1.058   7.953 -0.8405  0.9869  1.8295
 9413TIP3    H249731   1.201   1.005   7.884  0.7148  0.0606 -0.3853
 9414TIP3   OH249732   1.247   1.286  93.484  0.3665  0.1804  0.0893
 9414TIP3    H149733   1.259   1.240  93.567  1.3012  0.9173  0.3767
 9414TIP3    H249734   1.188   1.358  93.504 -2.9413 -2.0386 -0.8113
 9415TIP3   OH249735   1.045   0.281   9.901 -0.3246  0.1673  0.1141
 9415TIP3    H149736   0.997   0.330   9.968  0.4352 -1.1226  1.6762
 9415TIP3    H249737   1.129   0.326   9.894 -0.4165  0.3223  0.0235
 9416TIP3   OH249738   1.766   2.284  83.504  0.0793  0.2392 -0.0846
 9416TIP3    H149739   1.860   2.285  83.484  0.1901 -1.0081  0.2901
 9416TIP3    H249740   1.752   2.361  83.559  0.5599  1.3752 -1.4968
 9417TIP3   OH249741   2.098   1.993  21.837  0.3212 -0.2642 -0.0123
 9417TIP3    H149742   2.113   1.994  21.743  3.1249 -0.9650  0.3477
 9417TIP3    H249743   2.139   2.074  21.869 -0.7737  0.0706  0.6247
 9418TIP3   OH249744   0.954   2.486  94.454  0.6681 -0.4384  0.0446
 9418TIP3    H149745   0.975   2.420  94.520 -0.4251  1.0019  1.9261
 9418TIP3    H249746   1.040   2.514  94.420  1.1660 -2.4087 -0.4216
 9419TIP3   OH249747   2.307   1.245  29.248 -0.4324  0.6334 -0.1137
 9419TIP3    H149748   2.371   1.311  29.221 -0.9098  0.5843 -1.4644
 9419TIP3    H249749   2.234   1.296  29.284 -1.8056  1.0977 -3.2487
 9420TIP3   OH249750   0.465   0.786  86.349 -0.1158 -0.0436 -0.3200
 9420TIP3    H149751   0.536   0.770  86.288  0.6018  1.1287  0.1884
 9420TIP3    H249752   0.466   0.880  86.365 -2.6720  0.2567 -1.3602
 9421TIP3   OH249753   1.958   2.565  24.426  0.0853  0.6627 -0.2293
 9421TIP3    H149754   1.940   2.658  24.443 -0.2104  0.4540  0.6566
 9421TIP3    H249755   1.898   2.518  24.484  1.3691 -0.0782  0.5344
 9422TIP3   OH249756   1.529   1.637  10.004 -0.1203 -0.3401 -0.1903
 9422TIP3    H149757   1.574   1.554  10.017 -0.4903 -0.4610  0.3608
 9422TIP3    H249758   1.522   1.675  10.092  0.1979  0.3549 -0.4552
 9423TIP3   OH249759   0.068   0.573  62.930 -0.7663 -0.2785  0.1931
 9423TIP3    H149760   0.106   0.595  62.845 -1.4010 -0.0348 -0.0296
 9423TIP3    H249761  -0.026   0.563  62.914 -0.8983 -0.2200  0.8676
 9424TIP3   OH249762   0.520   2.678  14.459 -0.6507  0.1088  0.4970
 9424TIP3    H149763   0.575   2.654  14.385 -1.6043  0.0771 -0.2303
 9424TIP3    H249764   0.517   2.774  14.456 -2.5706  0.0670 -0.9888
 9425TIP3   OH249765   2.048   2.479  83.645 -0.3480 -0.1465 -0.0111
 9425TIP3    H149766   2.097   2.443  83.571 -0.6850  0.7977 -0.7044
 9425TIP3    H249767   2.111   2.483  83.717  0.2588 -0.0896 -0.5446
 9426TIP3   OH249768   1.076   0.521  57.894 -0.1004  0.6386 -0.3405
 9426TIP3    H149769   1.129   0.594  57.863 -1.3043  1.3154 -0.8974
 9426TIP3    H249770   0.988   0.557  57.903 -0.7385 -0.7484 -0.6758
 9427TIP3   OH249771   2.588   0.164 111.371  0.1784  0.0451 -0.1428
 9427TIP3    H149772   2.605   0.171 111.277 -1.1839  0.4811 -0.3700
 9427TIP3    H249773   2.499   0.129 111.377  0.4080 -0.3764  0.9917
 9428TIP3   OH249774   0.862   0.982  30.171 -0.3125 -0.5593  0.4883
 9428TIP3    H149775   0.794   0.992  30.104  0.3888  1.1194 -0.0514
 9428TIP3    H249776   0.819   1.007  30.253 -0.4338  0.2521  0.1886
 9429TIP3   OH249777   0.818   0.514  28.189 -0.2585 -0.3155 -0.0030
 9429TIP3    H149778   0.886   0.565  28.145 -1.6438  2.1199  0.5246
 9429TIP3    H249779   0.838   0.423  28.165  1.4009  0.5509 -2.3255
 9430TIP3   OH249780   2.629   0.603  15.152 -0.2665  0.2426 -0.4767
 9430TIP3    H149781   2.540   0.568  15.153  0.8217 -2.8921 -0.6253
 9430TIP3    H249782   2.628   0.673  15.216 -2.6330 -0.2766  0.1552
 9431TIP3   OH249783   1.720   2.025  14.320 -0.4309 -0.4518  0.3701
 9431TIP3    H149784   1.630   1.993  14.317 -0.3860 -0.5280 -0.4941
 9431TIP3    H249785   1.728   2.068  14.405 -0.8942 -1.5534  0.9798
 9432TIP3   OH249786   1.254   1.659 107.790  0.8353  0.7288 -0.1760
 9432TIP3    H149787   1.349   1.674 107.784  0.8174  0.6640 -0.5964
 9432TIP3    H249788   1.236   1.592 107.725  0.4884  0.7719 -0.1258
 9433TIP3   OH249789   1.572   0.842  10.362  0.0365  0.0838  0.0522
 9433TIP3    H149790   1.631   0.766  10.359 -1.5180 -1.1870  0.4413
 9433TIP3    H249791   1.485   0.805  10.372 -1.0383  1.8421 -1.8450
 9434TIP3   OH249792   1.146   0.083  25.064 -0.1926  0.1471  0.0011
 9434TIP3    H149793   1.140   0.177  25.046 -0.0276  0.0753 -0.4566
 9434TIP3    H249794   1.205   0.050  24.996 -1.5260 -0.5561 -0.8373
 9435TIP3   OH249795   1.705   0.073  33.276  0.0064  0.7102 -0.4817
 9435TIP3    H149796   1.626   0.111  33.314 -0.8027  0.4201 -1.8010
 9435TIP3    H249797   1.750   0.032  33.349  0.9536  4.1246  1.0632
 9436TIP3   OH249798   1.995   0.611   6.811 -0.0118  0.3014 -0.0916
 9436TIP3    H149799   2.071   0.553   6.823  0.8700  1.0988 -1.5422
 9436TIP3    H249800   1.951   0.610   6.895  0.2377 -2.1088  0.0895
 9437TIP3   OH249801   0.425   0.437  33.983 -0.5989  0.1205 -0.6710
 9437TIP3    H149802   0.358   0.408  33.921  0.5273  0.6324 -2.1859
 9437TIP3    H249803   0.506   0.440  33.932  0.4193  0.4131  0.8713
 9438TIP3   OH249804   1.203   0.713   7.144 -0.1914  0.0542 -0.8299
 9438TIP3    H149805   1.215   0.782   7.079  1.7236 -2.4097 -3.2672
 9438TIP3    H249806   1.273   0.728   7.208 -0.1379  0.6491 -1.0215
 9439TIP3   OH249807   2.368   1.256  79.346  0.0253  0.0518 -0.0445
 9439TIP3    H149808   2.304   1.246  79.276 -0.5711  1.8808  0.1734
 9439TIP3    H249809   2.388   1.167  79.374 -3.4828 -0.6265  0.7675
 9440TIP3   OH249810   0.076   0.390   2.367 -0.3030  0.7619 -0.1864
 9440TIP3    H149811   0.040   0.368   2.453 -1.2876 -0.5051 -0.8879
 9440TIP3    H249812   0.114   0.477   2.378  0.9393  0.0111  1.9179
 9441TIP3   OH249813   2.360   0.787 100.056  0.3193 -0.5662 -0.1454
 9441TIP3    H149814   2.270   0.816 100.064  0.4141 -0.2601 -0.1869
 9441TIP3    H249815   2.412   0.866 100.068  0.5817 -0.7351 -0.1595
 9442TIP3   OH249816   0.231   1.233  17.036  0.1064  0.5176  0.0987
 9442TIP3    H149817   0.201   1.219  17.125  1.0275 -1.4112  0.1569
 9442TIP3    H249818   0.228   1.328  17.024  0.1563  0.8306  2.2360
 9443TIP3   OH249819   1.137   0.630  78.976 -0.5208 -0.6130 -0.1978
 9443TIP3    H149820   1.045   0.607  78.987 -0.7749  0.9267  1.4588
 9443TIP3    H249821   1.167   0.651  79.064  0.9603  0.4946 -0.9216
 9444TIP3   OH249822   1.236   1.505  15.276 -0.2883  0.3148  0.0071
 9444TIP3    H149823   1.291   1.522  15.200  0.0743 -0.2634  0.1294
 9444TIP3    H249824   1.297   1.476  15.345 -0.8717 -2.4074 -0.4770
 9445TIP3   OH249825   0.585   0.457  81.730 -0.4862 -0.9260  0.4888
 9445TIP3    H149826   0.569   0.438  81.638  0.4570  0.2593  0.0638
 9445TIP3    H249827   0.671   0.419  81.749  0.2821  0.6668  0.2915
 9446TIP3   OH249828   1.039   1.221  80.055 -0.3068  0.3246  0.1947
 9446TIP3    H149829   0.953   1.262  80.065 -0.0736  1.0184 -0.5174
 9446TIP3    H249830   1.058   1.228  79.962  0.5236  0.1849  0.3447
 9447TIP3   OH249831   0.260   1.903  20.367 -0.1080  0.2226 -0.6788
 9447TIP3    H149832   0.269   1.982  20.421  1.1099 -0.7890  0.6784
 9447TIP3    H249833   0.173   1.869  20.387  0.7456 -0.7704  1.6178
 9448TIP3   OH249834   1.588   1.566  35.466 -0.0508 -0.2759  0.0576
 9448TIP3    H149835   1.669   1.570  35.517  0.2480  1.5084 -0.4777
 9448TIP3    H249836   1.587   1.478  35.429  0.8099 -0.8786  1.3719
 9449TIP3   OH249837   1.187   1.525  16.029 -0.0801 -0.5881 -0.3354
 9449TIP3    H149838   1.245   1.595  15.998 -0.4712  0.3525  0.9467
 9449TIP3    H249839   1.232   1.444  16.006  0.7116  0.0847 -1.2500
 9450TIP3   OH249840   0.706   1.564  82.584  0.1555  0.3446  0.0031
 9450TIP3    H149841   0.739   1.590  82.498  2.7841 -1.8867  0.1760
 9450TIP3    H249842   0.638   1.500  82.565 -0.1997  0.8274 -0.3911
 9451TIP3   OH249843   2.660   2.279  97.005  0.1165 -0.8798 -0.3225
 9451TIP3    H149844   2.610   2.247  96.931 -3.3301  0.6729  1.0823
 9451TIP3    H249845   2.648   2.213  97.073  0.6120 -0.8094 -0.1559
 9452TIP3   OH249846   2.113   0.703  87.466 -0.4189 -0.1301 -0.4471
 9452TIP3    H149847   2.083   0.707  87.375 -1.1650 -1.3430 -0.2830
 9452TIP3    H249848   2.065   0.629  87.503  0.5188 -0.1833  0.7040
 9453TIP3   OH249849   0.604   1.036  23.743  0.5506 -0.0831 -0.6276
 9453TIP3    H149850   0.609   0.943  23.720  1.5787  0.0803 -1.1212
 9453TIP3    H249851   0.510   1.054  23.747  0.3355 -1.0969 -0.6992
 9454TIP3   OH249852   1.615   0.514  12.613 -0.0978  0.1471 -0.0913
 9454TIP3    H149853   1.578   0.600  12.631 -0.4136 -0.0571  0.2438
 9454TIP3    H249854   1.620   0.510  12.517 -0.6320  0.3033 -0.1297
 9455TIP3   OH249855   2.557   0.033  21.830  0.3126  0.1611  0.2086
 9455TIP3    H149856   2.540   0.121  21.795 -0.4622  0.8049  2.0695
 9455TIP3    H249857   2.476  -0.015  21.815 -0.3300  0.6955  1.7569
 9456TIP3   OH249858   2.363   1.471   5.295 -0.1997  0.3426  0.1754
 9456TIP3    H149859   2.310   1.518   5.231 -0.2924 -0.9138 -0.7129
 9456TIP3    H249860   2.436   1.436   5.245 -0.6013 -1.1889  0.5961
 9457TIP3   OH249861   2.386   0.137 112.103  0.0394 -0.0393 -0.4398
 9457TIP3    H149862   2.356   0.054 112.139  0.5137  0.1421  0.3907
 9457TIP3    H249863   2.388   0.122 112.008  0.9911 -1.2787 -0.2537
 9458TIP3   OH249864   2.269   2.330   8.845  0.6097 -0.2163 -0.0068
 9458TIP3    H149865   2.285   2.325   8.940  1.4223  1.3395 -0.0307
 9458TIP3    H249866   2.320   2.406   8.816 -0.2261 -0.2194 -1.5765
 9459TIP3   OH249867   1.026   0.498  84.238  0.1375  0.2724  0.2199
 9459TIP3    H149868   1.073   0.547  84.306  1.1549  0.0582 -0.3065
 9459TIP3    H249869   1.069   0.413  84.235 -0.3606  0.0303 -0.2024
 9460TIP3   OH249870   0.365   2.617  90.237 -0.2515 -0.0844  0.5618
 9460TIP3    H149871   0.361   2.613  90.332 -0.7076 -0.1875  0.5382
 9460TIP3    H249872   0.288   2.568  90.207 -0.4847  0.5132  0.1505
 9461TIP3   OH249873   1.027   1.623   3.407 -0.4813 -0.1340  1.0306
 9461TIP3    H149874   1.099   1.563   3.427 -0.7165 -0.8108 -0.0423
 9461TIP3    H249875   0.948   1.572   3.426 -0.6876  0.4139  1.6708
 9462TIP3   OH249876   0.614   0.625  89.459 -0.3289 -0.1581  0.4463
 9462TIP3    H149877   0.535   0.679  89.454 -1.4034 -1.8036 -1.3920
 9462TIP3    H249878   0.646   0.621  89.369  1.3079 -0.3623  1.0130
 9463TIP3   OH249879   2.543   1.936  92.675  0.1413  0.2505  0.0151
 9463TIP3    H149880   2.499   1.932  92.591  2.0259  2.4743 -1.2172
 9463TIP3    H249881   2.538   1.847  92.710 -1.9437 -0.3967 -1.7411
 9464TIP3   OH249882   2.138   0.459  96.819  0.2319  0.2557 -0.2276
 9464TIP3    H149883   2.208   0.522  96.838  0.0823 -0.1287  1.8075
 9464TIP3    H249884   2.094   0.494  96.741  1.1911  1.7660 -0.1174
 9465TIP3   OH249885   1.589   0.957  17.825  0.1824  0.3474 -0.1816
 9465TIP3    H149886   1.581   0.982  17.733 -1.9787 -2.9093 -1.0343
 9465TIP3    H249887   1.523   1.009  17.871 -0.8299 -0.1624 -1.0326
 9466TIP3   OH249888   1.661   1.608   0.998 -0.0781  0.3287 -0.5151
 9466TIP3    H149889   1.711   1.541   0.952  1.5350  1.7063 -0.8780
 9466TIP3    H249890   1.689   1.601   1.089  0.3204  0.6743 -0.6052
 9467TIP3   OH249891   1.005   0.737  17.723 -0.3417  0.2612  0.0483
 9467TIP3    H149892   1.001   0.822  17.766  0.8793  0.2622  0.2103
 9467TIP3    H249893   1.016   0.674  17.794 -0.7838  0.0129 -0.0991
 9468TIP3   OH249894   2.289   1.474  10.222  0.7738 -0.0812 -0.2412
 9468TIP3    H149895   2.334   1.481  10.138 -0.5509  0.2515 -0.9493
 9468TIP3    H249896   2.231   1.550  10.224  0.4526 -0.3454  0.7636
 9469TIP3   OH249897   1.478   0.578   2.640 -0.0502  0.0296 -0.1962
 9469TIP3    H149898   1.502   0.486   2.634  0.7102  0.1485  0.8487
 9469TIP3    H249899   1.513   0.617   2.560 -2.0166 -0.9085 -1.6030
 9470TIP3   OH249900   0.267   2.587 103.526  0.5552 -0.0409  0.2206
 9470TIP3    H149901   0.224   2.648 103.466  0.5188  0.2995  0.5877
 9470TIP3    H249902   0.351   2.567 103.485  0.6309  0.3752  0.1650
 9471TIP3   OH249903   1.171   1.031  83.032 -0.2477  0.1177 -0.4494
 9471TIP3    H149904   1.117   1.072  82.964 -1.4861  1.3716  1.1831
 9471TIP3    H249905   1.118   1.038  83.112  0.8692 -1.8621  0.5511
 9472TIP3   OH249906   1.230   2.167  28.156 -0.4082 -0.1604 -0.0624
 9472TIP3    H149907   1.233   2.235  28.089 -1.0457 -0.5024 -0.4364
 9472TIP3    H249908   1.152   2.187  28.208 -1.0911 -1.0923 -0.6982
 9473TIP3   OH249909   0.229   1.247  57.773 -0.2370 -0.3172 -0.4386
 9473TIP3    H149910   0.320   1.251  57.802 -1.0099  0.2987  2.1466
 9473TIP3    H249911   0.197   1.162  57.805 -0.2249 -1.1833 -2.5880
 9474TIP3   OH249912   0.465   0.510  22.554  0.4379 -0.3913 -0.1724
 9474TIP3    H149913   0.557   0.528  22.535  0.1635  2.0330  0.3973
 9474TIP3    H249914   0.417   0.569  22.496 -0.6577 -0.0527  1.0238
 9475TIP3   OH249915   0.641   1.791  94.787  0.2595  1.4207  0.3765
 9475TIP3    H149916   0.679   1.726  94.729 -1.0307 -0.3693  1.4355
 9475TIP3    H249917   0.579   1.839  94.732  0.2386  0.8452 -0.1044
 9476TIP3   OH249918   0.991   2.186  89.335  0.5607 -0.1786 -0.2409
 9476TIP3    H149919   0.972   2.272  89.375  0.2323  0.4679 -1.7224
 9476TIP3    H249920   1.074   2.199  89.289 -0.1130 -0.2790 -1.5094
 9477TIP3   OH249921   2.416   2.258   6.970  0.2558 -0.3701  0.2436
 9477TIP3    H149922   2.438   2.185   6.911 -1.0951 -0.5823 -0.0209
 9477TIP3    H249923   2.344   2.225   7.023  0.8136  0.1619  1.3846
 9478TIP3   OH249924   0.993   1.391   8.430 -0.3112  0.0613  0.8850
 9478TIP3    H149925   1.046   1.419   8.505  1.2055 -0.6400  0.1272
 9478TIP3    H249926   0.940   1.319   8.464  0.5655 -0.4378  1.2360
 9479TIP3   OH249927   0.649   1.988  15.417 -0.3522 -0.3392  0.2643
 9479TIP3    H149928   0.736   2.009  15.451 -0.2706  0.8866 -0.5988
 9479TIP3    H249929   0.660   1.992  15.322 -1.6268  1.2516  0.1398
 9480TIP3   OH249930   2.178   0.821  76.153 -0.0215  0.2591  0.1991
 9480TIP3    H149931   2.145   0.910  76.142 -2.0965 -0.5482 -0.6852
 9480TIP3    H249932   2.165   0.780  76.067  0.8333 -0.9193  0.6063
 9481TIP3   OH249933   1.754   0.496  36.894  1.1202 -0.3453 -0.1441
 9481TIP3    H149934   1.830   0.549  36.917  0.9443 -0.5966  1.1226
 9481TIP3    H249935   1.718   0.537  36.815  0.7965  1.6279  0.9673
 9482TIP3   OH249936   0.618   1.542  13.602 -0.2222 -0.0716  0.0315
 9482TIP3    H149937   0.529   1.578  13.596  0.1104  0.7503 -0.0592
 9482TIP3    H249938   0.664   1.602  13.662  0.0186 -1.0128  0.8185
 9483TIP3   OH249939   0.466   1.666   3.974  0.2981 -0.3157 -0.1617
 9483TIP3    H149940   0.421   1.664   3.889  0.5847 -0.2991 -0.3145
 9483TIP3    H249941   0.476   1.759   3.993 -0.2299 -0.3144  0.1407
 9484TIP3   OH249942   0.856   2.501  98.596  0.3905  0.2168  0.4517
 9484TIP3    H149943   0.951   2.508  98.591  0.3901 -0.4105 -0.7258
 9484TIP3    H249944   0.826   2.589  98.619  1.1436  0.9014 -1.0808
 9485TIP3   OH249945   2.528   1.615  27.690 -0.0785 -0.0272 -0.3621
 9485TIP3    H149946   2.532   1.678  27.618 -0.3738 -1.0954 -1.3456
 9485TIP3    H249947   2.537   1.668  27.769 -0.1342  1.2180 -1.1662
 9486TIP3   OH249948   1.840   0.324  63.037 -0.1654  0.3603  0.3148
 9486TIP3    H149949   1.792   0.243  63.018 -0.1711  0.2099  0.9539
 9486TIP3    H249950   1.921   0.294  63.078  0.2964  0.6313 -0.3951
 9487TIP3   OH249951   2.201   1.941  94.406  0.4768 -0.0937  0.0776
 9487TIP3    H149952   2.108   1.928  94.387  0.3977 -0.4057  0.6569
 9487TIP3    H249953   2.245   1.870  94.359  0.3693 -0.2876  0.2710
 9488TIP3   OH249954   1.656   1.784 112.079  0.9494  0.5033 -0.0331
 9488TIP3    H149955   1.722   1.724 112.045  1.1368  1.3336 -1.2002
 9488TIP3    H249956   1.588   1.727 112.115  1.9018 -0.3701  0.4314
 9489TIP3   OH249957   1.900   1.598  75.125 -0.3399  0.2449  0.1735
 9489TIP3    H149958   1.902   1.521  75.069 -2.5703 -0.5369  1.0684
 9489TIP3    H249959   1.808   1.609  75.148  0.3579  0.9233  3.1074
 9490TIP3   OH249960   0.672   2.100 105.967  0.0248 -0.3001 -0.1442
 9490TIP3    H149961   0.590   2.051 105.962  1.0280 -2.1025  0.2249
 9490TIP3    H249962   0.673   2.136 106.056  0.5350 -1.9826  0.5600
 9491TIP3   OH249963   2.663   1.072  35.412 -0.1267  0.3450  0.1816
 9491TIP3    H149964   2.591   1.075  35.476  1.3367  0.2333  1.9177
 9491TIP3    H249965   2.619   1.068  35.327 -2.2691 -2.4922  1.2330
 9492TIP3   OH249966   1.133   2.153  11.831  0.1227 -0.3700  0.1219
 9492TIP3    H149967   1.053   2.165  11.882  0.0919  0.0975 -0.0343
 9492TIP3    H249968   1.107   2.169  11.740  0.7966  1.7360  0.2630
 9493TIP3   OH249969   2.112   0.808  82.005 -0.4590 -0.6431  0.7894
 9493TIP3    H149970   2.017   0.817  82.002 -0.4800 -0.8051  1.0016
 9493TIP3    H249971   2.129   0.740  82.069 -0.0240  2.0466  3.7823
 9494TIP3   OH249972   0.549   2.359  94.095 -0.6145  0.0263 -0.5029
 9494TIP3    H149973   0.491   2.300  94.143 -1.2301  1.4074  0.5326
 9494TIP3    H249974   0.623   2.373  94.153  0.4141 -1.0832 -1.4847
 9495TIP3   OH249975   1.936   1.137  34.160 -0.3197 -0.4108 -0.0362
 9495TIP3    H149976   1.906   1.223  34.190  2.3745  1.8126 -3.0258
 9495TIP3    H249977   2.024   1.128  34.196 -0.0682 -1.3046 -0.8157
 9496TIP3   OH249978   0.857   2.084  84.343 -0.0017  0.5908  0.3203
 9496TIP3    H149979   0.943   2.057  84.309 -0.8764 -1.9119 -0.1570
 9496TIP3    H249980   0.804   2.100  84.266 -0.3676  0.6686  0.5829
 9497TIP3   OH249981   0.320   0.131  16.906  0.0025  0.1779  0.0945
 9497TIP3    H149982   0.337   0.218  16.940 -0.3655  0.4099 -0.3014
 9497TIP3    H249983   0.380   0.122  16.831  1.4561 -0.6720  1.2973
 9498TIP3   OH249984   2.367   0.071  29.613 -0.0393 -0.2196 -0.1884
 9498TIP3    H149985   2.411   0.052  29.696 -0.4529 -0.4145 -0.0151
 9498TIP3    H249986   2.409   0.151  29.582 -0.2794  0.1757  0.4927
 9499TIP3   OH249987   0.246   0.860  18.021  0.3100 -0.1722 -0.3357
 9499TIP3    H149988   0.329   0.901  17.999  1.6461 -2.3374  0.4160
 9499TIP3    H249989   0.253   0.771  17.986 -1.6695 -0.4416 -0.1754
 9500TIP3   OH249990   1.359   0.530  14.509  0.1714  0.3534 -0.0842
 9500TIP3    H149991   1.451   0.554  14.510  0.2352  0.1125  0.0108
 9500TIP3    H249992   1.315   0.602  14.553  0.1968  0.9116 -0.9523
 9501TIP3   OH249993   1.957   1.618  99.897  0.5829 -0.4618 -0.0247
 9501TIP3    H149994   1.948   1.522  99.895 -0.6732 -0.3552 -1.9152
 9501TIP3    H249995   1.947   1.645  99.806  0.3853  1.5303  0.5432
 9502TIP3   OH249996   1.329   0.038  12.640  0.1850  0.1185 -0.5611
 9502TIP3    H149997   1.252   0.000  12.597 -0.6831  1.3027 -0.1307
 9502TIP3    H249998   1.402   0.017  12.583 -0.5836 -0.3623 -1.3957
 9503TIP3   OH249999   0.757   2.490  11.576 -0.5354  0.4309 -0.0160
 9503TIP3    H150000   0.687   2.510  11.515  0.8780  3.0407 -0.9068
 9503TIP3    H250001   0.819   2.438  11.525 -1.1329 -0.7416  0.3994
 9504TIP3   OH250002   0.303   0.158  87.403 -0.3088  0.2111 -0.4773
 9504TIP3    H150003   0.243   0.173  87.476 -0.1607  0.1581 -0.3473
 9504TIP3    H250004   0.297   0.064  87.387 -0.6923  0.2940 -0.8339
 9505TIP3   OH250005   0.385   1.192  18.946  0.4238  0.1893 -0.0456
 9505TIP3    H150006   0.391   1.096  18.945 -2.5707 -0.0847 -1.6832
 9505TIP3    H250007   0.407   1.218  18.856  1.0858  1.0491  0.3544
 9506TIP3   OH250008   0.650   0.979  27.689  0.0078  0.3975  0.0596
 9506TIP3    H150009   0.704   0.930  27.627 -1.6024 -1.1666 -0.2015
 9506TIP3    H250010   0.710   1.005  27.759  1.0583 -1.5367 -0.0557
 9507TIP3   OH250011   0.911   0.631  14.151  0.1144 -0.0283  0.2067
 9507TIP3    H150012   0.980   0.591  14.099  0.9180 -0.1644  1.3539
 9507TIP3    H250013   0.940   0.721  14.164 -1.2619  0.7596 -1.6127
 9508TIP3   OH250014   1.608   2.242  32.714 -0.3094 -0.0679  0.1503
 9508TIP3    H150015   1.670   2.302  32.756  0.5976 -0.9962  0.1675
 9508TIP3    H250016   1.663   2.177  32.670 -1.2759 -1.2063  0.5747
 9509TIP3   OH250017   1.515   2.438   8.693  0.3149  0.2635  0.6820
 9509TIP3    H150018   1.552   2.398   8.771 -1.9306  1.2471  2.3754
 9509TIP3    H250019   1.427   2.399   8.686  0.1347  0.8631 -0.8462
 9510TIP3   OH250020   0.889   2.547 111.995  0.2540 -0.1913  0.5114
 9510TIP3    H150021   0.852   2.630 111.964 -0.2302 -0.7490 -0.4619
 9510TIP3    H250022   0.922   2.505 111.916  0.9433 -0.7141  1.0659
 9511TIP3   OH250023   0.193   1.304 109.529 -0.2136 -0.5184  0.2658
 9511TIP3    H150024   0.260   1.268 109.587 -0.7748 -2.6891 -0.3700
 9511TIP3    H250025   0.118   1.321 109.586  0.3826  0.7012  0.7350
 9512TIP3   OH250026   0.357   1.373  15.147 -0.4048  0.4123 -0.4200
 9512TIP3    H150027   0.422   1.306  15.169 -0.5745  0.6871  1.0006
 9512TIP3    H250028   0.336   1.356  15.056 -0.0103 -1.1103 -0.2603
 9513TIP3   OH250029   1.620   1.791  88.988 -0.2992 -0.0760  0.1773
 9513TIP3    H150030   1.527   1.809  88.978 -0.3773  0.6956  2.0385
 9513TIP3    H250031   1.624   1.700  89.016 -0.3823 -0.5065 -1.1157
 9514TIP3   OH250032   0.688   0.658  52.358  0.3407  0.1413  1.1847
 9514TIP3    H150033   0.717   0.732  52.412  3.9803 -1.1764  1.3459
 9514TIP3    H250034   0.741   0.665  52.278  0.3433 -1.9196  0.9665
 9515TIP3   OH250035   2.440   1.820 111.778  0.3007 -0.5754  0.3127
 9515TIP3    H150036   2.447   1.724 111.777 -0.7441 -0.6535 -0.2029
 9515TIP3    H250037   2.346   1.837 111.779  0.4820  0.4467  1.2123
 9516TIP3   OH250038   0.865   2.441   5.072  0.2592 -0.4178  0.3894
 9516TIP3    H150039   0.917   2.503   5.123  0.5248 -0.2662 -0.0667
 9516TIP3    H250040   0.926   2.371   5.049 -0.4095 -1.7208  2.3209
 9517TIP3   OH250041   2.593   0.636  91.857 -0.3150  0.1655  0.1529
 9517TIP3    H150042   2.550   0.721  91.854  0.5289  0.5740 -0.8228
 9517TIP3    H250043   2.534   0.582  91.910 -1.8213  0.8173 -0.7810
 9518TIP3   OH250044   1.529   0.814  26.815 -0.4324 -0.0768 -0.4355
 9518TIP3    H150045   1.448   0.844  26.856 -0.1962  0.0670 -0.0736
 9518TIP3    H250046   1.596   0.874  26.847  0.0295 -0.9232  0.2213
 9519TIP3   OH250047   0.984   0.955  18.368  0.6191  0.4814  0.0390
 9519TIP3    H150048   0.964   1.036  18.322 -1.7449 -0.5097 -0.8362
 9519TIP3    H250049   0.910   0.943  18.428  1.6430 -0.3214  1.1981
 9520TIP3   OH250050   0.222   2.674   7.339 -0.0896 -0.1934  1.1234
 9520TIP3    H150051   0.131   2.652   7.319  0.3181 -1.3109  0.3934
 9520TIP3    H250052   0.257   2.594   7.380  0.3246  0.5396  2.2408
 9521TIP3   OH250053   0.423   2.095  63.735  0.3511 -0.2955 -0.7226
 9521TIP3    H150054   0.332   2.125  63.738 -0.1218 -1.1132 -3.6022
 9521TIP3    H250055   0.417   2.003  63.708  1.9902 -1.1448  1.5278
 9522TIP3   OH250056   0.416   2.489  97.610  0.6072  0.0803 -0.0694
 9522TIP3    H150057   0.377   2.450  97.532  0.8952  1.7251 -1.0858
 9522TIP3    H250058   0.510   2.478  97.598  0.6210 -2.5103  1.6411
 9523TIP3   OH250059   1.230   0.744 111.342 -0.0591  0.3712  0.1111
 9523TIP3    H150060   1.206   0.657 111.373  0.5425 -0.5382 -1.8439
 9523TIP3    H250061   1.168   0.803 111.387 -1.2838 -1.1676  0.5281
 9524TIP3   OH250062   0.307   1.571  68.276 -0.2823 -0.1570 -0.0709
 9524TIP3    H150063   0.350   1.561  68.191 -2.5100 -0.0181 -1.3119
 9524TIP3    H250064   0.320   1.662  68.300  1.6432 -0.5468  0.5413
 9525TIP3   OH250065   0.522   1.331  81.725  0.2806 -0.5782 -0.6717
 9525TIP3    H150066   0.556   1.420  81.731 -0.8415 -0.2050  0.6901
 9525TIP3    H250067   0.598   1.275  81.740  0.4183  0.2207  2.0201
 9526TIP3   OH250068   1.540   2.533  37.221  0.6284 -0.0102  0.2669
 9526TIP3    H150069   1.535   2.579  37.305 -2.7439  0.6400 -0.1371
 9526TIP3    H250070   1.453   2.543  37.184  1.7479 -1.0600 -2.9427
 9527TIP3   OH250071   0.297   0.954 108.123  0.5275  0.1053 -0.0086
 9527TIP3    H150072   0.232   0.892 108.157 -0.3952  1.0084 -0.0618
 9527TIP3    H250073   0.250   1.000 108.053  2.0069 -0.9274 -1.7838
 9528TIP3   OH250074   2.294   1.813  82.920 -0.7875 -0.1368 -0.0195
 9528TIP3    H150075   2.235   1.811  82.845 -0.5421  0.2298 -0.2279
 9528TIP3    H250076   2.237   1.825  82.995 -0.9942  0.1501 -0.2160
 9529TIP3   OH250077   1.208   2.277 111.791 -0.2762 -0.1280  0.2725
 9529TIP3    H150078   1.240   2.194 111.827 -0.6342 -1.2709 -1.8670
 9529TIP3    H250079   1.286   2.324 111.763 -0.1612 -0.5448 -0.1146
 9530TIP3   OH250080   0.268   2.547  94.112 -0.0364  0.0577  0.4590
 9530TIP3    H150081   0.186   2.565  94.157 -0.1417  0.6117  0.0495
 9530TIP3    H250082   0.336   2.571  94.175 -0.1685  1.7839 -0.0036
 9531TIP3   OH250083   1.791   1.830 105.429  0.0347 -0.2994 -0.1480
 9531TIP3    H150084   1.722   1.773 105.394 -0.2463 -0.9692  1.3816
 9531TIP3    H250085   1.749   1.916 105.437 -0.6286 -0.6906  0.7229
 9532TIP3   OH250086   0.429   1.513 102.207 -0.0655 -0.4240  0.3848
 9532TIP3    H150087   0.494   1.571 102.246 -0.6570  0.8730 -0.4817
 9532TIP3    H250088   0.476   1.466 102.138 -0.1009  0.8182 -0.5259
 9533TIP3   OH250089   1.971   0.712  77.291  0.0136 -0.4253  0.7562
 9533TIP3    H150090   1.966   0.800  77.329  0.1937 -0.6136  1.2114
 9533TIP3    H250091   1.914   0.717  77.214  0.1671  0.1435  0.6720
 9534TIP3   OH250092   0.674   2.503  10.192 -0.1419  0.4029  0.4743
 9534TIP3    H150093   0.707   2.516  10.103  1.3070 -2.4803  0.4794
 9534TIP3    H250094   0.580   2.491  10.181 -0.1548  1.2102 -0.4837
 9535TIP3   OH250095   1.311   1.097 102.076  0.0003  0.5506  0.1220
 9535TIP3    H150096   1.222   1.103 102.109  0.2892  0.8533  0.8644
 9535TIP3    H250097   1.362   1.154 102.133  0.9879 -1.0069  0.8712
 9536TIP3   OH250098   0.853   1.429  34.387  0.0071  0.4675  1.0215
 9536TIP3    H150099   0.889   1.509  34.425 -1.1070  1.2431  0.4821
 9536TIP3    H250100   0.776   1.458  34.339  0.4346 -0.7196 -0.4481
 9537TIP3   OH250101   0.541   1.562  52.933  0.0214 -0.3526 -0.4386
 9537TIP3    H150102   0.505   1.609  52.858 -0.7870  0.7957  0.6177
 9537TIP3    H250103   0.630   1.595  52.941  0.3492 -0.9951 -1.2867
 9538TIP3   OH250104   2.134   1.265  48.686  0.4187 -1.1487  0.0379
 9538TIP3    H150105   2.127   1.179  48.728 -0.1801 -1.6407 -1.0175
 9538TIP3    H250106   2.199   1.312  48.738 -2.4271 -0.5523  3.4268
 9539TIP3   OH250107   2.196   1.608  14.990 -0.2977 -0.1782 -0.1372
 9539TIP3    H150108   2.164   1.572  15.073 -1.1685  0.9989  0.0643
 9539TIP3    H250109   2.283   1.570  14.979  0.1669  0.2579  1.7181
 9540TIP3   OH250110   2.209   2.274  34.977 -0.3161 -0.4237  0.3180
 9540TIP3    H150111   2.147   2.344  35.002  1.1149  1.8431 -2.0296
 9540TIP3    H250112   2.279   2.280  35.042 -0.8131 -0.5940  0.8853
 9541TIP3   OH250113   2.657   2.014 106.802  0.0155 -0.0237  0.1185
 9541TIP3    H150114   2.706   2.076 106.748 -0.6124  0.1776 -0.2279
 9541TIP3    H250115   2.712   2.001 106.880 -0.3472  1.8029  0.7133
 9542TIP3   OH250116   1.260   1.957  34.985  0.2527 -0.1646  0.6780
 9542TIP3    H150117   1.305   1.872  34.990  1.8679  0.4008 -2.0659
 9542TIP3    H250118   1.322   2.020  35.022 -0.2693  0.0539  1.1987
 9543TIP3   OH250119   0.378   0.192  78.523 -0.7660  0.5276 -0.1269
 9543TIP3    H150120   0.302   0.231  78.480 -1.5667 -0.7586  0.0607
 9543TIP3    H250121   0.421   0.265  78.566 -0.6261  1.6674 -2.0657
 9544TIP3   OH250122   0.634   0.186  15.893 -0.2621 -0.0549  0.3747
 9544TIP3    H150123   0.591   0.101  15.881 -1.3480  0.5924 -0.6544
 9544TIP3    H250124   0.692   0.194  15.817 -0.5059  0.2933  0.2191
 9545TIP3   OH250125   0.867   0.771  29.078 -0.5221  0.0511  0.0227
 9545TIP3    H150126   0.854   0.701  29.142  0.4337 -0.2154 -0.0652
 9545TIP3    H250127   0.867   0.726  28.993 -1.0440  0.3086 -0.1168
 9546TIP3   OH250128   0.572   0.541  11.179  0.2156  0.2011  0.0420
 9546TIP3    H150129   0.478   0.544  11.163  0.0116 -1.9204  0.5978
 9546TIP3    H250130   0.606   0.620  11.137 -1.6461  0.3735 -1.2404
 9547TIP3   OH250131   2.451   1.430  73.919 -0.3302  0.0255 -0.4651
 9547TIP3    H150132   2.494   1.399  73.839 -3.0451 -0.0389 -2.0269
 9547TIP3    H250133   2.359   1.442  73.894 -0.5752  3.9541  1.5699
 9548TIP3   OH250134   0.567   1.914  90.279 -0.6238 -0.0705 -0.6288
 9548TIP3    H150135   0.481   1.891  90.315  1.0096 -0.5174  3.5358
 9548TIP3    H250136   0.601   1.832  90.244 -0.6035 -0.7316  0.8558
 9549TIP3   OH250137   2.512   2.586  73.473  0.4932 -0.0337 -0.1207
 9549TIP3    H150138   2.474   2.577  73.386  2.2044 -1.9405 -0.7564
 9549TIP3    H250139   2.486   2.673  73.502  1.1918  1.3513 -3.2200
 9550TIP3   OH250140   0.704   0.495  33.344 -0.3174  0.1990  0.3008
 9550TIP3    H150141   0.613   0.465  33.338 -0.3948  0.6033 -0.6699
 9550TIP3    H250142   0.697   0.585  33.376 -0.3596  0.7172 -1.0979
 9551TIP3   OH250143   0.639   1.484 104.609 -0.0894  0.1870  0.3922
 9551TIP3    H150144   0.713   1.428 104.588  0.5171  1.3074 -0.5448
 9551TIP3    H250145   0.637   1.549 104.539 -1.6699  0.4687  0.6616
 9552TIP3   OH250146   2.609   2.377  86.465  0.9749  0.0994 -0.0739
 9552TIP3    H150147   2.697   2.407  86.445  0.7042  0.7935 -0.2750
 9552TIP3    H250148   2.564   2.455  86.497 -0.0111  0.1575 -1.4728
 9553TIP3   OH250149   1.055   1.319  25.431 -0.7110 -0.3869  0.8645
 9553TIP3    H150150   1.114   1.370  25.486 -1.2489  0.5602  0.5765
 9553TIP3    H250151   0.974   1.369  25.429 -0.7043 -0.4083 -0.7890
 9554TIP3   OH250152   1.079   0.640  36.933  0.2791  0.1481  0.2457
 9554TIP3    H150153   1.078   0.690  36.851  0.0417 -0.0934  0.0979
 9554TIP3    H250154   1.004   0.580  36.925 -0.4624  0.9219  1.1263
 9555TIP3   OH250155   0.628   1.695  35.544  0.0732  0.6295 -0.3297
 9555TIP3    H150156   0.685   1.771  35.534  0.2235  0.3670 -1.6905
 9555TIP3    H250157   0.608   1.692  35.637  2.0739  0.8874  0.1601
 9556TIP3   OH250158   1.370   0.375   6.034 -0.8857  0.0916  0.5670
 9556TIP3    H150159   1.396   0.381   6.126 -1.8445  1.8678  0.7711
 9556TIP3    H250160   1.452   0.383   5.986 -0.4944  0.4114  1.2659
 9557TIP3   OH250161   1.136   2.615  41.615 -0.1618  0.6894 -0.2354
 9557TIP3    H150162   1.231   2.625  41.625  0.4596 -3.1107 -0.5606
 9557TIP3    H250163   1.110   2.683  41.554  2.7640  0.5862 -1.7498
 9558TIP3   OH250164   0.456   2.555  91.384  0.1722  0.8180 -0.4285
 9558TIP3    H150165   0.422   2.515  91.463  3.1291  1.0231  1.1027
 9558TIP3    H250166   0.413   2.640  91.378  0.5427  1.1930  1.5397
 9559TIP3   OH250167   0.955   1.347  82.089  0.5085 -0.3903  0.0517
 9559TIP3    H150168   0.909   1.383  82.165  0.4172  0.8535 -0.5606
 9559TIP3    H250169   1.030   1.405  82.077 -0.1686  0.2145 -1.5417
 9560TIP3   OH250170   0.483   0.707  13.857 -0.1183 -0.4326  0.3406
 9560TIP3    H150171   0.460   0.763  13.931 -0.4667 -0.4015  0.2105
 9560TIP3    H250172   0.511   0.768  13.789  0.0364 -0.4514  0.3870
 9561TIP3   OH250173   1.906   0.252  57.402  0.6107 -0.2925 -0.1241
 9561TIP3    H150174   1.856   0.283  57.327  0.7863  1.5838  0.4889
 9561TIP3    H250175   1.972   0.194  57.364 -0.0109 -0.2833 -1.2718
 9562TIP3   OH250176   2.442   2.176   2.475 -0.4760  0.3876  0.2389
 9562TIP3    H150177   2.408   2.127   2.400 -1.1014 -0.9113  1.3342
 9562TIP3    H250178   2.371   2.234   2.500 -0.2511  0.8540 -0.1652
 9563TIP3   OH250179   2.632   0.376   1.907  0.2290  0.0677  0.3052
 9563TIP3    H150180   2.709   0.423   1.875  0.5184 -0.8238 -0.3415
 9563TIP3    H250181   2.652   0.283   1.891 -1.9662 -0.0693 -2.1147
 9564TIP3   OH250182   2.015   2.363  76.002  0.1938 -0.5125  0.0461
 9564TIP3    H150183   2.015   2.363  76.098  0.6165  0.4228  0.0596
 9564TIP3    H250184   2.072   2.291  75.977 -0.1435 -0.9400  0.4923
 9565TIP3   OH250185   1.024   2.383   1.512 -0.2074  0.5879 -0.1812
 9565TIP3    H150186   0.934   2.408   1.530  0.0915  2.0761 -0.6261
 9565TIP3    H250187   1.024   2.354   1.421 -0.0696  1.5500 -0.5001
 9566TIP3   OH250188   0.468   2.596  89.873 -0.0561  0.4287  0.0693
 9566TIP3    H150189   0.499   2.677  89.913  1.1687 -0.0949  0.2244
 9566TIP3    H250190   0.491   2.528  89.937  0.3538 -0.2144 -0.7441
 9567TIP3   OH250191   2.178   1.186  85.139  0.3752 -0.2648  0.0788
 9567TIP3    H150192   2.131   1.240  85.202 -0.3300 -1.1759  0.3588
 9567TIP3    H250193   2.109   1.134  85.096  0.7526  0.7564 -1.8862
 9568TIP3   OH250194   2.497   2.154  88.935 -0.3438  0.5471  0.2917
 9568TIP3    H150195   2.514   2.180  89.026 -1.0255 -1.3747  1.0251
 9568TIP3    H250196   2.546   2.072  88.925 -0.8510  0.3745 -0.8492
 9569TIP3   OH250197   0.926   0.771 107.125 -0.1212 -0.4791 -0.3530
 9569TIP3    H150198   0.900   0.735 107.210  1.0465 -1.7426 -0.4924
 9569TIP3    H250199   0.976   0.850 107.148  0.6462 -1.1013  0.1874
 9570TIP3   OH250200   2.032   1.807   5.004 -0.4695  0.7510  0.0142
 9570TIP3    H150201   2.058   1.774   4.918  0.0061  0.5721  0.2255
 9570TIP3    H250202   2.031   1.902   4.995 -1.3613  0.7091 -0.4589
 9571TIP3   OH250203   0.359   2.190 100.382  0.0120  0.4228 -0.0035
 9571TIP3    H150204   0.407   2.110 100.362 -0.1266  0.6794 -1.5349
 9571TIP3    H250205   0.302   2.203 100.306 -0.2239  1.7818  0.3773
 9572TIP3   OH250206   1.576   0.517  34.984  0.2269  0.5098 -0.4603
 9572TIP3    H150207   1.564   0.465  34.904  0.1128  0.2735 -0.2893
 9572TIP3    H250208   1.561   0.608  34.956 -3.2602  0.1987 -0.0479
 9573TIP3   OH250209   0.080   1.534  13.013 -0.0110  0.2302  0.7849
 9573TIP3    H150210   0.080   1.443  13.043 -1.1766 -0.0063  0.1424
 9573TIP3    H250211   0.056   1.528  12.920  0.7959  1.1388  0.5004
 9574TIP3   OH250212   2.010   1.767 100.116  0.4686  0.5154 -0.3496
 9574TIP3    H150213   1.925   1.801 100.145  0.2098 -0.5310  0.1685
 9574TIP3    H250214   1.988   1.707 100.044  0.5807 -0.9641  0.7943
 9575TIP3   OH250215   0.425   1.801 109.948  0.0987 -0.2764 -0.0376
 9575TIP3    H150216   0.431   1.878 110.005 -0.3698 -0.6011  0.4649
 9575TIP3    H250217   0.483   1.737 109.988  1.4761  0.2123 -1.1492
 9576TIP3   OH250218   0.086   2.106   0.706  0.3114  0.5478  0.2759
 9576TIP3    H150219   0.001   2.122   0.747 -0.5310 -1.7889 -0.4468
 9576TIP3    H250220   0.081   2.017   0.672  2.8602  0.5411 -0.3098
 9577TIP3   OH250221   1.891   0.224 110.176 -0.3721 -0.1757 -0.1550
 9577TIP3    H150222   1.813   0.277 110.158 -0.2835  0.3044  0.8233
 9577TIP3    H250223   1.942   0.229 110.095 -1.0509  0.0277 -0.5805
 9578TIP3   OH250224   0.898   0.491  97.409 -0.0684 -0.3602  0.3807
 9578TIP3    H150225   0.980   0.510  97.364  0.1583  0.4490  1.1124
 9578TIP3    H250226   0.844   0.447  97.343  0.3132  0.6239 -0.6166
 9579TIP3   OH250227   2.631   0.417 100.770 -0.2775  0.5927 -0.2365
 9579TIP3    H150228   2.620   0.322 100.774  0.6042  0.5264  1.3957
 9579TIP3    H250229   2.544   0.452 100.791 -1.1379  0.2170 -2.8198
 9580TIP3   OH250230   2.515   0.373   0.962 -0.1349  0.1141 -0.0575
 9580TIP3    H150231   2.543   0.318   1.036 -0.3822 -0.3612 -0.3088
 9580TIP3    H250232   2.420   0.364   0.960 -0.2731  1.2858  0.4557
 9581TIP3   OH250233   1.788   2.184 107.763 -0.2449 -0.0315 -0.2086
 9581TIP3    H150234   1.719   2.169 107.697 -0.3241 -1.3580  0.1459
 9581TIP3    H250235   1.821   2.097 107.782 -2.5248 -0.2323  3.9887
 9582TIP3   OH250236   0.787   2.396  32.200  0.0633  0.5654 -0.4063
 9582TIP3    H150237   0.774   2.458  32.271 -2.2374  0.1669 -0.4172
 9582TIP3    H250238   0.768   2.310  32.238 -1.2155  0.3450 -1.4696
 9583TIP3   OH250239   2.401   2.119  33.987 -0.1205 -0.7927 -0.5856
 9583TIP3    H150240   2.411   2.028  34.014  0.1600 -1.1291 -1.7635
 9583TIP3    H250241   2.480   2.162  34.019  1.2495 -1.6425 -2.6055
 9584TIP3   OH250242   0.183   2.506  25.597 -0.3169  0.2908 -0.3006
 9584TIP3    H150243   0.158   2.422  25.557  0.5889  0.3823 -1.1025
 9584TIP3    H250244   0.258   2.485  25.652 -2.3320 -0.0745  2.4986
 9585TIP3   OH250245   0.762   1.783  14.971 -0.4009  0.3932  0.0413
 9585TIP3    H150246   0.675   1.770  14.935 -0.6019 -1.0981  0.9787
 9585TIP3    H250247   0.798   1.695  14.979  0.1221  0.7424  2.2047
 9586TIP3   OH250248   1.087   0.571  16.645  0.3312 -0.8489  0.1414
 9586TIP3    H150249   1.038   0.504  16.692 -0.7249 -1.8028 -2.1633
 9586TIP3    H250250   1.046   0.653  16.670 -0.7389 -1.4057  0.2701
 9587TIP3   OH250251   0.470   0.293  12.903  0.3927  0.2342  0.3535
 9587TIP3    H150252   0.495   0.380  12.933  1.3328  0.3235 -0.6549
 9587TIP3    H250253   0.441   0.306  12.813  1.5326 -0.6391 -0.1588
 9588TIP3   OH250254   1.699   0.668 109.963  0.3496  0.0504  0.3576
 9588TIP3    H150255   1.736   0.740 109.913  0.6232 -1.0116 -1.0167
 9588TIP3    H250256   1.613   0.700 109.991 -0.0871  0.4672 -1.3455
 9589TIP3   OH250257   2.238   1.410  12.337  0.1941  0.1738 -0.2456
 9589TIP3    H150258   2.306   1.476  12.344  0.2304  0.0444  0.7267
 9589TIP3    H250259   2.267   1.354  12.265  0.6256  0.6698 -0.4691
 9590TIP3   OH250260   2.543   2.605  95.107 -0.2146 -0.1877  0.3369
 9590TIP3    H150261   2.609   2.632  95.171  0.5362  0.2132 -0.5880
 9590TIP3    H250262   2.513   2.686  95.067  0.5541 -0.5241 -0.9940
 9591TIP3   OH250263   1.728   0.087 106.624 -0.2259  0.3908  0.4675
 9591TIP3    H150264   1.783   0.125 106.692  0.1493  0.7104 -0.0082
 9591TIP3    H250265   1.686   0.012 106.666 -0.6844  1.0969  1.3095
 9592TIP3   OH250266   1.755   0.286  98.964 -0.3809  0.4420  0.1735
 9592TIP3    H150267   1.771   0.378  98.943 -2.3186  1.3561  2.2591
 9592TIP3    H250268   1.809   0.269  99.041 -0.0908 -0.1353 -0.1569
 9593TIP3   OH250269   1.580   1.576   2.067 -0.2729  0.3093  0.7926
 9593TIP3    H150270   1.659   1.521   2.072  0.4045  1.2900  1.2660
 9593TIP3    H250271   1.606   1.648   2.009 -0.7519  0.7602  1.1353
 9594TIP3   OH250272   2.669   0.697 105.098 -0.2898  0.2347 -0.8269
 9594TIP3    H150273   2.724   0.623 105.122 -0.5454  0.3213  0.0452
 9594TIP3    H250274   2.698   0.720 105.009  1.2365  0.4275 -0.3125
 9595TIP3   OH250275   2.680   0.249 101.474  0.1889 -0.1407 -0.7154
 9595TIP3    H150276   2.758   0.214 101.431 -0.5090 -1.1469 -1.1924
 9595TIP3    H250277   2.607   0.203 101.433 -0.5565 -0.5253  0.9592
 9596TIP3   OH250278   0.286   0.664  63.850 -0.4256  0.1291 -0.1032
 9596TIP3    H150279   0.317   0.753  63.870 -0.0556 -0.6458  3.5626
 9596TIP3    H250280   0.359   0.623  63.804  2.6545 -0.2655  4.3955
 9597TIP3   OH250281   0.059   0.351  22.929 -0.4509  0.3029 -0.1308
 9597TIP3    H150282   0.041   0.333  23.021  0.5185  0.0806  0.0249
 9597TIP3    H250283   0.135   0.296  22.908  0.6380  1.8844 -0.4952
 9598TIP3   OH250284   1.026   1.891   3.976  0.0806  0.3226  0.2305
 9598TIP3    H150285   1.061   1.808   3.942 -1.8174 -0.8327  0.9656
 9598TIP3    H250286   1.090   1.918   4.042  0.0544 -1.2841  0.9441
 9599TIP3   OH250287   1.734   2.087  18.924 -0.1946 -0.1944 -0.1666
 9599TIP3    H150288   1.790   2.165  18.919  1.1407 -1.1719 -1.5175
 9599TIP3    H250289   1.682   2.089  18.844 -0.6768 -0.3294  0.1403
 9600TIP3   OH250290   2.196   0.686  12.054 -0.0232 -0.3705 -0.2939
 9600TIP3    H150291   2.220   0.730  11.972 -0.9358 -1.2508 -1.0603
 9600TIP3    H250292   2.271   0.630  12.074  0.3348  0.0793 -0.3460
 9601TIP3   OH250293   1.467   0.585  22.872  0.0166  0.1373 -0.4154
 9601TIP3    H150294   1.491   0.512  22.814  0.9205  0.6156 -0.6683
 9601TIP3    H250295   1.539   0.590  22.935 -1.1633 -0.6610  1.0628
 9602TIP3   OH250296   1.075   1.372  18.678  0.4863  0.1999 -0.1299
 9602TIP3    H150297   1.154   1.335  18.718  1.3904  1.5947 -0.5647
 9602TIP3    H250298   1.050   1.444  18.736 -1.3704 -1.1372  0.8203
 9603TIP3   OH250299   1.625   0.540  95.229  0.7308 -0.1772 -0.0010
 9603TIP3    H150300   1.678   0.573  95.156  0.5820 -0.8594 -0.4174
 9603TIP3    H250301   1.617   0.446  95.213  0.1758 -0.2336  0.5636
 9604TIP3   OH250302   0.218   0.211 104.091 -0.5181 -0.3108  0.2090
 9604TIP3    H150303   0.215   0.169 104.177  0.1712  0.3628  0.5725
 9604TIP3    H250304   0.310   0.228 104.075 -0.8228  2.0382  0.5784
 9605TIP3   OH250305   2.245   1.958  26.972 -0.2672  0.3351 -0.7245
 9605TIP3    H150306   2.278   2.025  27.032  0.1635  0.5639 -1.2141
 9605TIP3    H250307   2.150   1.958  26.987 -0.2394  0.8465 -0.5103
 9606TIP3   OH250308   0.744   0.150  88.351  0.0515 -0.2513 -0.1633
 9606TIP3    H150309   0.697   0.095  88.414 -1.2534 -0.4360 -1.2460
 9606TIP3    H250310   0.678   0.213  88.321  0.4210 -0.6008 -1.8325
 9607TIP3   OH250311   0.984   0.452  99.958 -0.2476 -0.1410 -0.6311
 9607TIP3    H150312   0.963   0.531  99.909 -0.5866 -0.1721 -0.5429
 9607TIP3    H250313   0.908   0.439 100.016 -0.7954 -1.2512 -1.5555
 9608TIP3   OH250314   2.026   1.139  98.576  0.0823  0.5186  0.4103
 9608TIP3    H150315   2.062   1.195  98.507  0.0863 -0.8445 -0.7496
 9608TIP3    H250316   1.931   1.154  98.572  0.1391  0.9273  0.5606
 9609TIP3   OH250317   2.542   0.610  83.074  0.2662 -0.1330 -0.6003
 9609TIP3    H150318   2.467   0.573  83.028  1.0993 -0.5236 -1.6473
 9609TIP3    H250319   2.611   0.618  83.008  1.5017 -0.7347  0.5704
 9610TIP3   OH250320   0.805   0.270  25.574 -0.3369  0.1971 -0.0054
 9610TIP3    H150321   0.829   0.356  25.542 -0.5867 -0.0052 -0.7486
 9610TIP3    H250322   0.888   0.223  25.581 -0.3466  0.0195 -1.0230
 9611TIP3   OH250323   0.162   1.951 106.362  0.4016  0.0155  0.0662
 9611TIP3    H150324   0.109   1.909 106.429 -0.9491 -1.4098 -1.7948
 9611TIP3    H250325   0.200   2.028 106.406 -0.4113 -0.8336  2.4081
 9612TIP3   OH250326   1.120   1.346  29.721 -0.0080 -0.2270 -0.0993
 9612TIP3    H150327   1.061   1.273  29.738 -0.3834  0.1357  0.1605
 9612TIP3    H250328   1.195   1.306  29.676  0.7836 -1.1280  1.8893
 9613TIP3   OH250329   1.568   1.406   2.954  0.1342 -0.2034 -0.2841
 9613TIP3    H150330   1.570   1.310   2.957 -1.4568 -0.2586 -0.0085
 9613TIP3    H250331   1.590   1.433   3.043  1.8559 -0.2457 -0.6670
 9614TIP3   OH250332   0.338   2.019   3.614 -0.1118 -0.2184 -0.7176
 9614TIP3    H150333   0.277   2.051   3.548 -1.8753 -0.9081  0.5281
 9614TIP3    H250334   0.306   2.056   3.696  0.8882 -0.9600  0.0276
 9615TIP3   OH250335   0.644   1.236  34.580  0.2744 -0.3315  0.0321
 9615TIP3    H150336   0.647   1.274  34.668 -0.5828  1.2497 -0.5676
 9615TIP3    H250337   0.682   1.304  34.524 -0.7027 -0.6285 -1.0200
 9616TIP3   OH250338   2.407   1.856 101.203  0.5608  0.4251 -0.0035
 9616TIP3    H150339   2.319   1.883 101.176  1.0431  0.3918 -1.7498
 9616TIP3    H250340   2.411   1.763 101.179  0.5755  0.0186  1.4733
 9617TIP3   OH250341   2.463   1.093  23.914 -0.2992  0.4237  0.5512
 9617TIP3    H150342   2.472   1.113  24.008  1.1081  1.4819  0.2280
 9617TIP3    H250343   2.492   1.173  23.870  3.0192 -1.3721 -0.8244
 9618TIP3   OH250344   0.782   2.189  92.797 -0.3811  0.3069  0.4121
 9618TIP3    H150345   0.831   2.249  92.853 -1.1376  0.7925  0.5648
 9618TIP3    H250346   0.716   2.244  92.755  1.0332  0.2594 -2.0700
 9619TIP3   OH250347   2.452   1.864  34.105 -0.2836 -0.4075 -0.2376
 9619TIP3    H150348   2.427   1.898  34.191  0.3780  2.0514 -0.9508
 9619TIP3    H250349   2.517   1.796  34.124  2.1778  2.1758  1.1603
 9620TIP3   OH250350   2.612   0.580  18.658 -0.2612 -0.3489 -0.1913
 9620TIP3    H150351   2.662   0.506  18.622  1.8726  0.6288  0.5601
 9620TIP3    H250352   2.648   0.656  18.614 -0.3941  0.4975  1.1207
 9621TIP3   OH250353   0.356   2.414  85.986  0.0110 -0.0181 -0.2166
 9621TIP3    H150354   0.349   2.433  85.892  0.0070 -0.7656 -0.3752
 9621TIP3    H250355   0.441   2.370  85.995 -0.8224 -1.6524 -0.1756
 9622TIP3   OH250356   0.822   2.334  81.019 -0.5582 -0.1512  0.2767
 9622TIP3    H150357   0.782   2.376  81.095 -2.9056 -0.7591 -0.5421
 9622TIP3    H250358   0.882   2.269  81.055 -1.1706  0.0035  1.6050
 9623TIP3   OH250359   1.481   0.957  31.989  0.7297  0.3664 -0.2578
 9623TIP3    H150360   1.514   1.047  31.983  0.7625  0.4545  1.0742
 9623TIP3    H250361   1.478   0.927  31.898  0.7527  1.6975 -0.7208
 9624TIP3   OH250362   1.609   0.019   3.806 -0.7671  0.0285 -0.2175
 9624TIP3    H150363   1.649  -0.068   3.813  0.5522  0.5698 -0.8515
 9624TIP3    H250364   1.637   0.065   3.885  1.1621  0.9066 -1.3607
 9625TIP3   OH250365   2.279   1.336 111.043  0.4354 -0.2181 -0.3386
 9625TIP3    H150366   2.326   1.356 110.962 -1.3796 -1.3313 -1.7459
 9625TIP3    H250367   2.210   1.402 111.048  0.2923 -0.3937  0.1060
 9626TIP3   OH250368   1.587   1.432  28.250 -0.9376 -0.5179  0.6137
 9626TIP3    H150369   1.634   1.479  28.318  1.1877 -0.9314 -0.4946
 9626TIP3    H250370   1.555   1.353  28.293  2.1342 -1.7892  0.7516
 9627TIP3   OH250371   1.612   1.036  80.886 -0.8207 -0.1306 -0.3912
 9627TIP3    H150372   1.640   1.003  80.971 -2.2769 -1.2118 -0.2992
 9627TIP3    H250373   1.600   0.958  80.832 -0.1913  0.5207 -1.5205
 9628TIP3   OH250374   0.692   1.757  32.048  0.2057  0.0994  0.7364
 9628TIP3    H150375   0.614   1.768  32.104  0.3950  0.1561  0.9902
 9628TIP3    H250376   0.720   1.667  32.063 -1.0515 -0.6528 -0.9698
 9629TIP3   OH250377   0.973   1.728  10.965  0.1444 -0.3289 -0.2657
 9629TIP3    H150378   0.894   1.703  11.014 -0.5776  1.8977 -0.1613
 9629TIP3    H250379   1.042   1.673  11.001 -0.7132 -0.0160  2.0260
 9630TIP3   OH250380   2.222   0.036 103.502 -0.1185  0.2192 -0.0968
 9630TIP3    H150381   2.192   0.109 103.448  0.0941 -0.2503 -0.8645
 9630TIP3    H250382   2.270  -0.020 103.442 -0.3786 -0.6173  0.4640
 9631TIP3   OH250383   1.527   2.232 100.242  0.2780 -0.0888  0.0062
 9631TIP3    H150384   1.538   2.306 100.182  2.9518  0.6730  1.3061
 9631TIP3    H250385   1.613   2.190 100.244 -0.7318 -2.2596  0.5993
 9632TIP3   OH250386   2.281   2.519  30.414  0.3066  0.0345 -0.3951
 9632TIP3    H150387   2.283   2.432  30.375  0.6813  0.6011 -1.7097
 9632TIP3    H250388   2.195   2.525  30.456  0.4205 -1.0880  0.0024
 9633TIP3   OH250389   1.866   1.041 108.397 -0.3746 -0.1115  0.3846
 9633TIP3    H150390   1.858   1.135 108.415  0.6170  0.6628 -2.5408
 9633TIP3    H250391   1.781   1.005 108.418 -0.8443  1.4687  1.3943
 9634TIP3   OH250392   0.604   0.816  80.494  0.5227  0.1288  0.0161
 9634TIP3    H150393   0.534   0.865  80.536 -1.3546  0.2215 -2.9946
 9634TIP3    H250394   0.634   0.871  80.422 -0.2473 -2.1588 -2.2056
 9635TIP3   OH250395   1.375   0.246  21.582 -0.5993 -0.4698 -0.2533
 9635TIP3    H150396   1.294   0.220  21.626 -0.5898  1.1022  0.7623
 9635TIP3    H250397   1.423   0.164  21.570 -2.1997 -1.3961 -0.6203
 9636TIP3   OH250398   0.196   2.433  83.184  0.2124  0.4527  0.1362
 9636TIP3    H150399   0.130   2.366  83.202  2.2883 -0.9187  3.5627
 9636TIP3    H250400   0.231   2.410  83.098 -1.4460 -0.7548 -0.2613
 9637TIP3   OH250401   2.239   1.538  35.210  0.1422 -0.2234 -0.2293
 9637TIP3    H150402   2.238   1.584  35.126  1.5127  0.1099 -0.0723
 9637TIP3    H250403   2.188   1.458  35.193 -2.5761  1.4152 -0.4121
 9638TIP3   OH250404   2.369   0.388  81.139 -0.1435 -0.0688  0.1516
 9638TIP3    H150405   2.422   0.416  81.063 -0.7133 -0.5946 -0.4429
 9638TIP3    H250406   2.345   0.470  81.182  0.6556  0.2103  0.0859
 9639TIP3   OH250407   2.261   2.475  80.643  0.5305  0.9361 -0.5178
 9639TIP3    H150408   2.218   2.424  80.711 -0.3283  0.4324 -1.4193
 9639TIP3    H250409   2.306   2.410  80.589 -1.6988  0.9009 -2.4836
 9640TIP3   OH250410   0.990   0.865 110.309  0.0845 -0.4335 -0.4048
 9640TIP3    H150411   1.080   0.896 110.305  0.5678 -1.8513 -1.1221
 9640TIP3    H250412   0.963   0.880 110.400  1.9216 -2.2653  0.5169
 9641TIP3   OH250413   1.898   2.656  18.481  0.0127  0.3866 -0.4192
 9641TIP3    H150414   1.930   2.708  18.555 -1.8966 -0.0454  0.7843
 9641TIP3    H250415   1.803   2.654  18.493 -0.1391 -1.7371 -1.5312
 9642TIP3   OH250416   0.942   2.406   4.673 -0.4205  0.2058 -0.0663
 9642TIP3    H150417   1.035   2.430   4.684  0.1053 -0.7067 -2.0183
 9642TIP3    H250418   0.896   2.490   4.675  0.4039  0.6555  1.2161
 9643TIP3   OH250419   1.690   1.589  95.547  0.0279  0.1914  0.0067
 9643TIP3    H150420   1.710   1.653  95.615  1.3195  0.3089 -0.4539
 9643TIP3    H250421   1.657   1.641  95.473 -0.8475  0.1201  0.3397
 9644TIP3   OH250422   2.546   0.076  84.895 -0.6707  0.5653 -0.1988
 9644TIP3    H150423   2.545  -0.019  84.887  2.2012  0.4128  0.2377
 9644TIP3    H250424   2.521   0.108  84.809 -0.4759 -0.5855 -0.7081
 9645TIP3   OH250425   2.593   0.741   0.417 -0.4085 -0.2060 -0.2397
 9645TIP3    H150426   2.649   0.674   0.379 -1.4977 -1.1355 -0.2744
 9645TIP3    H250427   2.541   0.694   0.483 -0.5547  0.7934  0.3789
 9646TIP3   OH250428   2.465   0.097   5.094  0.4587  0.0353  0.2836
 9646TIP3    H150429   2.377   0.088   5.131 -0.2264  0.1743 -1.2492
 9646TIP3    H250430   2.480   0.192   5.092  0.0717  0.0814 -0.7218
 9647TIP3   OH250431   0.202   0.306  33.863 -0.3898  0.2367  0.0431
 9647TIP3    H150432   0.235   0.218  33.842 -0.6365  0.0823  0.2920
 9647TIP3    H250433   0.111   0.292  33.887 -0.6358  0.6618 -0.6369
 9648TIP3   OH250434   1.009   0.133 107.280 -0.0687  0.3179  0.3019
 9648TIP3    H150435   1.095   0.102 107.307 -0.4090 -1.0691 -0.1390
 9648TIP3    H250436   0.963   0.150 107.363  0.8397  1.7761  0.5370
 9649TIP3   OH250437   2.659   0.604  47.968 -0.4007  0.4544 -0.2518
 9649TIP3    H150438   2.735   0.593  47.911  2.1692 -0.2981  2.9647
 9649TIP3    H250439   2.660   0.697  47.992 -2.6130  1.2229 -2.6363
 9650TIP3   OH250440   0.675   0.562   4.038  0.1050 -0.6356  0.2812
 9650TIP3    H150441   0.737   0.565   3.966 -0.7757  0.4210 -0.4576
 9650TIP3    H250442   0.591   0.542   3.997 -0.2920 -0.7434  1.1107
 9651TIP3   OH250443   1.073   2.487  76.134  0.7457  0.7011 -0.0616
 9651TIP3    H150444   1.108   2.403  76.164 -1.2985 -0.2547 -0.2115
 9651TIP3    H250445   1.020   2.519  76.206 -2.2638 -0.4538 -1.6187
 9652TIP3   OH250446   0.249   0.727  16.616  0.0941 -0.2722  0.2172
 9652TIP3    H150447   0.307   0.764  16.683  1.3864 -1.6308 -0.1175
 9652TIP3    H250448   0.281   0.764  16.534  1.1838 -1.8088 -0.0827
 9653TIP3   OH250449   2.045   1.329  11.806 -0.1814  0.4132 -0.5050
 9653TIP3    H150450   2.096   1.386  11.863  0.5150 -0.7352  0.0734
 9653TIP3    H250451   2.110   1.275  11.762 -0.8266 -0.1373 -0.8058
 9654TIP3   OH250452   1.608   1.159  87.778 -0.1730 -0.0519 -0.0201
 9654TIP3    H150453   1.646   1.231  87.728 -0.1253 -0.6493 -0.8755
 9654TIP3    H250454   1.520   1.148  87.742  0.0103 -0.7586 -0.2676
 9655TIP3   OH250455   0.214   1.896  17.103  0.2870 -0.0039 -0.2108
 9655TIP3    H150456   0.135   1.948  17.112  0.5103  0.1934  0.6836
 9655TIP3    H250457   0.211   1.834  17.176  1.6322  0.9183  0.6714
 9656TIP3   OH250458   1.902   2.024 104.510 -0.2245 -0.6320 -0.1893
 9656TIP3    H150459   1.953   2.099 104.540 -0.0868 -0.1145 -1.6406
 9656TIP3    H250460   1.964   1.951 104.512 -0.2184 -0.6120  0.7395
 9657TIP3   OH250461   2.363   2.273   7.561 -0.4586  0.2902 -0.4898
 9657TIP3    H150462   2.271   2.290   7.539 -0.7365 -0.2115  0.2337
 9657TIP3    H250463   2.375   2.316   7.645  0.3209  1.3707 -1.1221
 9658TIP3   OH250464   0.484   1.902  85.583  0.1901 -0.0284 -0.2527
 9658TIP3    H150465   0.391   1.915  85.565  0.3557  2.3047  0.3006
 9658TIP3    H250466   0.519   1.866  85.502 -0.4910  2.8883 -2.0054
 9659TIP3   OH250467   1.156   2.468  24.337  0.3330 -0.0125  0.3828
 9659TIP3    H150468   1.097   2.497  24.268 -0.0122 -0.2425  0.5798
 9659TIP3    H250469   1.220   2.539  24.346  2.0842 -1.1219 -2.0969
 9660TIP3   OH250470   0.001   0.411  22.538 -0.0233 -0.2908  0.5730
 9660TIP3    H150471  -0.053   0.372  22.470 -0.7944 -1.0345  1.5898
 9660TIP3    H250472   0.047   0.483  22.494 -2.7582  1.1822 -0.0788
 9661TIP3   OH250473   2.055   0.636  74.023 -0.3496  0.0640  0.5944
 9661TIP3    H150474   2.146   0.664  74.039 -0.9234  1.2215  2.0666
 9661TIP3    H250475   2.008   0.717  74.008 -0.9429 -0.6165 -1.5279
 9662TIP3   OH250476   1.302   2.494  94.650  0.5964  0.5941  0.9919
 9662TIP3    H150477   1.389   2.515  94.686  1.2450  0.1061 -0.2153
 9662TIP3    H250478   1.313   2.406  94.614 -0.9924 -0.3206  2.6102
 9663TIP3   OH250479   0.796   2.358  17.654  0.7616 -0.3236  0.2269
 9663TIP3    H150480   0.731   2.312  17.600  1.6219 -0.8256 -0.4086
 9663TIP3    H250481   0.837   2.420  17.594  0.7267  0.1497  0.6852
 9664TIP3   OH250482   0.350   2.656  91.665  0.2199 -0.1201 -0.2361
 9664TIP3    H150483   0.421   2.714  91.693 -0.9109  1.3496 -0.3048
 9664TIP3    H250484   0.331   2.603  91.742 -0.2850  1.2479  0.6302
 9665TIP3   OH250485   2.525   1.673  75.997  0.3592 -0.1935  0.8444
 9665TIP3    H150486   2.570   1.589  75.985  2.2600  0.5872  2.0029
 9665TIP3    H250487   2.590   1.738  75.971 -1.6659  0.9523 -1.7283
 9666TIP3   OH250488   1.669   2.336  77.572  0.0226 -0.4338  0.6071
 9666TIP3    H150489   1.676   2.397  77.499 -0.8866  0.0836  0.9380
 9666TIP3    H250490   1.758   2.301  77.582  0.8055  1.5405  1.0224
 9667TIP3   OH250491   0.565   1.185  32.348 -0.2739 -0.4704  0.3427
 9667TIP3    H150492   0.566   1.143  32.262  1.4333  0.1216  0.0350
 9667TIP3    H250493   0.655   1.212  32.362 -1.0791  2.1477  0.9819
 9668TIP3   OH250494   0.804   1.679  19.783 -0.2609  0.1704 -0.4994
 9668TIP3    H150495   0.872   1.640  19.727  0.3788  0.3346  0.1407
 9668TIP3    H250496   0.808   1.772  19.764 -0.2096  0.1968 -0.3615
 9669TIP3   OH250497   0.275   2.524  83.869  0.0156  0.4402  0.3352
 9669TIP3    H150498   0.189   2.548  83.834  1.0841  4.1633 -0.1335
 9669TIP3    H250499   0.292   2.588  83.938  2.4501 -0.1462  0.3754
 9670TIP3   OH250500   1.506   1.848  23.327 -0.6256 -0.5734 -0.4399
 9670TIP3    H150501   1.524   1.862  23.234 -0.4486 -0.8909 -0.4552
 9670TIP3    H250502   1.417   1.815  23.329 -0.5887 -0.6767 -0.5054
 9671TIP3   OH250503   2.352   0.056  16.621 -0.0994  0.2312 -0.5079
 9671TIP3    H150504   2.389   0.120  16.682  0.4654  0.4425 -1.0547
 9671TIP3    H250505   2.428   0.008  16.588 -0.4416 -0.1838 -0.7048
 9672TIP3   OH250506   0.591   0.355  17.364  0.1927  0.1245  0.3413
 9672TIP3    H150507   0.682   0.333  17.345 -0.4232 -1.3082 -1.2830
 9672TIP3    H250508   0.548   0.270  17.373 -1.3922  0.6959 -1.2629
 9673TIP3   OH250509   1.796   1.948  34.550  0.1012  0.5400  0.1116
 9673TIP3    H150510   1.801   1.876  34.614  0.7748  0.0942 -0.4309
 9673TIP3    H250511   1.884   1.954  34.514 -0.4986  0.1441 -1.4757
 9674TIP3   OH250512   2.579   1.219  82.843 -0.2305 -0.0752  0.1541
 9674TIP3    H150513   2.516   1.202  82.913 -0.5777  0.1676 -0.0929
 9674TIP3    H250514   2.605   1.133  82.812 -0.0851 -0.1846  0.5703
 9675TIP3   OH250515   2.640   2.585   8.357  0.3963  0.2870  0.3825
 9675TIP3    H150516   2.705   2.553   8.419  0.4955 -0.8136 -0.2620
 9675TIP3    H250517   2.657   2.679   8.351  2.3372 -0.0598 -0.2146
 9676TIP3   OH250518   1.524   0.741  10.839 -0.2470  0.0238  0.0672
 9676TIP3    H150519   1.525   0.836  10.823  2.8221 -0.0256 -0.5515
 9676TIP3    H250520   1.582   0.729  10.914  0.1638 -1.4457 -0.4558
 9677TIP3   OH250521   1.557   0.567  16.621 -0.2831  0.0787  0.4947
 9677TIP3    H150522   1.575   0.474  16.631  1.3999  0.2315 -0.6288
 9677TIP3    H250523   1.480   0.583  16.675 -1.8901 -2.3618 -0.9072
 9678TIP3   OH250524   0.919   1.761 103.346  0.3545 -0.1112  0.0964
 9678TIP3    H150525   0.973   1.712 103.408  1.9830  0.4486 -0.8019
 9678TIP3    H250526   0.846   1.703 103.325 -0.1967 -0.3413  2.4460
 9679TIP3   OH250527   0.991   1.377  30.602  0.0048  0.5629  0.1565
 9679TIP3    H150528   0.919   1.439  30.597  0.7058  1.4293  0.5066
 9679TIP3    H250529   1.068   1.428  30.575  0.5176 -0.2914 -0.0372
 9680TIP3   OH250530   2.327   0.757  97.758  0.2479  0.3299 -0.1152
 9680TIP3    H150531   2.294   0.809  97.832  0.1648  0.5243 -0.2861
 9680TIP3    H250532   2.273   0.678  97.758  0.6153  0.0747  0.3630
 9681TIP3   OH250533   0.248   0.219  10.285 -0.0184  0.2757 -1.0708
 9681TIP3    H150534   0.311   0.155  10.251  0.4507  0.2904 -0.2546
 9681TIP3    H250535   0.292   0.258  10.361 -1.6753 -0.9482  0.6023
 9682TIP3   OH250536   0.576   1.931  82.273  0.7425  0.2567  0.4017
 9682TIP3    H150537   0.619   1.960  82.353 -1.8590  0.7058  1.7409
 9682TIP3    H250538   0.530   2.009  82.240  1.1346 -0.1127 -1.1047
 9683TIP3   OH250539   2.504   2.252  20.054  0.1676  0.1639  0.0554
 9683TIP3    H150540   2.534   2.240  19.964  0.0856  0.6035 -0.0339
 9683TIP3    H250541   2.571   2.306  20.095  0.0224  0.2732  0.1522
 9684TIP3   OH250542   0.984   0.248  35.424  0.0206 -0.1921 -0.4529
 9684TIP3    H150543   1.033   0.328  35.405  1.6723 -0.7315  1.3249
 9684TIP3    H250544   1.050   0.180  35.430 -1.1595 -1.3365  0.0861
 9685TIP3   OH250545   2.310   1.162  76.691 -0.2600  0.3576 -0.1047
 9685TIP3    H150546   2.304   1.176  76.785 -0.9048 -0.1725 -0.0597
 9685TIP3    H250547   2.235   1.107  76.670  0.2466 -0.0690 -0.8209
 9686TIP3   OH250548   2.602   1.299  87.717 -0.2939  0.1408  0.1582
 9686TIP3    H150549   2.584   1.338  87.802  0.0184 -0.0874  0.3279
 9686TIP3    H250550   2.610   1.374  87.658  0.0972  0.3315  0.4455
 9687TIP3   OH250551   1.277   1.367 110.649 -0.0373  0.4541 -0.4498
 9687TIP3    H150552   1.190   1.371 110.610 -0.2282  1.4758  0.0341
 9687TIP3    H250553   1.289   1.453 110.689  1.4806  0.5707 -1.1075
 9688TIP3   OH250554   0.378   2.675  68.473  0.2534 -0.2663  0.1082
 9688TIP3    H150555   0.378   2.582  68.493 -0.4796 -0.4992 -0.9295
 9688TIP3    H250556   0.431   2.684  68.394 -1.9524 -0.2152 -1.4443
 9689TIP3   OH250557   1.495   0.930  79.155  0.1761 -0.3435 -0.2228
 9689TIP3    H150558   1.477   0.993  79.225 -0.1293  0.0245 -0.6238
 9689TIP3    H250559   1.433   0.954  79.086  2.4716  1.2961 -1.8476
 9690TIP3   OH250560   0.218   1.365  82.690  0.1765 -0.0349  0.0514
 9690TIP3    H150561   0.186   1.276  82.672  0.7289  0.0632 -1.5516
 9690TIP3    H250562   0.209   1.411  82.607 -0.0608  1.4183  0.8568
 9691TIP3   OH250563   2.103   0.065  42.081 -0.8320 -0.0852  0.0304
 9691TIP3    H150564   2.067   0.011  42.152  0.9900 -0.6950  0.5319
 9691TIP3    H250565   2.172   0.012  42.043  0.0430  1.3205 -0.4232
 9692TIP3   OH250566   1.511   0.080  78.691 -0.4708  0.2279  0.0233
 9692TIP3    H150567   1.421   0.094  78.719 -0.3121 -0.0871  0.7085
 9692TIP3    H250568   1.539   0.001  78.738  0.4594  0.8455  0.5384
 9693TIP3   OH250569   0.819   0.698 103.024  0.3739  0.1467  0.3760
 9693TIP3    H150570   0.810   0.617 103.075  0.7732 -0.1764 -0.0585
 9693TIP3    H250571   0.737   0.745 103.040 -0.7380 -1.2381 -0.8937
 9694TIP3   OH250572   0.173   2.106  96.676 -0.2600  0.3145 -0.1769
 9694TIP3    H150573   0.254   2.073  96.716  0.1556 -0.5410 -1.6493
 9694TIP3    H250574   0.193   2.198  96.656 -0.2570  0.5801  0.9256
 9695TIP3   OH250575   0.771   1.605  15.359  0.4604 -0.2744 -0.4400
 9695TIP3    H150576   0.685   1.599  15.402  1.1825 -1.8518  0.9150
 9695TIP3    H250577   0.826   1.544  15.408  2.6473  1.4151 -0.6210
 9696TIP3   OH250578   1.240   1.629  83.053 -0.3586  0.2784 -0.5908
 9696TIP3    H150579   1.225   1.708  83.105  0.7537  0.0827  0.0501
 9696TIP3    H250580   1.173   1.568  83.083 -1.2064  0.9424 -1.0592
 9697TIP3   OH250581   2.147   1.504  90.003  0.4436 -0.2636  0.0740
 9697TIP3    H150582   2.058   1.481  89.974  0.3930 -1.3657  1.0311
 9697TIP3    H250583   2.158   1.595  89.977 -0.5251 -0.4642 -1.1255
 9698TIP3   OH250584   2.324   2.533  99.783  0.7121  0.3106 -0.2376
 9698TIP3    H150585   2.259   2.467  99.761 -0.4149  0.2836  2.7570
 9698TIP3    H250586   2.387   2.488  99.839  2.2681  0.8468 -1.4624
 9699TIP3   OH250587   1.218   0.944  25.508 -0.2933 -0.4305  0.1548
 9699TIP3    H150588   1.283   0.978  25.446 -0.9768  0.1011 -0.2845
 9699TIP3    H250589   1.268   0.887  25.567  0.2265 -1.7437 -1.4668
 9700TIP3   OH250590   2.087   2.375  19.596  0.0106 -0.4471  0.0808
 9700TIP3    H150591   2.029   2.327  19.655  0.0511  0.3961  0.8289
 9700TIP3    H250592   2.174   2.340  19.614 -0.2636 -1.9159 -1.2456
 9701TIP3   OH250593   0.250   2.504  82.387  0.0938  0.5457 -0.3889
 9701TIP3    H150594   0.274   2.559  82.313 -0.8122  2.8613  0.9181
 9701TIP3    H250595   0.311   2.528  82.456  0.5785 -1.1814 -0.1685
 9702TIP3   OH250596   1.611   2.515   8.451  0.2297 -0.1464  0.1480
 9702TIP3    H150597   1.571   2.486   8.533  1.9906  0.2529  1.2014
 9702TIP3    H250598   1.698   2.474   8.452  0.9799  1.3616 -0.5958
 9703TIP3   OH250599   0.278   1.194 103.322 -0.6209 -0.3282  0.8083
 9703TIP3    H150600   0.344   1.214 103.256 -0.4247  2.2101  1.6575
 9703TIP3    H250601   0.222   1.129 103.280 -0.1410  0.6970 -1.6324
 9704TIP3   OH250602   0.831   1.974 109.474  0.3226 -0.5718 -0.0313
 9704TIP3    H150603   0.747   2.003 109.440  0.3060 -0.3428  0.2010
 9704TIP3    H250604   0.811   1.899 109.530  0.4113 -1.3228 -0.9770
 9705TIP3   OH250605   0.086   0.196  26.144 -0.0649 -0.1016  0.7337
 9705TIP3    H150606   0.117   0.137  26.213  0.4624  2.7521  3.1800
 9705TIP3    H250607   0.146   0.271  26.148 -0.8578  0.7916 -1.9779
 9706TIP3   OH250608   0.922   2.566  91.947 -0.0196  0.4405 -0.3856
 9706TIP3    H150609   0.838   2.528  91.919 -0.1649  0.2734  0.2758
 9706TIP3    H250610   0.988   2.506  91.913 -0.2736 -0.8861  1.3546
 9707TIP3   OH250611   2.574   0.705  92.540 -0.0226 -0.0066  0.1491
 9707TIP3    H150612   2.540   0.619  92.564 -0.3496  0.5042  1.5950
 9707TIP3    H250613   2.580   0.753  92.623  1.3828  0.9349 -0.4632
 9708TIP3   OH250614   2.165   0.134  83.140 -0.5094  0.7683 -0.2503
 9708TIP3    H150615   2.181   0.062  83.201  0.7299  0.4351 -0.9425
 9708TIP3    H250616   2.070   0.133  83.125 -0.6023 -0.2380  0.3202
 9709TIP3   OH250617   1.329   0.002 104.047  0.2450 -0.0538 -0.2912
 9709TIP3    H150618   1.257  -0.058 104.023  0.9905 -1.3416  0.5516
 9709TIP3    H250619   1.315   0.079 103.992 -1.8106 -0.2397 -0.1301
 9710TIP3   OH250620   0.348   0.954  90.993 -0.4160  0.1710 -0.7942
 9710TIP3    H150621   0.398   0.972  90.913 -2.9253 -2.0944 -3.1048
 9710TIP3    H250622   0.406   0.899  91.046  0.5445 -0.1630 -2.1317
 9711TIP3   OH250623   1.145   0.397 110.215 -0.6835 -0.3924  0.3359
 9711TIP3    H150624   1.160   0.487 110.246  0.8778 -0.8913  1.1478
 9711TIP3    H250625   1.092   0.407 110.136 -0.0268  1.2889  0.0707
 9712TIP3   OH250626   2.494   0.346  82.686 -0.6883 -0.1484 -0.3112
 9712TIP3    H150627   2.536   0.409  82.626 -1.3166  0.7318  0.1532
 9712TIP3    H250628   2.567   0.293  82.719  0.1547  1.5631  0.7387
 9713TIP3   OH250629   2.539   0.695  18.899 -0.6072  0.2901  0.2935
 9713TIP3    H150630   2.568   0.657  18.816  0.0847  0.4712  0.4467
 9713TIP3    H250631   2.494   0.776  18.875 -0.9328  0.0385  0.0567
 9714TIP3   OH250632   2.357   2.273   1.524 -0.0204 -0.4232  0.0813
 9714TIP3    H150633   2.397   2.275   1.438 -0.5304  1.0332 -0.1513
 9714TIP3    H250634   2.371   2.361   1.560  0.6162 -1.1401  1.7012
 9715TIP3   OH250635   1.824   0.497   3.304 -0.3072 -0.0185  0.2685
 9715TIP3    H150636   1.882   0.457   3.368 -0.7651  1.0818  1.4072
 9715TIP3    H250637   1.846   0.453   3.221  0.8519 -0.8993  1.0103
 9716TIP3   OH250638   0.469   1.420  73.549  0.4003 -0.6177  0.5500
 9716TIP3    H150639   0.378   1.406  73.521  0.0941 -1.9003  2.0126
 9716TIP3    H250640   0.513   1.454  73.472 -1.6592  1.5818  0.2198
 9717TIP3   OH250641   1.097   1.107  99.114  0.1966 -0.0852  0.0079
 9717TIP3    H150642   1.124   1.173  99.178  0.2794 -1.1316  1.1074
 9717TIP3    H250643   1.133   1.137  99.031  0.6479  0.9840  0.5698
 9718TIP3   OH250644   0.425   0.547  91.526 -0.1982 -0.0270 -0.5011
 9718TIP3    H150645   0.512   0.508  91.524 -0.6733 -1.1961  0.2850
 9718TIP3    H250646   0.394   0.532  91.615 -1.1315  0.5445 -0.7123
 9719TIP3   OH250647   0.802   2.345  27.174  0.8519  0.2729  0.0192
 9719TIP3    H150648   0.804   2.432  27.213 -0.9735  0.6286 -0.5962
 9719TIP3    H250649   0.718   2.309  27.199  1.6684 -1.4320  0.4403
 9720TIP3   OH250650   0.394   1.016  32.515  0.0991 -0.2069 -0.1509
 9720TIP3    H150651   0.372   0.968  32.435 -2.9744  2.7035 -1.2858
 9720TIP3    H250652   0.451   1.086  32.486  0.4383 -0.1826  0.5580
 9721TIP3   OH250653   2.302   0.691  28.996 -0.0601  0.5786  0.1357
 9721TIP3    H150654   2.218   0.737  29.003 -0.4044 -0.1554  1.1422
 9721TIP3    H250655   2.284   0.617  28.938 -0.4943 -0.3309  1.3735
 9722TIP3   OH250656   0.038   1.657  85.960 -0.0267  0.0273 -0.3073
 9722TIP3    H150657  -0.056   1.648  85.974  0.0128  1.6781  1.4710
 9722TIP3    H250658   0.046   1.720  85.889 -0.2582 -0.5106 -0.8128
 9723TIP3   OH250659   0.007   1.425  14.827  0.2410 -0.7581  0.0302
 9723TIP3    H150660  -0.046   1.505  14.830  0.3706 -0.6933  0.9945
 9723TIP3    H250661  -0.025   1.378  14.751  2.1705  1.6025 -2.4568
 9724TIP3   OH250662   2.680   2.103  76.580  0.6376  0.1505 -0.1598
 9724TIP3    H150663   2.628   2.170  76.624  2.2385  0.0042  2.0995
 9724TIP3    H250664   2.713   2.146  76.501  1.2421  1.9267  0.9876
 9725TIP3   OH250665   2.096   0.161  17.376 -0.3128 -0.6904 -0.1110
 9725TIP3    H150666   2.092   0.254  17.353  0.6872 -0.7967 -0.7782
 9725TIP3    H250667   2.117   0.116  17.294 -0.3039 -1.4587  0.2979
 9726TIP3   OH250668   1.386   0.605  73.933 -0.0781 -0.1528  0.3955
 9726TIP3    H150669   1.305   0.557  73.947 -1.4046  1.2607 -1.8674
 9726TIP3    H250670   1.444   0.542  73.889 -1.0093 -0.3796 -0.5576
 9727TIP3   OH250671   0.291   0.603  74.560 -0.1669 -0.2303 -0.2065
 9727TIP3    H150672   0.213   0.568  74.517 -0.5515 -1.3833  1.3521
 9727TIP3    H250673   0.262   0.681  74.605 -0.5679 -0.9558  0.8179
 9728TIP3   OH250674   1.158   1.256  82.635  0.2829 -0.2335 -0.1519
 9728TIP3    H150675   1.201   1.178  82.600  0.3006  0.2957 -1.3453
 9728TIP3    H250676   1.150   1.315  82.560  3.2087  2.2856  1.2816
 9729TIP3   OH250677   1.049   2.545   8.263 -0.3474  0.0722 -0.4213
 9729TIP3    H150678   1.126   2.582   8.221  0.6406 -0.7317  0.6387
 9729TIP3    H250679   1.032   2.601   8.338 -0.4521 -0.0883 -0.3225
 9730TIP3   OH250680   0.239   0.725 103.710 -0.1777  0.2546  0.3310
 9730TIP3    H150681   0.255   0.644 103.662  0.4268  0.9657 -0.7217
 9730TIP3    H250682   0.288   0.716 103.791  0.5071 -0.1283 -0.1241
 9731TIP3   OH250683   2.445   2.073  29.914  0.1937  0.0658 -0.0659
 9731TIP3    H150684   2.469   2.006  29.851  1.6609 -0.0322  0.5628
 9731TIP3    H250685   2.352   2.058  29.932  0.1590 -0.8797 -1.0069
 9732TIP3   OH250686   0.532   1.644   3.129  0.3603 -0.6129  0.0557
 9732TIP3    H150687   0.509   1.735   3.112  2.0757  0.0070  0.8599
 9732TIP3    H250688   0.449   1.602   3.151 -0.2251  1.1763  1.4769
 9733TIP3   OH250689   0.743   1.380  93.032 -0.1167 -0.3606  0.9277
 9733TIP3    H150690   0.748   1.473  93.010 -0.6134 -0.3865  0.6843
 9733TIP3    H250691   0.713   1.378  93.123 -2.5189 -0.2832  0.2211
 9734TIP3   OH250692   0.104   1.175 104.555 -0.5333 -0.5490  0.0695
 9734TIP3    H150693   0.096   1.207 104.644  1.0384 -1.4464  0.5948
 9734TIP3    H250694   0.117   1.253 104.502  0.6708 -0.1122  0.9528
 9735TIP3   OH250695   0.665   1.082  11.732  0.1741  0.3791  0.3718
 9735TIP3    H150696   0.683   1.153  11.794 -1.5000  0.9286  0.2885
 9735TIP3    H250697   0.629   1.011  11.785  0.2952  0.2245  0.2469
 9736TIP3   OH250698   0.363   0.162  11.695 -0.0932  0.0170 -0.0242
 9736TIP3    H150699   0.385   0.075  11.662  0.1432 -0.2554  0.8299
 9736TIP3    H250700   0.438   0.216  11.670 -0.3433  0.0363 -0.7585
 9737TIP3   OH250701   1.261   0.376 100.661 -0.3012  0.7849 -0.0316
 9737TIP3    H150702   1.357   0.383 100.664 -0.1103 -0.7008 -1.5641
 9737TIP3    H250703   1.238   0.397 100.570 -1.3185  0.0454  0.0332
 9738TIP3   OH250704   0.855   1.879  19.183 -0.0016  0.0405 -0.0451
 9738TIP3    H150705   0.897   1.880  19.269  2.7521  0.3529 -1.3001
 9738TIP3    H250706   0.860   1.788  19.155  0.3471  0.1751 -0.4281
 9739TIP3   OH250707   0.163   2.452  43.044 -0.1093  0.0707  0.5990
 9739TIP3    H150708   0.095   2.468  42.979  0.9879  1.7275 -0.1977
 9739TIP3    H250709   0.127   2.488  43.125  0.1859  1.9537 -0.0502
 9740TIP3   OH250710   0.968   0.098   4.074 -0.5086  0.6671  0.1582
 9740TIP3    H150711   1.033   0.153   4.118 -2.0703  2.2315  0.6328
 9740TIP3    H250712   0.895   0.157   4.057 -1.8628 -1.0559 -0.2391
 9741TIP3   OH250713   2.480   0.214  21.115 -0.0596  0.1316  0.0283
 9741TIP3    H150714   2.544   0.233  21.182  0.9416  0.2372 -0.9338
 9741TIP3    H250715   2.413   0.282  21.125 -0.0848 -0.0361  1.0919
 9742TIP3   OH250716   0.100   2.004 110.227  0.7413  0.0114  0.0674
 9742TIP3    H150717   0.160   1.984 110.299 -0.9296 -0.3349  1.4458
 9742TIP3    H250718   0.028   2.051 110.269  0.4437  1.1939 -1.6637
 9743TIP3   OH250719   1.366   1.141  14.517 -0.0065 -0.2467  0.0269
 9743TIP3    H150720   1.433   1.176  14.459  0.3249  1.6233  1.4382
 9743TIP3    H250721   1.335   1.061  14.473  1.2092  0.3130 -1.9731
 9744TIP3   OH250722   0.556   1.409  14.285  0.1141 -0.0296 -0.0771
 9744TIP3    H150723   0.525   1.374  14.368 -0.3362  1.2320  0.3097
 9744TIP3    H250724   0.652   1.401  14.290  0.0277 -1.0679  0.0391
 9745TIP3   OH250725   2.458   0.700  74.553 -0.1957 -0.2062 -0.2575
 9745TIP3    H150726   2.523   0.630  74.559 -0.8902 -0.8050  0.5327
 9745TIP3    H250727   2.394   0.678  74.621 -1.4731  0.1057 -1.3329
 9746TIP3   OH250728   0.507   1.407   9.960  0.7185 -0.3766 -0.3881
 9746TIP3    H150729   0.472   1.330  10.005  0.1586 -0.9179 -1.7106
 9746TIP3    H250730   0.571   1.372   9.898 -0.9334 -0.0129 -2.3898
 9747TIP3   OH250731   0.843   0.374  16.297 -0.0780 -0.1527 -0.2551
 9747TIP3    H150732   0.810   0.310  16.235 -0.2948  0.5903 -0.9184
 9747TIP3    H250733   0.938   0.374  16.285 -0.0052 -0.8602  0.2605
 9748TIP3   OH250734   2.289   1.272  91.520 -0.4462  0.7991 -0.1712
 9748TIP3    H150735   2.236   1.342  91.482  1.4733  1.0434 -2.5975
 9748TIP3    H250736   2.295   1.206  91.451 -1.3636 -1.3963  1.7033
 9749TIP3   OH250737   2.578   2.095  97.196 -0.0081 -0.1650  0.0296
 9749TIP3    H150738   2.497   2.090  97.144 -0.1403 -1.3599  0.3070
 9749TIP3    H250739   2.553   2.059  97.281  1.1877 -2.2355 -0.4085
 9750TIP3   OH250740   1.960   0.570  98.575  0.0126  0.4687 -0.2159
 9750TIP3    H150741   1.959   0.666  98.579 -0.0233  0.4539  0.1940
 9750TIP3    H250742   1.909   0.549  98.497  0.2248  0.7899 -0.4469
 9751TIP3   OH250743   1.544   2.059  88.855 -0.0309 -0.5051  0.1255
 9751TIP3    H150744   1.488   2.003  88.909  0.1169  0.0122  0.8301
 9751TIP3    H250745   1.584   1.999  88.792  0.8740 -1.3910  1.4714
 9752TIP3   OH250746   0.604   1.553 101.166 -0.2060 -0.7165 -0.1307
 9752TIP3    H150747   0.609   1.458 101.180  1.0461 -0.6873 -0.3064
 9752TIP3    H250748   0.642   1.567 101.079  0.5040  0.0316  0.2798
 9753TIP3   OH250749   2.637   2.604  76.924  0.6862 -0.7008 -0.0465
 9753TIP3    H150750   2.590   2.639  76.848 -0.0530 -0.1109  0.6569
 9753TIP3    H250751   2.695   2.676  76.951 -0.8767  0.0827  1.4372
 9754TIP3   OH250752   0.047   1.859   0.534 -0.3246  0.5450  0.2165
 9754TIP3    H150753   0.043   1.812   0.450 -0.3829 -0.5714  0.8244
 9754TIP3    H250754   0.070   1.792   0.598 -2.5658  0.8485  1.4703
 9755TIP3   OH250755   2.502   2.021  12.550  0.0476  0.3444 -0.3891
 9755TIP3    H150756   2.566   2.092  12.545  2.2982 -1.6247 -2.6733
 9755TIP3    H250757   2.517   1.981  12.636  0.2668  1.3238  0.0373
 9756TIP3   OH250758   0.657   1.390  88.628 -0.4267  0.1240 -0.2128
 9756TIP3    H150759   0.575   1.429  88.658 -1.5350 -2.0342 -0.2776
 9756TIP3    H250760   0.659   1.406  88.534  0.4685  2.2611  0.0937
 9757TIP3   OH250761   2.235   1.624  11.751  0.1790 -0.2535  0.3573
 9757TIP3    H150762   2.326   1.613  11.724  0.3754  1.7719 -0.0147
 9757TIP3    H250763   2.218   1.552  11.812  2.5856  0.2895  1.7698
 9758TIP3   OH250764   2.509   2.322  93.201  0.0451  0.2129  0.3353
 9758TIP3    H150765   2.513   2.231  93.170 -1.5119 -0.3941  1.7259
 9758TIP3    H250766   2.416   2.346  93.193  0.2854  1.3802  0.7830
 9759TIP3   OH250767   2.666   2.080 101.291 -0.1385 -0.2322  0.2742
 9759TIP3    H150768   2.715   2.073 101.373 -1.2350  1.0817  1.0820
 9759TIP3    H250769   2.728   2.051 101.224  1.1141 -0.3931  1.4439
 9760TIP3   OH250770   1.994   0.930  11.841  0.1118 -0.3055 -0.2110
 9760TIP3    H150771   1.947   0.966  11.766  0.7501  0.9179 -0.0691
 9760TIP3    H250772   1.977   0.836  11.838  0.6447 -0.3915 -2.2665
 9761TIP3   OH250773   2.071   2.172  98.553  0.4607  0.2659  0.1875
 9761TIP3    H150774   1.988   2.162  98.508  0.4960 -1.0820  0.3963
 9761TIP3    H250775   2.104   2.258  98.524 -0.8087  0.6459 -0.1714
 9762TIP3   OH250776   1.088   2.132 101.162 -0.4092 -0.2377 -0.4391
 9762TIP3    H150777   1.178   2.141 101.194  0.1436 -1.7978 -1.4514
 9762TIP3    H250778   1.089   2.171 101.075 -0.6829 -0.3584 -0.4988
 9763TIP3   OH250779   1.461   0.557   5.583 -0.0783  0.0109  0.6986
 9763TIP3    H150780   1.397   0.488   5.566 -1.7562  1.6074  0.1632
 9763TIP3    H250781   1.442   0.587   5.672  0.8408 -0.4106  1.0441
 9764TIP3   OH250782   2.064   1.212  14.253  0.1153  0.4252 -0.2091
 9764TIP3    H150783   2.098   1.193  14.340 -1.0730 -0.6422  0.0445
 9764TIP3    H250784   2.099   1.142  14.198  1.5331  1.5378 -0.8105
 9765TIP3   OH250785   0.777   0.575   0.683 -0.0307  0.1927  0.4123
 9765TIP3    H150786   0.701   0.598   0.736  0.4402  2.8365  0.0659
 9765TIP3    H250787   0.851   0.579   0.744  0.0391 -1.1117  0.4576
 9766TIP3   OH250788   2.011   2.645  32.786 -0.4152 -0.5223  0.0935
 9766TIP3    H150789   2.021   2.669  32.878  1.6333  0.4204 -0.3102
 9766TIP3    H250790   2.079   2.581  32.770 -1.8670 -2.0195 -0.3999
 9767TIP3   OH250791   1.746   2.628  13.517 -0.6429  0.2398 -0.8083
 9767TIP3    H150792   1.747   2.535  13.539 -0.6822 -0.0083 -1.8011
 9767TIP3    H250793   1.673   2.638  13.457  0.3590  0.5851 -2.0244
 9768TIP3   OH250794   0.029   1.766  25.068 -0.0765 -0.6392  0.0443
 9768TIP3    H150795  -0.044   1.759  25.006 -1.1001  1.0041  0.9764
 9768TIP3    H250796  -0.011   1.749  25.153  0.6630  0.0115  0.5358
 9769TIP3   OH250797   0.116   2.145  73.528  0.0169  0.7527 -0.6613
 9769TIP3    H150798   0.067   2.221  73.498  1.1456  1.9194  0.3397
 9769TIP3    H250799   0.095   2.137  73.621 -0.7236 -0.6797 -0.9204
 9770TIP3   OH250800   2.527   0.140  20.581 -0.3056  0.2410  0.2681
 9770TIP3    H150801   2.576   0.058  20.570  0.0668  0.6144 -1.0099
 9770TIP3    H250802   2.517   0.150  20.676  0.9900 -0.4919  0.4969
 9771TIP3   OH250803   1.118   1.267  81.249 -0.0873  0.3156 -0.0356
 9771TIP3    H150804   1.127   1.176  81.221  1.0818  0.5182 -0.4017
 9771TIP3    H250805   1.030   1.273  81.285  0.7311 -1.6953  2.6720
 9772TIP3   OH250806   0.058   1.939  94.350 -0.0046 -0.1093 -0.3217
 9772TIP3    H150807   0.089   1.992  94.424  0.2229 -0.7139  0.0192
 9772TIP3    H250808   0.124   1.871  94.340 -1.5180 -1.8300  0.8390
 9773TIP3   OH250809   1.432   0.878  16.543  0.3682  0.3115  0.4199
 9773TIP3    H150810   1.372   0.903  16.613 -0.8502 -0.8012 -0.1901
 9773TIP3    H250811   1.388   0.807  16.497  1.7468  0.0896 -0.6430
 9774TIP3   OH250812   2.277   2.208  85.122 -0.4307  0.1732 -0.2457
 9774TIP3    H150813   2.278   2.269  85.049  1.2934  1.0039  0.3992
 9774TIP3    H250814   2.294   2.262  85.199  0.9507 -1.0468  0.3688
 9775TIP3   OH250815   1.815   1.518  90.105  0.3155  0.1414 -0.7859
 9775TIP3    H150816   1.790   1.488  90.017 -1.7214 -0.6021 -0.0040
 9775TIP3    H250817   1.779   1.452  90.164 -0.5552  1.9194  0.7606
 9776TIP3   OH250818   1.866   0.210  89.370  0.5335 -0.0994  0.4931
 9776TIP3    H150819   1.838   0.198  89.279  1.0509  0.2897  0.2724
 9776TIP3    H250820   1.887   0.122  89.400 -0.2298 -0.3079  0.4251
 9777TIP3   OH250821   2.682   0.010  75.988 -0.0528 -0.0981  0.3409
 9777TIP3    H150822   2.670  -0.059  75.923 -0.8777  0.5488 -0.2127
 9777TIP3    H250823   2.602   0.008  76.040  0.3206 -0.1718  0.9185
 9778TIP3   OH250824   2.344   1.451  16.951 -0.1405  0.0602 -0.0679
 9778TIP3    H150825   2.306   1.500  17.024 -1.5209 -0.5536 -0.3408
 9778TIP3    H250826   2.423   1.412  16.987 -0.1080  0.8305  0.7238
 9779TIP3   OH250827   2.082   1.437 104.822 -0.3088  0.4694  0.1364
 9779TIP3    H150828   1.988   1.448 104.813 -0.1594  1.1707 -0.6964
 9779TIP3    H250829   2.119   1.478 104.743  0.6368 -0.7032 -0.0587
 9780TIP3   OH250830   0.979   1.735  89.659  0.1421 -0.0409 -0.0834
 9780TIP3    H150831   0.905   1.675  89.669  0.6519 -0.8373 -0.9617
 9780TIP3    H250832   0.941   1.823  89.668 -0.5376 -0.4681  1.7225
 9781TIP3   OH250833   0.753   2.179 105.262  0.1785  0.7304 -0.4263
 9781TIP3    H150834   0.720   2.126 105.334  0.6301  0.8449 -0.1325
 9781TIP3    H250835   0.676   2.200 105.210 -0.3596  1.6247  0.6712
 9782TIP3   OH250836   0.946   2.545  17.534  0.0660 -0.1261  0.6154
 9782TIP3    H150837   0.942   2.490  17.456  0.5214  0.7364 -0.0458
 9782TIP3    H250838   1.008   2.614  17.510 -0.0243  0.3199  1.6382
 9783TIP3   OH250839   1.100   1.710  73.754 -0.6741 -0.2918 -0.4320
 9783TIP3    H150840   1.095   1.799  73.719 -0.8295 -0.4481 -0.8052
 9783TIP3    H250841   1.099   1.654  73.677  0.6772 -0.5720 -0.2530
 9784TIP3   OH250842   0.328   0.697   1.962  0.5602 -1.0363  0.5404
 9784TIP3    H150843   0.409   0.693   1.912  0.6022 -2.3898  0.6778
 9784TIP3    H250844   0.354   0.728   2.049  0.4899  1.3029 -0.1983
 9785TIP3   OH250845   0.021   1.961 111.027  0.3769 -0.0955 -0.1808
 9785TIP3    H150846  -0.017   1.905 111.095 -1.0232 -1.5674 -2.0337
 9785TIP3    H250847  -0.053   2.015 110.997  1.2301  1.3030  0.1880
 9786TIP3   OH250848   1.606   2.360  22.941 -0.4590 -0.1688  0.0977
 9786TIP3    H150849   1.513   2.365  22.960 -0.2953  2.7732  0.5871
 9786TIP3    H250850   1.612   2.371  22.846 -0.5701  1.8319  0.2872
 9787TIP3   OH250851   0.587   1.213  77.609  0.5705  0.1381 -0.4397
 9787TIP3    H150852   0.671   1.242  77.643  0.4043 -0.3776  0.4318
 9787TIP3    H250853   0.537   1.293  77.593  0.2925  0.3901  1.4674
 9788TIP3   OH250854   1.440   1.218  26.700  0.4112  0.1718  0.2287
 9788TIP3    H150855   1.448   1.264  26.784  0.3057 -0.3271  0.5115
 9788TIP3    H250856   1.530   1.215  26.667  0.6800 -0.8999  1.0063
 9789TIP3   OH250857   2.606   0.966  38.795 -0.6114  0.8380  0.2061
 9789TIP3    H150858   2.639   1.041  38.845 -1.2452  1.3297 -0.0993
 9789TIP3    H250859   2.573   0.906  38.861 -0.0442  0.7930  0.4549
 9790TIP3   OH250860   0.012   1.437  23.381 -0.1922 -0.2388  0.1231
 9790TIP3    H150861   0.003   1.532  23.385  0.6351 -0.1780  1.7513
 9790TIP3    H250862  -0.015   1.414  23.293  0.0804  1.5634 -0.4837
 9791TIP3   OH250863   1.369   1.542  26.422 -0.1012 -0.0612 -0.0701
 9791TIP3    H150864   1.409   1.629  26.418 -1.5507  0.6281 -0.3416
 9791TIP3    H250865   1.368   1.512  26.331  1.6330 -0.9944  0.1711
 9792TIP3   OH250866   0.745   1.538  36.825  0.1794 -0.7117  0.8292
 9792TIP3    H150867   0.840   1.527  36.833  0.2978 -0.7165 -0.4712
 9792TIP3    H250868   0.709   1.450  36.839  0.7100 -1.7593 -3.1618
 9793TIP3   OH250869   2.629   0.703  47.224  0.0752 -1.0263 -0.6249
 9793TIP3    H150870   2.605   0.795  47.221  0.7011 -0.7608  1.1872
 9793TIP3    H250871   2.557   0.657  47.181 -1.3886  0.1353  0.4937
 9794TIP3   OH250872   1.022   0.344 111.665  0.4501 -0.2140  0.0381
 9794TIP3    H150873   1.053   0.413 111.607  2.6407 -0.0234  1.3346
 9794TIP3    H250874   0.997   0.273 111.607 -0.1751  0.9851 -1.2351
 9795TIP3   OH250875   0.911   0.645  81.521  0.8604 -0.0993  0.2559
 9795TIP3    H150876   0.825   0.686  81.515  0.0329 -1.9134 -1.6390
 9795TIP3    H250877   0.894   0.557  81.554  1.6495 -1.2007 -2.0626
 9796TIP3   OH250878   1.609   1.954  34.897  0.2521  0.3372  0.5671
 9796TIP3    H150879   1.618   1.990  34.985 -0.2008  1.3395  0.2187
 9796TIP3    H250880   1.616   2.030  34.839 -1.2966 -0.0389 -0.1627
 9797TIP3   OH250881   2.193   1.847  90.612  0.5629  0.6027 -0.7391
 9797TIP3    H150882   2.192   1.751  90.605  1.5688  0.4256  0.9415
 9797TIP3    H250883   2.102   1.870  90.633  0.6406 -0.1802  0.5863
 9798TIP3   OH250884   1.810   0.507  98.331  0.4844  0.4537 -0.3825
 9798TIP3    H150885   1.863   0.428  98.320  1.9489  1.5160 -1.4321
 9798TIP3    H250886   1.780   0.528  98.243 -0.4288  0.7403 -0.0201
 9799TIP3   OH250887   2.679   2.632  30.817 -0.0934 -0.4117  0.1527
 9799TIP3    H150888   2.618   2.602  30.884 -1.8436 -0.0087 -1.1700
 9799TIP3    H250889   2.694   2.724  30.837  1.4375 -0.8778  1.4068
 9800TIP3   OH250890   2.333   1.427  94.581  0.5115 -0.0998  0.7954
 9800TIP3    H150891   2.279   1.348  94.579  0.6442 -0.1785  0.1228
 9800TIP3    H250892   2.422   1.395  94.573  0.5355  0.1424  0.0056
 9801TIP3   OH250893   0.283   0.981  99.016  0.1459  0.0029  0.0667
 9801TIP3    H150894   0.344   1.054  99.020 -0.7120  0.6956  1.9653
 9801TIP3    H250895   0.334   0.905  99.042  0.5592  0.3172  0.1857
 9802TIP3   OH250896   2.298   0.443  11.860 -0.4936  0.1258  0.5828
 9802TIP3    H150897   2.357   0.486  11.922  0.0274 -0.2808  0.3767
 9802TIP3    H250898   2.306   0.350  11.879 -0.1121 -0.0230 -0.2721
 9803TIP3   OH250899   1.205   0.048  14.108 -0.0776  0.6129  0.6570
 9803TIP3    H150900   1.118   0.022  14.077  0.2127  1.1975 -0.7155
 9803TIP3    H250901   1.212   0.009  14.195 -1.1299 -0.6982  0.1913
 9804TIP3   OH250902   2.602   0.166  86.207 -0.4361  0.4493  0.0949
 9804TIP3    H150903   2.587   0.184  86.300 -1.2087  0.0519  0.0619
 9804TIP3    H250904   2.551   0.087  86.190  0.8198 -0.2862 -0.3516
 9805TIP3   OH250905   0.380   2.474  26.102  0.0319 -0.4841  0.2897
 9805TIP3    H150906   0.454   2.415  26.087 -1.3391 -2.4754  0.9344
 9805TIP3    H250907   0.372   2.524  26.021  1.3149 -1.0907 -0.2413
 9806TIP3   OH250908   1.642   2.277   3.406 -0.7058  0.0430 -0.2599
 9806TIP3    H150909   1.613   2.275   3.497 -0.8920  1.7314 -0.2630
 9806TIP3    H250910   1.611   2.361   3.372  3.0240  1.4239 -0.6482
 9807TIP3   OH250911   1.168   2.451  79.450 -0.4120  0.2389 -0.5128
 9807TIP3    H150912   1.191   2.452  79.357  0.0414 -1.2509 -0.4408
 9807TIP3    H250913   1.252   2.444  79.496 -0.6077  1.3693  0.0341
 9808TIP3   OH250914   0.867   0.571  30.812 -0.0237  0.2396  0.2184
 9808TIP3    H150915   0.905   0.652  30.778 -1.2364  0.4406 -0.7654
 9808TIP3    H250916   0.773   0.581  30.798 -0.3199 -0.8283  1.2310
 9809TIP3   OH250917   0.493   0.922  64.202  0.0850 -0.2789 -0.0382
 9809TIP3    H150918   0.564   0.889  64.257  2.5997  0.7619 -2.4149
 9809TIP3    H250919   0.422   0.860  64.216  1.2751 -1.2272  2.7148
 9810TIP3   OH250920   2.443   1.629  90.612  0.2328  0.4232  0.0327
 9810TIP3    H150921   2.349   1.618  90.607  0.1124  1.4769 -0.2113
 9810TIP3    H250922   2.477   1.541  90.629 -0.6959 -0.1876 -1.1628
 9811TIP3   OH250923   1.593   0.182  29.819 -0.1789 -0.7354  0.3975
 9811TIP3    H150924   1.642   0.236  29.881  0.5657 -1.4173  0.4254
 9811TIP3    H250925   1.562   0.243  29.753  1.8624 -0.4337 -0.3469
 9812TIP3   OH250926   2.232   1.529  25.464 -0.6248  0.1915 -0.0656
 9812TIP3    H150927   2.293   1.563  25.398  2.4827 -0.4943  2.2082
 9812TIP3    H250928   2.179   1.465  25.417 -0.4373  1.6260 -2.4223
 9813TIP3   OH250929   0.846   1.458   7.247 -0.0980 -0.0560  0.5437
 9813TIP3    H150930   0.761   1.494   7.275 -0.3972 -0.4102  0.0826
 9813TIP3    H250931   0.832   1.428   7.158  0.8388  0.9810  0.0185
 9814TIP3   OH250932   2.262   1.305  73.641 -0.6570 -0.3727 -0.0041
 9814TIP3    H150933   2.195   1.336  73.580 -1.7518 -3.3268 -0.4866
 9814TIP3    H250934   2.320   1.251  73.587  1.8136  1.5740  0.5425
 9815TIP3   OH250935   1.793   0.264   0.430  0.0224  0.4594 -0.0679
 9815TIP3    H150936   1.812   0.210   0.507  1.2982 -1.1435 -1.4320
 9815TIP3    H250937   1.865   0.327   0.427  0.5837 -0.2006 -0.5636
 9816TIP3   OH250938   1.991   1.948  73.141  0.3578 -0.9831 -0.1275
 9816TIP3    H150939   1.959   1.858  73.137  1.3472 -1.3749  0.4413
 9816TIP3    H250940   2.019   1.960  73.232 -1.9265  0.6814  0.4346
 9817TIP3   OH250941   0.280   2.423   9.315  0.0059 -0.1980 -0.3263
 9817TIP3    H150942   0.262   2.380   9.232  0.9190 -0.8258 -0.2167
 9817TIP3    H250943   0.224   2.378   9.378  0.6427 -0.9766 -0.2910
 9818TIP3   OH250944   1.339   1.095 109.607 -0.1889  0.3069  0.2275
 9818TIP3    H150945   1.408   1.132 109.551 -1.4931  0.3512 -1.4238
 9818TIP3    H250946   1.289   1.172 109.636 -0.8250  0.1187 -0.3595
 9819TIP3   OH250947   2.436   2.121  80.265  0.4737 -0.9815  0.6742
 9819TIP3    H150948   2.450   2.171  80.185 -0.0118 -0.1100  1.1212
 9819TIP3    H250949   2.391   2.182  80.324 -0.0511 -1.9208  1.2658
 9820TIP3   OH250950   0.376   0.501  27.960 -0.3339  0.3047  0.1978
 9820TIP3    H150951   0.358   0.592  27.983  1.3106  0.6625  0.2123
 9820TIP3    H250952   0.472   0.494  27.965 -0.4235 -1.3943  0.0870
 9821TIP3   OH250953   0.914   2.371  92.919  0.1102  0.2293 -0.3968
 9821TIP3    H150954   1.007   2.378  92.941  0.2431  0.2920 -0.9652
 9821TIP3    H250955   0.878   2.458  92.940  0.0279 -0.0003  0.4741
 9822TIP3   OH250956   0.429   0.316   3.040  0.2050 -0.1556  0.0915
 9822TIP3    H150957   0.428   0.279   2.952  0.4145  4.2540 -1.9924
 9822TIP3    H250958   0.509   0.280   3.080  0.8716 -1.1506 -1.9998
 9823TIP3   OH250959   0.748   1.159  76.555  0.2382 -0.8831  0.0414
 9823TIP3    H150960   0.726   1.166  76.647  1.8773  1.5553  0.3761
 9823TIP3    H250961   0.704   1.234  76.514  1.0384 -0.8235 -0.7520
 9824TIP3   OH250962   1.362   1.894  12.040  0.1591  0.2445  0.3238
 9824TIP3    H150963   1.376   1.842  12.120  1.6104  2.3063  1.5228
 9824TIP3    H250964   1.437   1.873  11.985  0.2181  0.3057  0.3799
 9825TIP3   OH250965   0.790   2.592   9.949  0.1688 -0.4758  0.1570
 9825TIP3    H150966   0.765   2.679   9.981 -1.2080  0.2296 -2.5461
 9825TIP3    H250967   0.885   2.595   9.944  0.0960  1.2543 -0.8001
 9826TIP3   OH250968   1.027   0.858  51.111  0.0933  0.6604 -0.2875
 9826TIP3    H150969   0.974   0.817  51.180  1.1474  0.6004  0.5160
 9826TIP3    H250970   1.017   0.952  51.126  2.1491  0.6563  1.4422
 9827TIP3   OH250971   2.391   1.127  96.102  0.2272  0.1764  0.1812
 9827TIP3    H150972   2.470   1.138  96.154  0.5317  0.0361 -0.2485
 9827TIP3    H250973   2.416   1.068  96.031  0.0211  0.9175 -0.5317
 9828TIP3   OH250974   0.731   1.960  11.185 -0.2270 -0.3173  0.2525
 9828TIP3    H150975   0.716   2.014  11.107 -0.7854  0.9959  1.2261
 9828TIP3    H250976   0.739   1.871  11.151  0.1177  0.2860 -1.3578
 9829TIP3   OH250977   0.275   1.506  84.995  0.0334 -0.0166  0.3749
 9829TIP3    H150978   0.191   1.551  84.981 -0.1784 -0.1791  1.0412
 9829TIP3    H250979   0.324   1.520  84.915 -0.9385 -0.5867 -0.3384
 9830TIP3   OH250980   1.756   0.541  98.794 -0.1924  0.2089 -0.1206
 9830TIP3    H150981   1.836   0.505  98.755 -0.7155 -0.6355 -0.4284
 9830TIP3    H250982   1.779   0.632  98.815  0.3978  0.4222 -1.5617
 9831TIP3   OH250983   1.993   2.537  85.750 -0.4231 -0.1466  0.4001
 9831TIP3    H150984   1.914   2.578  85.715 -0.3157 -0.1860  0.1120
 9831TIP3    H250985   2.029   2.602  85.810  1.1486  1.2693 -1.9170
 9832TIP3   OH250986   2.675   2.229  43.973 -0.2850  0.0844  0.3342
 9832TIP3    H150987   2.733   2.243  44.048 -0.3048  0.8594  0.2042
 9832TIP3    H250988   2.732   2.196  43.904 -0.1416  0.0716  0.4597
 9833TIP3   OH250989   2.290   0.969 110.877 -0.0190 -0.1711 -0.1225
 9833TIP3    H150990   2.352   0.960 110.949 -1.1297 -0.7864  0.7810
 9833TIP3    H250991   2.335   1.025 110.814  1.3311 -0.3539  0.6328
 9834TIP3   OH250992   1.999   1.832  22.041  0.0211  0.0904  0.6606
 9834TIP3    H150993   2.029   1.867  21.957  2.7918 -1.6367  0.7930
 9834TIP3    H250994   1.923   1.886  22.064  0.0222  1.5253 -2.2405
 9835TIP3   OH250995   1.189   1.445 111.321 -0.3431 -0.2170 -0.0748
 9835TIP3    H150996   1.131   1.512 111.358 -2.5664 -0.4758 -2.7026
 9835TIP3    H250997   1.210   1.388 111.395  0.0299  2.2557  1.8329
 9836TIP3   OH250998   0.657   2.433  31.968  0.6276 -0.0405  0.1782
 9836TIP3    H150999   0.696   2.513  31.931 -0.5311  0.8307  0.7744
 9836TIP3    H251000   0.694   2.428  32.056  0.2066  0.2087  0.3709
 9837TIP3   OH251001   2.634   1.187  87.101 -0.1878 -0.3265  0.8592
 9837TIP3    H151002   2.607   1.196  87.193  3.3263 -2.1113  2.2762
 9837TIP3    H251003   2.715   1.239  87.095 -1.9266  2.3586 -2.2400
 9838TIP3   OH251004   2.297   0.452  27.487 -0.3025  0.1260 -0.0935
 9838TIP3    H151005   2.377   0.491  27.451 -0.2922  1.3897  1.2308
 9838TIP3    H251006   2.257   0.406  27.413  0.0674  2.0546 -1.5493
 9839TIP3   OH251007   1.433   2.677  95.842 -0.1094 -0.9938 -0.5576
 9839TIP3    H151008   1.513   2.625  95.850  0.8310  0.4721  0.0310
 9839TIP3    H251009   1.431   2.705  95.750  0.3860 -0.5474 -0.4343
 9840TIP3   OH251010   0.369   1.053   6.867 -0.1316 -0.0986 -0.0391
 9840TIP3    H151011   0.381   0.961   6.892 -0.7531 -0.1743 -0.0031
 9840TIP3    H251012   0.274   1.067   6.871 -0.2066  0.0866 -1.6237
 9841TIP3   OH251013   0.673   1.238 103.548 -0.5201  0.1484  0.1511
 9841TIP3    H151014   0.647   1.179 103.477  1.8485 -0.8461  0.0158
 9841TIP3    H251015   0.711   1.181 103.614 -0.4851  1.3082  1.1656
 9842TIP3   OH251016   2.183   1.594   1.281  0.2400  0.3192  0.0385
 9842TIP3    H151017   2.153   1.516   1.233  2.3526  0.4137 -1.5526
 9842TIP3    H251018   2.182   1.566   1.372 -3.6222  0.0340  0.0955
 9843TIP3   OH251019   1.602   2.597  26.627 -0.1088  0.2259  0.6958
 9843TIP3    H151020   1.583   2.658  26.698 -0.6429  0.7597  0.1060
 9843TIP3    H251021   1.640   2.520  26.670 -0.6857  0.4290  1.5729
 9844TIP3   OH251022   0.480   1.493  62.882 -0.1946 -0.3721 -0.3092
 9844TIP3    H151023   0.462   1.445  62.963  1.7546 -0.7557 -0.0692
 9844TIP3    H251024   0.575   1.494  62.875 -0.1835  2.4510 -0.9265
 9845TIP3   OH251025   0.581   2.306   1.364  0.0435  0.1320 -0.2935
 9845TIP3    H151026   0.529   2.298   1.284 -0.5522 -1.9376  0.2476
 9845TIP3    H251027   0.669   2.331   1.333 -0.7711  1.8871 -1.3534
 9846TIP3   OH251028   0.118   1.347  78.818  0.4737  0.5477 -0.9591
 9846TIP3    H151029   0.082   1.346  78.729  0.4656 -0.3773 -0.9565
 9846TIP3    H251030   0.081   1.426  78.858 -0.3652  0.4082 -1.4389
 9847TIP3   OH251031   0.542   1.842  86.943 -0.0707  0.0071 -0.3527
 9847TIP3    H151032   0.493   1.760  86.935 -0.8765  0.3450  0.9121
 9847TIP3    H251033   0.591   1.832  87.024 -0.2525  0.8188 -0.1388
 9848TIP3   OH251034   1.262   0.789  89.204 -0.2065  0.1410 -0.1368
 9848TIP3    H151035   1.263   0.713  89.145  0.3146  0.0499 -0.0105
 9848TIP3    H251036   1.210   0.855  89.158  1.0534  0.4413 -1.1745
 9849TIP3   OH251037   1.657   0.180  63.531 -0.7088 -0.5334  0.3791
 9849TIP3    H151038   1.748   0.173  63.502 -1.3940 -0.5943 -1.9625
 9849TIP3    H251039   1.620   0.094  63.515 -1.7139  0.0823 -0.7301
 9850TIP3   OH251040   0.057   2.350  96.537 -0.1315 -0.0830 -0.0900
 9850TIP3    H151041   0.024   2.435  96.507 -1.3658 -0.5043 -0.0104
 9850TIP3    H251042   0.149   2.366  96.557 -0.4394  1.3517  0.3608
 9851TIP3   OH251043   0.058   2.195 105.116 -0.0568 -0.2461 -0.0296
 9851TIP3    H151044   0.007   2.272 105.092  2.3661  1.4567  0.0004
 9851TIP3    H251045   0.082   2.155 105.033  0.4887  0.2773 -0.1253
 9852TIP3   OH251046   1.231   0.317  29.178  0.0366  0.5992  0.3570
 9852TIP3    H151047   1.187   0.385  29.229 -0.6378  0.6308 -0.2596
 9852TIP3    H251048   1.185   0.316  29.094  1.6420  1.0987 -0.5751
 9853TIP3   OH251049   0.044   0.229  13.256  0.2297 -0.8949 -0.3537
 9853TIP3    H151050   0.048   0.177  13.336  1.9717 -2.5007 -1.4142
 9853TIP3    H251051   0.133   0.225  13.220 -0.2849  0.5267 -1.9270
 9854TIP3   OH251052   2.643   0.641  13.806  0.8771  0.3305 -0.0555
 9854TIP3    H151053   2.738   0.641  13.797  0.7510 -0.4133 -1.7671
 9854TIP3    H251054   2.625   0.569  13.866  1.3260 -0.4199 -0.8079
 9855TIP3   OH251055   1.124   1.744  23.985 -0.3126 -0.7715 -0.4778
 9855TIP3    H151056   1.185   1.750  24.059 -1.0138  0.2656  0.0337
 9855TIP3    H251057   1.079   1.661  23.999 -1.0247 -0.2076  0.7524
 9856TIP3   OH251058   0.963   0.019  17.812 -0.1463 -0.0447 -0.5722
 9856TIP3    H151059   0.881   0.060  17.840 -0.2954 -0.3952 -0.4935
 9856TIP3    H251060   0.937  -0.042  17.743  0.2288  0.8908 -1.5632
 9857TIP3   OH251061   1.308   2.245  99.819 -0.2770 -0.0786 -0.4743
 9857TIP3    H151062   1.379   2.239  99.756 -1.0510  1.1136 -1.4981
 9857TIP3    H251063   1.344   2.207  99.899  1.1127 -0.5404 -1.2822
 9858TIP3   OH251064   2.412   1.339  29.751 -0.2494  0.4626  0.0628
 9858TIP3    H151065   2.399   1.276  29.680 -1.4227  1.0953 -0.3103
 9858TIP3    H251066   2.368   1.299  29.826 -0.0772  0.3594  0.1086
 9859TIP3   OH251067   2.419   2.614  40.926 -0.2386 -0.0642 -0.3792
 9859TIP3    H151068   2.405   2.549  40.995 -0.2370  0.7059  0.3693
 9859TIP3    H251069   2.332   2.645  40.903 -0.1745  0.7093  0.3247
 9860TIP3   OH251070   2.502   2.180  96.807  0.1843  0.2060 -0.0251
 9860TIP3    H151071   2.559   2.156  96.734  0.0844  0.6013 -0.2384
 9860TIP3    H251072   2.428   2.121  96.800 -0.6213  1.3077 -1.2415
 9861TIP3   OH251073   1.071   0.910  89.435 -0.6240 -0.3348  0.3701
 9861TIP3    H151074   1.065   1.001  89.405 -0.9788 -0.2058  0.8337
 9861TIP3    H251075   1.006   0.863  89.383 -1.6466 -0.0056  1.3053
 9862TIP3   OH251076   1.506   0.578  17.618  0.4037  0.1195 -0.2613
 9862TIP3    H151077   1.556   0.534  17.686 -0.2271 -0.3090 -0.0653
 9862TIP3    H251078   1.528   0.671  17.629 -0.0485  0.1099  0.8414
 9863TIP3   OH251079   0.066   1.795  24.231  0.5181  0.1911 -0.1200
 9863TIP3    H151080  -0.008   1.853  24.212  0.7398  0.8590  0.9886
 9863TIP3    H251081   0.132   1.852  24.271  1.9345 -0.2467 -1.7245
 9864TIP3   OH251082   0.382   1.543  21.470 -0.5827  0.1255 -0.2486
 9864TIP3    H151083   0.376   1.634  21.439  0.1420  0.4550  0.5520
 9864TIP3    H251084   0.336   1.544  21.554  1.1379  0.2168  0.7230
 9865TIP3   OH251085   1.397   1.513  34.760  0.0355 -1.0072  0.2838
 9865TIP3    H151086   1.354   1.458  34.694  0.7349 -1.9703  0.6081
 9865TIP3    H251087   1.481   1.469  34.776 -0.3133 -1.0417  2.1486
 9866TIP3   OH251088   0.668   1.576 111.768 -0.1232 -0.0314 -0.3046
 9866TIP3    H151089   0.663   1.496 111.715 -1.7056 -1.0589  1.2818
 9866TIP3    H251090   0.756   1.574 111.805 -0.4327 -1.5444  0.4240
 9867TIP3   OH251091   0.548   1.609   5.695  0.1743 -0.3226  0.7371
 9867TIP3    H151092   0.542   1.609   5.791 -0.3294 -0.7256  0.7144
 9867TIP3    H251093   0.586   1.524   5.674 -0.2589 -0.4760  0.5577
 9868TIP3   OH251094   1.284   1.139   6.558  0.4185  0.2551 -0.0473
 9868TIP3    H151095   1.199   1.105   6.586  0.1573  0.0191 -1.0748
 9868TIP3    H251096   1.268   1.232   6.540  0.0002 -0.0849 -1.6044
 9869TIP3   OH251097   2.055   1.844  96.837  0.0976  0.2388 -0.7002
 9869TIP3    H151098   2.057   1.749  96.838 -1.3905  0.1707 -1.3024
 9869TIP3    H251099   2.099   1.871  96.918 -0.2555 -0.9786 -0.0866
 9870TIP3   OH251100   2.650   1.099  68.367 -0.7200  0.1586 -0.1700
 9870TIP3    H151101   2.625   1.182  68.407  0.2274  0.1796  0.3813
 9870TIP3    H251102   2.742   1.109  68.344 -1.0529 -0.0994 -1.7462
 9871TIP3   OH251103   1.957   0.113 105.546 -0.1573 -0.0807 -0.6424
 9871TIP3    H151104   2.004   0.119 105.463 -1.2044  1.1407 -1.1918
 9871TIP3    H251105   1.978   0.195 105.591 -2.0916  0.7343 -1.1197
 9872TIP3   OH251106   1.405   1.807  34.080  0.7088  0.3223  0.1298
 9872TIP3    H151107   1.356   1.737  34.123 -0.9465  1.2624 -0.1656
 9872TIP3    H251108   1.485   1.815  34.133  0.1001 -0.5701  1.2404
 9873TIP3   OH251109   2.407   0.014  26.463 -0.5770 -0.3559  0.1793
 9873TIP3    H151110   2.392   0.017  26.368  0.3340 -0.3087  0.0256
 9873TIP3    H251111   2.501   0.030  26.473 -0.6762 -0.2825  1.0989
 9874TIP3   OH251112   1.549   1.506   4.088 -0.2379 -0.8205  0.2694
 9874TIP3    H151113   1.572   1.487   3.997  0.8703 -1.6365  0.6845
 9874TIP3    H251114   1.628   1.546   4.125 -1.0323  0.4767  0.6139
 9875TIP3   OH251115   1.698   1.355 104.637  0.0319 -0.4316 -0.5035
 9875TIP3    H151116   1.603   1.366 104.629  0.0388 -0.1130 -0.1581
 9875TIP3    H251117   1.717   1.274 104.589 -0.4182 -0.5156 -0.5415
 9876TIP3   OH251118   2.201   1.514 103.529 -0.7490 -0.3146  0.0587
 9876TIP3    H151119   2.272   1.470 103.575  0.2739  2.0397  0.8826
 9876TIP3    H251120   2.241   1.550 103.451 -0.2891  3.0712  1.6705
 9877TIP3   OH251121   0.946   0.036  53.079 -0.3573 -0.1851  0.4374
 9877TIP3    H151122   0.897   0.088  53.143 -0.6545  1.8491 -1.3054
 9877TIP3    H251123   0.945  -0.053  53.113 -1.2631  0.6593  2.7732
 9878TIP3   OH251124   1.297   2.226  93.138 -0.6996 -0.8731 -0.6418
 9878TIP3    H151125   1.373   2.276  93.167 -1.0180 -1.2826  1.0575
 9878TIP3    H251126   1.222   2.275  93.173 -1.1111 -1.4207 -0.7500
 9879TIP3   OH251127   2.345   0.939  74.455 -0.0290 -0.5149  0.2819
 9879TIP3    H151128   2.363   0.848  74.479 -0.5933 -0.2595  1.8358
 9879TIP3    H251129   2.427   0.985  74.475 -0.3194 -0.3999  1.2962
 9880TIP3   OH251130   0.536   1.035  81.592 -0.8725 -0.5526  0.2643
 9880TIP3    H151131   0.556   1.118  81.549 -0.7414 -0.7905 -0.1349
 9880TIP3    H251132   0.483   1.060  81.668  0.3654  0.0213  0.9567
 9881TIP3   OH251133   1.294   2.498  93.754  0.1175  0.0674  0.8082
 9881TIP3    H151134   1.355   2.447  93.808 -0.3300  1.6506  2.8967
 9881TIP3    H251135   1.208   2.461  93.773 -0.1076  1.0096  1.6518
 9882TIP3   OH251136   1.075   0.101 108.484  0.0947  0.0037 -0.6960
 9882TIP3    H151137   1.092   0.134 108.396 -0.6168 -0.1990 -0.9174
 9882TIP3    H251138   1.099   0.009 108.480 -0.2823 -0.0934 -0.7899
 9883TIP3   OH251139   2.128   0.964  31.685  0.0735  0.1557  0.3389
 9883TIP3    H151140   2.187   0.906  31.734 -1.2867 -0.8496  0.8674
 9883TIP3    H251141   2.132   0.931  31.595 -0.3342 -0.4576  0.5442
 9884TIP3   OH251142   0.973   0.527  79.222  0.2873 -0.2722  0.1033
 9884TIP3    H151143   1.013   0.456  79.271  0.2681 -0.4940 -0.1966
 9884TIP3    H251144   0.910   0.484  79.164 -1.1288  0.1566  1.2612
 9885TIP3   OH251145   1.564   1.634 110.985 -0.2178  0.0195 -0.2355
 9885TIP3    H151146   1.599   1.611 110.899 -3.0875  3.2447 -2.5372
 9885TIP3    H251147   1.595   1.723 111.001 -2.0538  0.5650  0.6237
 9886TIP3   OH251148   1.584   1.606   3.718 -0.6517 -0.0786  0.3551
 9886TIP3    H151149   1.632   1.680   3.756 -0.7623  0.6782 -0.9273
 9886TIP3    H251150   1.621   1.529   3.762  1.1099  0.5508  0.0805
 9887TIP3   OH251151   2.554   0.244  29.135 -0.5523  0.1940  0.1335
 9887TIP3    H151152   2.606   0.290  29.201  0.3647 -1.4231  0.5923
 9887TIP3    H251153   2.471   0.291  29.133  0.1967  1.6120  0.8454
 9888TIP3   OH251154   1.801   1.341  98.487 -0.5255 -0.1708 -0.4480
 9888TIP3    H151155   1.773   1.430  98.508  0.8667 -0.2031  1.9020
 9888TIP3    H251156   1.777   1.289  98.563  1.7902 -1.0534 -0.2460
 9889TIP3   OH251157   2.484   2.647  94.768  0.7313 -0.4136 -0.0943
 9889TIP3    H151158   2.545   2.720  94.777  1.0290 -0.5853 -0.6812
 9889TIP3    H251159   2.409   2.671  94.822  0.0849  1.1338 -1.5835
 9890TIP3   OH251160   2.454   0.065  36.063  0.4007 -0.1909 -0.5858
 9890TIP3    H151161   2.509   0.143  36.068 -1.0041  0.8024  0.3620
 9890TIP3    H251162   2.438   0.053  35.970  0.8446  0.5127 -0.7654
 9891TIP3   OH251163   2.407   0.100  27.053  0.2340 -0.0217  0.3012
 9891TIP3    H151164   2.453   0.175  27.091  1.3999 -0.5815  0.0566
 9891TIP3    H251165   2.477   0.037  27.034 -0.5318 -0.4955 -1.0419
 9892TIP3   OH251166   2.167   2.428  15.431 -0.3487  0.3691 -0.1312
 9892TIP3    H151167   2.125   2.423  15.517 -0.5507  0.9599 -0.1919
 9892TIP3    H251168   2.188   2.337  15.409 -2.1409 -0.0241 -0.3657
 9893TIP3   OH251169   2.312   1.765  23.965 -0.4641  0.1684  0.2321
 9893TIP3    H151170   2.343   1.855  23.971 -0.3548  0.3637 -2.3015
 9893TIP3    H251171   2.369   1.723  23.901 -0.6943 -1.6533  1.1284
 9894TIP3   OH251172   0.916   0.417  58.333 -0.0783 -0.0078 -0.4430
 9894TIP3    H151173   0.832   0.425  58.379  0.3427 -2.4407  0.8909
 9894TIP3    H251174   0.978   0.466  58.387 -0.6959  2.6978 -1.9683
 9895TIP3   OH251175   2.158   1.461  81.605 -0.7751 -0.8538  0.2541
 9895TIP3    H151176   2.241   1.508  81.604 -0.2176 -1.8067 -0.2968
 9895TIP3    H251177   2.103   1.510  81.666 -0.6478  1.1975 -1.1650
 9896TIP3   OH251178   1.787   0.407  21.520  0.0910 -0.4771  0.1128
 9896TIP3    H151179   1.865   0.415  21.465  0.3631 -0.5684  0.4813
 9896TIP3    H251180   1.810   0.453  21.601 -0.7479  0.7369 -0.3103
 9897TIP3   OH251181   1.307   1.788 106.270  0.0379  0.1109  0.2512
 9897TIP3    H151182   1.276   1.698 106.278  1.0503 -0.2140  0.5996
 9897TIP3    H251183   1.351   1.806 106.353 -0.1271  0.9128  0.1699
 9898TIP3   OH251184   0.162   2.176 104.030 -0.3377  0.4351  0.3507
 9898TIP3    H151185   0.188   2.241 104.096 -0.8595  0.6326  0.3709
 9898TIP3    H251186   0.116   2.228 103.963 -1.6749 -0.0469  0.8711
 9899TIP3   OH251187   1.601   1.849  98.311  0.6743 -0.2021 -0.5876
 9899TIP3    H151188   1.633   1.763  98.337  3.1714  0.7718 -0.1533
 9899TIP3    H251189   1.583   1.894  98.394 -0.0451 -0.0984 -0.7935
 9900TIP3   OH251190   1.316   1.298  81.441  0.7146 -0.1897  0.4579
 9900TIP3    H151191   1.404   1.277  81.410  0.1717 -0.8963 -0.6659
 9900TIP3    H251192   1.259   1.271  81.370 -0.4826 -0.6115  1.5497
 9901TIP3   OH251193   2.047   0.430  89.396  0.4167  0.4212  0.0586
 9901TIP3    H151194   1.978   0.488  89.426  0.8798  1.0666 -0.1115
 9901TIP3    H251195   2.003   0.347  89.378 -0.0938  0.3961  1.2883
 9902TIP3   OH251196   1.236   2.159   4.687 -0.6763  0.4039 -0.1247
 9902TIP3    H151197   1.152   2.151   4.733 -0.6100 -0.0943 -0.0829
 9902TIP3    H251198   1.213   2.150   4.594 -0.7477  0.9149 -0.1597
 9903TIP3   OH251199   1.855   0.246  35.817  0.2536 -0.5474  0.3130
 9903TIP3    H151200   1.802   0.167  35.830  1.8936 -1.5663  1.0705
 9903TIP3    H251201   1.940   0.213  35.788  0.5536  1.0485 -0.7562
 9904TIP3   OH251202   1.486   0.722  37.146 -0.5719  0.2600  0.5126
 9904TIP3    H151203   1.411   0.714  37.205  1.4854 -1.2310  3.1419
 9904TIP3    H251204   1.541   0.647  37.166  0.5437 -0.0753 -3.0850
 9905TIP3   OH251205   1.760   0.709  22.018 -0.1626 -0.2499  0.1933
 9905TIP3    H151206   1.700   0.647  22.060  0.3087 -0.5047  0.4977
 9905TIP3    H251207   1.847   0.679  22.043  0.0723  0.5660  0.3843
 9906TIP3   OH251208   2.316   2.599  93.232 -0.1471 -0.1585 -0.2063
 9906TIP3    H151209   2.315   2.577  93.325 -1.4275 -1.2815 -0.4549
 9906TIP3    H251210   2.322   2.695  93.230 -0.2310 -0.1173  1.0322
 9907TIP3   OH251211   1.307   1.587  96.681 -0.6879 -0.0797 -0.0174
 9907TIP3    H151212   1.361   1.602  96.759 -1.5291 -0.2178  0.6090
 9907TIP3    H251213   1.357   1.525  96.628 -0.3057 -0.3269  0.6253
 9908TIP3   OH251214   1.116   1.946  25.182  0.0196  0.3786  0.0544
 9908TIP3    H151215   1.160   1.982  25.105 -1.1427  0.9648 -0.3588
 9908TIP3    H251216   1.127   2.013  25.250  0.0989  0.3528  0.0670
 9909TIP3   OH251217   1.282   1.859 110.912  0.1378 -0.0481 -0.1340
 9909TIP3    H151218   1.300   1.953 110.914  0.3410 -0.0968  0.5046
 9909TIP3    H251219   1.327   1.824 110.989 -1.3237 -0.4151  0.5876
 9910TIP3   OH251220   1.158   0.107  89.645  0.1686 -0.5497 -0.0746
 9910TIP3    H151221   1.253   0.115  89.639  0.0656 -0.3298 -1.8702
 9910TIP3    H251222   1.129   0.191  89.681  0.5210  0.2654 -1.5970
 9911TIP3   OH251223   0.300   0.194  79.233 -0.4157 -0.0254  0.3285
 9911TIP3    H151224   0.356   0.266  79.204  0.1789  0.3010  2.1481
 9911TIP3    H251225   0.351   0.115  79.213  0.3115  0.2249  1.1289
 9912TIP3   OH251226   0.130   0.803  58.340  0.0499  0.0564 -0.1271
 9912TIP3    H151227   0.042   0.820  58.373  0.0072 -0.4456  0.0299
 9912TIP3    H251228   0.118   0.776  58.249  0.1592  1.3370 -0.5328
 9913TIP3   OH251229   1.229   0.928  16.731 -0.2271  0.0882 -0.3427
 9913TIP3    H151230   1.141   0.895  16.711 -0.0509 -2.1448  2.0988
 9913TIP3    H251231   1.215   1.020  16.754 -1.6884  0.1444 -1.2567
 9914TIP3   OH251232   0.799   1.797  35.888 -0.1291  0.0215 -0.2687
 9914TIP3    H151233   0.860   1.725  35.903 -0.7691 -0.2466  1.2506
 9914TIP3    H251234   0.730   1.783  35.953 -0.6707  1.5567 -0.4806
 9915TIP3   OH251235   1.119   2.401  98.885  0.1166  0.6131 -0.2098
 9915TIP3    H151236   1.139   2.484  98.929  1.6408  0.5188 -0.6419
 9915TIP3    H251237   1.099   2.427  98.795  0.4406  0.5424 -0.3046
 9916TIP3   OH251238   1.797   2.483  10.731  0.3752  0.4469 -0.0793
 9916TIP3    H151239   1.784   2.502  10.638  2.4106  1.9322 -0.1346
 9916TIP3    H251240   1.826   2.566  10.768  1.5820 -0.6149  1.4700
 9917TIP3   OH251241   2.309   2.048  32.184  0.0859  0.0922  0.1888
 9917TIP3    H151242   2.229   1.997  32.198  0.1299  0.2484  1.1197
 9917TIP3    H251243   2.379   1.984  32.190  0.0802  0.0953  0.2977
 9918TIP3   OH251244   0.447   2.246 108.594  0.1693 -0.1976 -0.3598
 9918TIP3    H151245   0.504   2.284 108.660 -0.9666 -0.5467  0.8621
 9918TIP3    H251246   0.451   2.307 108.521  1.7531 -0.0043 -0.1401
 9919TIP3   OH251247   2.061   2.034 109.692  0.0730  1.0077 -0.5280
 9919TIP3    H151248   2.150   2.053 109.721 -0.1774  3.1969 -0.9931
 9919TIP3    H251249   2.052   2.081 109.609 -1.2547  0.0912 -0.9415
 9920TIP3   OH251250   1.188   0.878  31.553 -0.4475 -0.0124  0.3760
 9920TIP3    H151251   1.189   0.837  31.639  1.5512 -0.5999  0.1287
 9920TIP3    H251252   1.254   0.830  31.503  0.6806  2.2964 -0.4926
 9921TIP3   OH251253   2.353   2.089  81.022  0.5856  0.6256  0.4151
 9921TIP3    H151254   2.367   2.006  80.977 -0.0952  1.4017 -1.3058
 9921TIP3    H251255   2.320   2.064  81.108  1.0623 -0.8855  0.2017
 9922TIP3   OH251256   1.889   2.273  13.247  0.8300 -0.2918  0.6201
 9922TIP3    H151257   1.824   2.212  13.283  1.3762 -1.5819 -0.5021
 9922TIP3    H251258   1.856   2.293  13.159  0.6995  0.9929  0.9479
 9923TIP3   OH251259   0.412   2.396  89.447 -0.2416 -0.1616 -0.0101
 9923TIP3    H151260   0.447   2.448  89.518 -1.5552 -0.4926  0.9226
 9923TIP3    H251261   0.362   2.458  89.394  1.2164  0.2016 -1.0228
 9924TIP3   OH251262   2.079   1.438  31.695 -0.0606 -0.0437  0.3334
 9924TIP3    H151263   2.129   1.370  31.650 -0.4677 -0.7157  0.8827
 9924TIP3    H251264   2.083   1.414  31.788 -0.8314  0.2735  0.4547
 9925TIP3   OH251265   0.482   1.563  30.558 -0.0435 -0.2674 -0.7072
 9925TIP3    H151266   0.461   1.527  30.472  0.7835 -0.0925 -0.9971
 9925TIP3    H251267   0.479   1.658  30.545 -1.6309 -0.2011 -0.0944
 9926TIP3   OH251268   0.676   0.731  34.131 -0.1463 -0.3772  0.6521
 9926TIP3    H151269   0.720   0.688  34.058  0.5419  1.2253  0.0760
 9926TIP3    H251270   0.673   0.665  34.200  1.1310 -1.2530 -0.0892
 9927TIP3   OH251271   0.853   0.922  31.608 -0.0416 -0.3361 -0.7287
 9927TIP3    H151272   0.846   0.969  31.691 -1.4025 -0.9631 -0.4654
 9927TIP3    H251273   0.887   0.987  31.546  0.2161  0.3577  0.1257
 9928TIP3   OH251274   2.188   0.863  20.929  0.0215  0.0656  0.4159
 9928TIP3    H151275   2.242   0.787  20.909 -0.1705 -0.2224  0.9533
 9928TIP3    H251276   2.141   0.882  20.848  0.8392  0.2522 -0.0193
 9929TIP3   OH251277   0.740   1.813  12.707  0.3749  0.2159 -0.2980
 9929TIP3    H151278   0.826   1.829  12.745  0.3577 -0.6729  0.1259
 9929TIP3    H251279   0.756   1.804  12.613  1.0340 -1.8447 -0.0229
 9930TIP3   OH251280   2.154   2.402  84.593 -0.2536 -0.3718 -0.0839
 9930TIP3    H151281   2.164   2.314  84.558 -1.8300 -0.5696 -0.1213
 9930TIP3    H251282   2.147   2.458  84.515  0.9548 -0.1543 -0.0632
 9931TIP3   OH251283   0.671   0.284  18.572  0.4876 -0.5490 -0.2525
 9931TIP3    H151284   0.703   0.310  18.486  2.6097 -0.3341  0.5598
 9931TIP3    H251285   0.645   0.366  18.614 -2.7754 -0.8111 -1.4087
 9932TIP3   OH251286   1.361   0.437  76.545  0.0394 -0.0269  0.8710
 9932TIP3    H151287   1.399   0.438  76.458  1.8143  1.2258  1.6043
 9932TIP3    H251288   1.285   0.495  76.538  1.9651  2.6677  0.8191
 9933TIP3   OH251289   0.082   0.961  95.162 -0.1797 -0.2702 -0.3653
 9933TIP3    H151290   0.144   0.913  95.216  0.1561 -0.2359 -0.7207
 9933TIP3    H251291   0.135   1.002  95.094 -0.2139  2.0129  0.9017
 9934TIP3   OH251292   2.504   1.483  92.102 -0.8087  0.2137 -0.0296
 9934TIP3    H151293   2.502   1.579  92.102 -1.9865  0.2176  0.7710
 9934TIP3    H251294   2.423   1.458  92.057  0.4391 -0.4484 -2.0501
 9935TIP3   OH251295   0.880   0.065  94.538 -0.5478  0.0273  1.0069
 9935TIP3    H151296   0.906  -0.015  94.492 -0.8230  0.4724  0.0361
 9935TIP3    H251297   0.859   0.127  94.468  3.7434  2.4254  1.5165
 9936TIP3   OH251298   0.233   0.325  85.173 -0.5600  0.7957 -0.2601
 9936TIP3    H151299   0.179   0.249  85.150 -1.5342  1.1690  0.6963
 9936TIP3    H251300   0.215   0.389  85.104 -0.2679  0.4248 -0.6911
 9937TIP3   OH251301   0.614   0.099 101.701 -0.4501  0.6645  0.5131
 9937TIP3    H151302   0.689   0.156 101.716  0.5463 -0.8652  1.5773
 9937TIP3    H251303   0.645   0.034 101.638 -1.6558  1.3869 -0.9010
 9938TIP3   OH251304   0.073   1.725  34.430 -0.2160 -0.2908 -0.0965
 9938TIP3    H151305   0.060   1.770  34.347 -0.5152  0.4944  0.3650
 9938TIP3    H251306   0.014   1.649  34.425 -2.2576  1.1705  0.4233
 9939TIP3   OH251307   1.801   0.457  13.745  0.4728 -0.0082  0.1571
 9939TIP3    H151308   1.819   0.363  13.747  0.8604  0.0023 -1.2543
 9939TIP3    H251309   1.748   0.469  13.666  0.9946  1.0412 -0.0525
 9940TIP3   OH251310   0.058   2.628  33.183 -0.2671 -0.2789  0.2002
 9940TIP3    H151311   0.140   2.614  33.136 -0.8609 -2.4988 -0.2782
 9940TIP3    H251312   0.011   2.693  33.131  0.8362  0.4145  0.0430
 9941TIP3   OH251313   2.107   0.815 110.738 -0.0987  0.1138 -0.0707
 9941TIP3    H151314   2.178   0.854 110.790 -0.2942 -1.2200  1.2652
 9941TIP3    H251315   2.036   0.804 110.801 -1.2291  0.6875 -1.2178
 9942TIP3   OH251316   2.567   2.410 105.035  0.7476  0.2152  0.5058
 9942TIP3    H151317   2.541   2.395 104.944 -0.1731 -0.4111  0.8509
 9942TIP3    H251318   2.573   2.505 105.043  0.2237  0.3006 -0.0484
 9943TIP3   OH251319   1.096   1.852   6.871  0.1931 -0.0423 -0.7619
 9943TIP3    H151320   1.179   1.890   6.903 -0.0856 -0.9172  1.1433
 9943TIP3    H251321   1.121   1.767   6.835  0.0225 -0.7624  0.7652
 9944TIP3   OH251322   0.070   0.002  11.440 -0.1788  0.4647  0.5490
 9944TIP3    H151323  -0.011   0.011  11.390 -0.0549 -1.4325 -0.0775
 9944TIP3    H251324   0.052   0.045  11.524 -1.4908  0.9069  0.0592
 9945TIP3   OH251325   0.350   1.664  97.638  0.6316 -0.1772 -0.1970
 9945TIP3    H151326   0.279   1.681  97.700  0.4709 -0.4850 -0.2953
 9945TIP3    H251327   0.410   1.607  97.686 -0.1507 -1.5192 -0.7510
 9946TIP3   OH251328   2.313   0.393   2.071  0.1900  0.6252 -0.0097
 9946TIP3    H151329   2.310   0.410   1.977 -0.8941  1.1505  0.1007
 9946TIP3    H251330   2.401   0.420   2.097  1.3630 -1.7662 -1.2466
 9947TIP3   OH251331   2.120   1.424  13.886 -0.3486  0.7147  0.0463
 9947TIP3    H151332   2.191   1.373  13.845  0.1877  1.2650  0.2718
 9947TIP3    H251333   2.162   1.505  13.914 -0.5648  0.1583  2.1801
 9948TIP3   OH251334   1.379   2.531  17.925 -0.4696 -0.1082 -0.4201
 9948TIP3    H151335   1.315   2.602  17.919 -0.1159  0.1787 -0.8629
 9948TIP3    H251336   1.446   2.553  17.860  1.4678  0.9923  1.7910
 9949TIP3   OH251337   0.212   2.154  29.138 -0.1511  0.1738  0.0205
 9949TIP3    H151338   0.298   2.112  29.134 -0.7575 -1.3035  1.5444
 9949TIP3    H251339   0.194   2.164  29.232 -2.0998 -0.5586 -0.2198
 9950TIP3   OH251340   0.463   1.621 111.974 -0.4016 -0.4402 -0.2094
 9950TIP3    H151341   0.526   1.634 111.903 -1.6101  1.5552 -1.0315
 9950TIP3    H251342   0.514   1.583 112.045  1.3725 -0.3250 -1.3512
 9951TIP3   OH251343   0.788   0.948   9.914  0.0086  0.1275 -0.4776
 9951TIP3    H151344   0.724   1.017   9.895  0.9361  1.6379  1.5258
 9951TIP3    H251345   0.785   0.937  10.009  2.4525 -0.0010 -0.3405
 9952TIP3   OH251346   0.292   1.271  89.402  0.3000  0.1586 -0.0252
 9952TIP3    H151347   0.230   1.214  89.356  1.2441 -0.0422 -1.1141
 9952TIP3    H251348   0.258   1.359  89.389 -0.5952 -0.0660  0.7432
 9953TIP3   OH251349   0.289   1.794  26.760  0.3115  0.2624  0.4393
 9953TIP3    H151350   0.230   1.864  26.787 -0.0668 -0.5508  1.8250
 9953TIP3    H251351   0.231   1.723  26.734  0.6310 -0.5682  1.8728
 9954TIP3   OH251352   1.603   0.920  74.865 -0.4168 -0.2222 -0.3285
 9954TIP3    H151353   1.580   0.830  74.842  0.0194 -0.4859  0.2445
 9954TIP3    H251354   1.560   0.935  74.950  2.3045 -1.0973  1.3293
 9955TIP3   OH251355   0.693   2.445  15.754  0.0602  0.1461 -0.1834
 9955TIP3    H151356   0.639   2.372  15.785 -0.8177  0.7848 -0.1777
 9955TIP3    H251357   0.675   2.515  15.816 -0.0220  0.7467 -0.8794
 9956TIP3   OH251358   1.368   0.932  83.789 -0.2197  0.1326  0.3126
 9956TIP3    H151359   1.392   0.841  83.772 -0.4261  0.3695 -1.4586
 9956TIP3    H251360   1.315   0.928  83.869 -1.8227 -1.5683 -0.7506
 9957TIP3   OH251361   2.282   2.361  10.053 -0.1695 -0.2515 -0.0346
 9957TIP3    H151362   2.228   2.284  10.074 -1.9859  0.8304 -0.4786
 9957TIP3    H251363   2.372   2.333  10.072 -0.7583 -2.4615 -0.1336
 9958TIP3   OH251364   2.388   0.742  81.007 -0.1425  0.0498  0.8422
 9958TIP3    H151365   2.365   0.731  81.099  0.2750 -2.1596  0.7320
 9958TIP3    H251366   2.417   0.655  80.979 -1.7368  0.2776 -1.7880
 9959TIP3   OH251367   2.631   1.644  95.412  0.3942 -0.4034 -0.3817
 9959TIP3    H151368   2.673   1.721  95.373 -0.0594  0.3666  0.5933
 9959TIP3    H251369   2.613   1.586  95.338 -0.5909  1.0842 -1.3641
 9960TIP3   OH251370   1.262   0.414   8.235  0.1421 -0.2343  0.4072
 9960TIP3    H151371   1.265   0.479   8.305  1.4065 -0.8837  0.9819
 9960TIP3    H251372   1.342   0.428   8.185  0.1420 -0.9760  0.1829
 9961TIP3   OH251373   0.664   2.512  31.304  0.1041 -0.0137  0.4017
 9961TIP3    H151374   0.716   2.440  31.270 -3.1094 -1.6225 -1.6279
 9961TIP3    H251375   0.587   2.470  31.343 -2.0859  2.1998 -1.1577
 9962TIP3   OH251376   0.771   1.803  29.948 -0.2780  0.4059  0.0399
 9962TIP3    H151377   0.825   1.851  29.886  0.4818  0.1991  0.5333
 9962TIP3    H251378   0.819   1.722  29.965 -0.4660  0.4657  0.9058
 9963TIP3   OH251379   1.798   2.284  76.738  0.0469 -0.3455  0.8282
 9963TIP3    H151380   1.880   2.295  76.689 -0.3911 -1.6605 -0.2681
 9963TIP3    H251381   1.759   2.371  76.740  0.9362  0.0714  0.3823
 9964TIP3   OH251382   2.389   0.992  90.195 -0.0310 -0.3982 -0.4240
 9964TIP3    H151383   2.381   0.984  90.290 -2.3110 -0.9482 -0.5944
 9964TIP3    H251384   2.405   1.085  90.180  1.3772 -0.4607  0.5129
 9965TIP3   OH251385   1.989   0.685  85.214  0.3398 -0.0626  0.0169
 9965TIP3    H151386   2.061   0.664  85.155 -0.2394 -0.1403 -0.6709
 9965TIP3    H251387   1.946   0.600  85.230  0.7082 -0.1071  0.8503
 9966TIP3   OH251388   0.739   2.642 104.440  0.1616 -0.0489  0.2072
 9966TIP3    H151389   0.737   2.716 104.379  0.5604  0.3769  0.7092
 9966TIP3    H251390   0.830   2.640 104.471  0.0312 -0.4528  0.5568
 9967TIP3   OH251391   0.656   1.841  16.579  0.5839 -0.0057 -0.0051
 9967TIP3    H151392   0.629   1.889  16.658 -1.0205  0.6979 -0.9379
 9967TIP3    H251393   0.615   1.755  16.588 -0.7526  0.5419 -0.6963
 9968TIP3   OH251394   0.754   2.529  81.192  0.4175 -0.4001 -0.3263
 9968TIP3    H151395   0.832   2.574  81.162  0.0087  0.0847 -0.6847
 9968TIP3    H251396   0.717   2.587  81.259  0.0347 -0.3277 -0.5961
 9969TIP3   OH251397   1.652   0.182  28.610 -0.3060 -0.1622  0.0474
 9969TIP3    H151398   1.594   0.241  28.657 -0.6754 -1.0042  0.6866
 9969TIP3    H251399   1.710   0.147  28.678  0.4629  0.1125 -0.4662
 9970TIP3   OH251400   0.471   1.337 103.152 -0.3682 -0.2530  0.1025
 9970TIP3    H151401   0.559   1.366 103.129 -0.9181  1.1936 -0.2475
 9970TIP3    H251402   0.420   1.417 103.162 -2.1436 -1.0766 -1.6187
 9971TIP3   OH251403   1.147   0.735 111.068  0.3653 -0.2470  0.0991
 9971TIP3    H151404   1.052   0.726 111.076  0.1667  0.4716 -1.2445
 9971TIP3    H251405   1.180   0.720 111.157 -1.1819  1.7844  1.0906
 9972TIP3   OH251406   1.359   0.032  52.989  0.1351 -0.0585  0.4459
 9972TIP3    H151407   1.285   0.088  52.965  0.8119  0.1910 -1.2321
 9972TIP3    H251408   1.368   0.042  53.083 -1.5369  0.4355  0.5783
 9973TIP3   OH251409   2.354   0.645   0.077 -0.1634  0.2901 -0.1261
 9973TIP3    H151410   2.409   0.579   0.118  1.0203 -0.5677 -2.8541
 9973TIP3    H251411   2.409   0.724   0.075  0.2452 -0.0021 -1.0434
 9974TIP3   OH251412   0.952   1.910  53.555 -0.1262  0.1654  0.2181
 9974TIP3    H151413   0.936   1.844  53.487 -1.2424  0.4542  0.1730
 9974TIP3    H251414   0.998   1.862  53.624 -0.7356 -0.6243  0.0959
 9975TIP3   OH251415   1.485   1.702   0.331  0.9464  0.0663  0.0267
 9975TIP3    H151416   1.533   1.663   0.257  1.6000  0.9909 -0.0573
 9975TIP3    H251417   1.451   1.784   0.296 -0.2058 -0.2925  0.2720
 9976TIP3   OH251418   2.105   2.202  86.662 -0.1143 -0.1902  0.2389
 9976TIP3    H151419   2.105   2.117  86.706 -0.3797  0.0930  0.7896
 9976TIP3    H251420   2.038   2.193  86.594 -1.6156  0.2257  1.5951
 9977TIP3   OH251421   1.794   0.744  96.942 -0.5275 -0.1404 -0.2203
 9977TIP3    H151422   1.810   0.651  96.930 -1.5655 -0.2262 -1.0577
 9977TIP3    H251423   1.873   0.787  96.909 -0.9410 -0.6372 -1.9345
 9978TIP3   OH251424   1.380   0.752  23.702  0.1303 -0.6627 -0.0201
 9978TIP3    H151425   1.322   0.796  23.765 -1.2776 -2.0131 -0.2958
 9978TIP3    H251426   1.336   0.760  23.618  1.1059 -0.4357 -0.5274
 9979TIP3   OH251427   1.731   0.503   5.577 -0.5724  0.2682  0.3351
 9979TIP3    H151428   1.746   0.551   5.496 -0.5161  0.4325  0.4428
 9979TIP3    H251429   1.640   0.523   5.600 -0.7089 -0.0816  0.1123
 9980TIP3   OH251430   0.285   1.169 111.142 -0.2130 -0.1219  0.5286
 9980TIP3    H151431   0.364   1.207 111.182 -0.1427  0.1012  0.1823
 9980TIP3    H251432   0.225   1.243 111.133 -0.0134 -0.0544 -0.2986
 9981TIP3   OH251433   2.397   0.645  19.161 -0.5400  0.0987 -0.1457
 9981TIP3    H151434   2.348   0.722  19.190 -1.0511 -0.3493  0.1908
 9981TIP3    H251435   2.465   0.680  19.103 -0.1339  0.9004  0.7999
 9982TIP3   OH251436   1.990   0.494  94.807  0.1188  0.0299  0.2412
 9982TIP3    H151437   1.973   0.461  94.895 -0.9540  1.0757  0.4603
 9982TIP3    H251438   2.058   0.561  94.819  0.4016 -0.2485  0.1869
 9983TIP3   OH251439   0.264   0.311  68.979  0.2293 -0.0154  0.1293
 9983TIP3    H151440   0.249   0.299  68.885  1.9603  1.2537 -0.3642
 9983TIP3    H251441   0.337   0.251  68.999  0.1753  0.0581  0.5571
 9984TIP3   OH251442   0.109   0.907  21.038 -0.0733  0.3348 -0.5328
 9984TIP3    H151443   0.099   0.855  21.118 -1.7794 -0.6692 -1.3443
 9984TIP3    H251444   0.192   0.954  21.050  0.2413 -0.6090  1.3433
 9985TIP3   OH251445   0.254   1.761  77.926  0.1966  0.2754  0.2832
 9985TIP3    H151446   0.245   1.814  78.005 -1.0200  0.1295  0.2668
 9985TIP3    H251447   0.170   1.714  77.919  0.3010  0.2404 -1.0547
 9986TIP3   OH251448   1.877   1.120  35.911 -0.2504 -0.0993 -0.1289
 9986TIP3    H151449   1.798   1.116  35.857  0.1795 -0.2158 -0.7629
 9986TIP3    H251450   1.948   1.103  35.850  0.2793  0.1408  0.4124
 9987TIP3   OH251451   0.380   0.976  35.493 -0.2020  0.3039  0.5561
 9987TIP3    H151452   0.433   1.001  35.417  0.7287  0.2431  1.1629
 9987TIP3    H251453   0.313   1.043  35.498 -1.0046 -0.3146 -0.9903
 9988TIP3   OH251454   2.512   2.135   0.776  0.5353  0.1028 -0.2501
 9988TIP3    H151455   2.533   2.160   0.866  1.4383  0.4371 -0.5488
 9988TIP3    H251456   2.426   2.093   0.783  0.5087  0.2908  0.7386
 9989TIP3   OH251457   2.627   0.552  21.215 -0.2461 -0.3079  0.7576
 9989TIP3    H151458   2.629   0.646  21.235 -1.1180 -0.1869  0.3520
 9989TIP3    H251459   2.534   0.532  21.206 -0.0306 -1.0408  0.0690
 9990TIP3   OH251460   2.446   1.385 109.653 -0.0025  0.0585 -0.7836
 9990TIP3    H151461   2.401   1.417 109.732 -0.2536 -1.9787 -0.0443
 9990TIP3    H251462   2.375   1.364 109.592  0.1972  1.8055 -1.6834
 9991TIP3   OH251463   0.028   2.657  82.469 -0.0555  0.3453  0.4806
 9991TIP3    H151464   0.019   2.681  82.561 -1.4762 -2.7719  1.3138
 9991TIP3    H251465   0.114   2.615  82.463 -0.5592 -0.7532  0.7694
 9992TIP3   OH251466   0.484   0.347  96.276 -0.3693  0.1368  0.1625
 9992TIP3    H151467   0.501   0.285  96.346 -0.6440 -0.6133 -0.4209
 9992TIP3    H251468   0.412   0.308  96.226  0.6070  0.0614 -1.2355
 9993TIP3   OH251469   0.197   2.402  11.215  0.8035 -0.0219  0.4915
 9993TIP3    H151470   0.152   2.338  11.159 -0.1412  1.1230 -0.1174
 9993TIP3    H251471   0.231   2.350  11.288  1.2580 -1.4161 -0.6642
 9994TIP3   OH251472   1.375   1.025   5.220  0.2438  0.4492 -0.4333
 9994TIP3    H151473   1.296   0.972   5.236  0.3640  0.1595 -0.8031
 9994TIP3    H251474   1.410   0.993   5.138  0.6182  0.7467 -0.3947
 9995TIP3   OH251475   2.372   0.427   8.327  0.2481 -0.0151  0.1461
 9995TIP3    H151476   2.451   0.482   8.328 -0.5756  1.2161  0.9550
 9995TIP3    H251477   2.384   0.369   8.252  1.4773  0.8009 -0.3236
 9996TIP3   OH251478   2.487   0.237  22.360  0.0701 -0.4425 -0.1937
 9996TIP3    H151479   2.516   0.182  22.433  1.7972  1.1494  0.3926
 9996TIP3    H251480   2.534   0.204  22.284 -0.5558 -1.1142 -0.3060
 9997TIP3   OH251481   2.148   1.505  91.453 -0.0174 -0.4471 -0.3658
 9997TIP3    H151482   2.060   1.508  91.490  0.4495  0.3827  0.7216
 9997TIP3    H251483   2.139   1.543  91.366 -0.1965  2.7629  0.9302
 9998TIP3   OH251484   1.022   2.218 110.221 -0.3570  0.0306 -0.0626
 9998TIP3    H151485   0.953   2.201 110.285 -0.0847  1.4882  0.6391
 9998TIP3    H251486   1.078   2.140 110.224 -1.6347 -0.9329 -0.2510
 9999TIP3   OH251487   1.539   2.458  89.505  0.3873  0.4506 -0.0185
 9999TIP3    H151488   1.569   2.446  89.595  1.2869  0.1826 -0.3453
 9999TIP3    H251489   1.595   2.401  89.453 -1.3903 -0.9133 -0.5588
10000TIP3   OH251490   2.322   2.153  91.363 -0.5484 -0.6616 -0.5914
10000TIP3    H151491   2.243   2.206  91.354 -0.3293 -0.2698 -0.2105
10000TIP3    H251492   2.384   2.190  91.299 -0.5430 -0.7400 -0.6313
10001TIP3   OH251493   0.254   2.378  12.725  0.2191 -0.3432  0.2294
10001TIP3    H151494   0.276   2.470  12.715 -0.6484 -0.2069 -0.7661
10001TIP3    H251495   0.322   2.331  12.676 -0.0958 -0.1251 -0.4328
10002TIP3   OH251496   1.673   2.029  48.352 -0.0477 -0.0879 -0.1522
10002TIP3    H151497   1.728   2.038  48.274 -0.6906 -0.3633 -0.6463
10002TIP3    H251498   1.631   1.944  48.342 -0.3548 -0.0003  0.3575
10003TIP3   OH251499   0.935   2.668 109.334 -0.4195  0.3656 -0.2337
10003TIP3    H151500   0.841   2.660 109.320 -0.1309 -0.5891 -1.9564
10003TIP3    H251501   0.970   2.581 109.313  0.8314  0.6391  0.5972
10004TIP3   OH251502   0.114   2.533   4.243 -0.2881 -0.4110  0.0992
10004TIP3    H151503   0.149   2.592   4.309  1.0028  2.3445 -2.7874
10004TIP3    H251504   0.039   2.580   4.206  0.5344 -0.6938 -2.0248
10005TIP3   OH251505   1.424   2.546  81.183  0.4497  0.5948 -0.2701
10005TIP3    H151506   1.509   2.573  81.149  0.6689  1.0225  0.5826
10005TIP3    H251507   1.387   2.490  81.115  1.7693 -0.2712 -0.3149
10006TIP3   OH251508   2.341   1.708  23.386  0.0320 -0.2281 -0.4824
10006TIP3    H151509   2.277   1.775  23.410  1.0023  1.0647 -1.3263
10006TIP3    H251510   2.338   1.644  23.457 -0.4223  1.0832  0.7229
10007TIP3   OH251511   1.563   0.878 111.919 -0.5227 -0.2633  0.0881
10007TIP3    H151512   1.655   0.877 111.896 -0.9262 -1.4202 -1.6988
10007TIP3    H251513   1.544   0.788 111.948 -1.0141  0.0464  0.7573
10008TIP3   OH251514   1.897   0.043  21.237 -0.0932 -0.3112  0.0046
10008TIP3    H151515   1.892   0.033  21.142 -1.0476 -0.0791  0.0179
10008TIP3    H251516   1.969   0.104  21.250  0.2648 -0.6052 -0.5508
10009TIP3   OH251517   0.209   2.088  88.826  0.0725  0.4942  0.1374
10009TIP3    H151518   0.219   2.160  88.889  0.5211  0.5665 -0.0145
10009TIP3    H251519   0.131   2.042  88.855  0.3999  0.3952  0.8840
10010TIP3   OH251520   0.115   0.024   6.639 -0.3231 -0.8137 -0.5281
10010TIP3    H151521   0.179  -0.046   6.630  1.8538  1.0536 -0.4359
10010TIP3    H251522   0.085   0.018   6.730  0.8524 -0.8200 -0.1305
10011TIP3   OH251523   0.842   1.234  88.413 -0.2393  0.2489 -0.4312
10011TIP3    H151524   0.898   1.226  88.336 -0.8081 -1.9013 -0.6755
10011TIP3    H251525   0.790   1.313  88.396  0.9320  0.8673 -1.3525
10012TIP3   OH251526   0.864   1.569  10.739  0.0309  0.1443 -0.5562
10012TIP3    H151527   0.881   1.634  10.807 -0.0152  0.4995 -0.8799
10012TIP3    H251528   0.936   1.507  10.746 -1.2598 -1.2531  1.4730
10013TIP3   OH251529   0.405   0.517 109.708 -0.1550 -0.5162  0.0967
10013TIP3    H151530   0.489   0.488 109.745  0.5329 -0.5956 -1.4400
10013TIP3    H251531   0.362   0.437 109.679 -0.0408 -0.3602 -0.5361
10014TIP3   OH251532   1.276   0.843   3.745 -0.3894  0.4551 -0.4094
10014TIP3    H151533   1.181   0.836   3.750 -0.3738  0.6313  0.4631
10014TIP3    H251534   1.303   0.859   3.836  0.5876 -0.9914 -0.4120
10015TIP3   OH251535   1.146   0.447 101.957 -0.0374 -0.0052 -0.4043
10015TIP3    H151536   1.065   0.396 101.957 -1.5141  2.1982 -0.1194
10015TIP3    H251537   1.147   0.490 101.872  0.5417  0.4163 -0.1901
10016TIP3   OH251538   0.436   2.084  26.576 -0.1566  0.2219  0.1151
10016TIP3    H151539   0.452   2.119  26.489 -0.0140  0.0427  0.0685
10016TIP3    H251540   0.351   2.041  26.569 -0.8372  1.4764  0.4513
10017TIP3   OH251541   0.934   0.649 106.647  0.4486 -0.0539 -0.0857
10017TIP3    H151542   0.891   0.700 106.715  0.3322  0.2463 -0.3843
10017TIP3    H251543   0.901   0.685 106.564 -1.3756 -2.0579 -0.3223
10018TIP3   OH251544   0.396   0.719  77.570  0.1436  0.5007 -0.2517
10018TIP3    H151545   0.339   0.788  77.604 -0.2209 -0.1907  0.5909
10018TIP3    H251546   0.362   0.639  77.609  1.3173 -0.0074 -0.2249
10019TIP3   OH251547   0.200   1.504 112.026  0.1230  0.3767  0.1912
10019TIP3    H151548   0.259   1.467 112.092  0.9487  0.3820 -0.5295
10019TIP3    H251549   0.252   1.572 111.983  0.3028 -0.9636 -1.8188
10020TIP3   OH251550   2.672   1.817  15.126  0.2602  0.4068  0.0936
10020TIP3    H151551   2.631   1.829  15.212  2.0470  0.0366  1.0431
10020TIP3    H251552   2.723   1.737  15.135  1.4508  1.0309 -0.9096
10021TIP3   OH251553   1.507   2.282  92.338 -0.2790 -0.3049 -0.1948
10021TIP3    H151554   1.443   2.212  92.321  1.3422 -1.3637 -2.5481
10021TIP3    H251555   1.477   2.323  92.419 -2.8439 -1.9556 -0.1901
10022TIP3   OH251556   1.157   2.584   4.210  0.2453 -0.0390  0.2839
10022TIP3    H151557   1.221   2.616   4.147 -0.5919  0.4289 -0.3449
10022TIP3    H251558   1.075   2.576   4.160 -0.6330  1.1083  1.4782
10023TIP3   OH251559   0.539   1.617  19.849 -0.2625 -0.0294  0.7244
10023TIP3    H151560   0.629   1.612  19.816 -0.4226  0.0915  0.2543
10023TIP3    H251561   0.498   1.686  19.796 -0.7080 -0.2781  0.7397
10024TIP3   OH251562   0.857   0.605   8.233 -0.0055 -0.4981  0.0209
10024TIP3    H151563   0.783   0.655   8.198 -0.0469 -0.0824  0.6904
10024TIP3    H251564   0.892   0.660   8.304  0.8192 -0.7831 -0.1565
10025TIP3   OH251565   1.189   2.175  87.482 -0.0636 -0.5208  0.1917
10025TIP3    H151566   1.135   2.240  87.436 -0.1499 -0.2335  0.6936
10025TIP3    H251567   1.229   2.124  87.412 -0.2726 -0.1521 -0.2030
10026TIP3   OH251568   1.658   1.970   3.024  0.0825  0.2092 -0.1651
10026TIP3    H151569   1.716   1.905   2.983 -0.1488  0.4938 -0.9532
10026TIP3    H251570   1.667   1.953   3.118 -0.3481 -1.2957 -0.3656
10027TIP3   OH251571   0.262   1.873  19.896  0.3683 -0.2320 -0.6878
10027TIP3    H151572   0.266   1.787  19.938 -0.7320 -0.3571 -0.8122
10027TIP3    H251573   0.268   1.854  19.803  0.7611 -0.1164 -0.6874
10028TIP3   OH251574   2.454   0.164  93.547  0.4096 -0.5355 -0.0073
10028TIP3    H151575   2.454   0.246  93.498 -0.0367 -0.4638  0.1044
10028TIP3    H251576   2.524   0.174  93.612 -1.3594  0.8679  1.8274
10029TIP3   OH251577   1.743   2.464  83.936 -0.7045 -0.0664 -0.1171
10029TIP3    H151578   1.729   2.537  83.996 -1.6360  0.4419 -0.9216
10029TIP3    H251579   1.813   2.413  83.977 -0.1870  1.1453  0.5857
10030TIP3   OH251580   0.577   2.533  88.286  0.6062 -0.5833  0.2166
10030TIP3    H151581   0.619   2.468  88.230 -0.2451 -0.8789 -0.0938
10030TIP3    H251582   0.548   2.601  88.226 -1.6299 -1.5924  0.0484
10031TIP3   OH251583   1.637   1.060  18.246  0.6649  0.8862 -0.3226
10031TIP3    H151584   1.679   1.101  18.321  0.6201 -1.5520  1.1527
10031TIP3    H251585   1.548   1.042  18.275  0.8795 -0.8243 -0.5858
10032TIP3   OH251586   0.255   0.640  80.918  0.2296 -0.4204 -0.2452
10032TIP3    H151587   0.193   0.703  80.954  2.3766  1.1554  0.8821
10032TIP3    H251588   0.288   0.592  80.994 -0.7057 -2.3457 -0.9883
10033TIP3   OH251589   0.529   2.123  19.791  0.0540 -0.3401 -0.2374
10033TIP3    H151590   0.541   2.213  19.820  2.5483 -0.6591 -0.0827
10033TIP3    H251591   0.511   2.074  19.871 -0.6350 -0.1200 -0.2423
10034TIP3   OH251592   1.908   0.936   0.956 -0.1800  0.4187  0.5138
10034TIP3    H151593   1.937   0.975   0.873 -0.3876 -0.8803 -0.2051
10034TIP3    H251594   1.888   1.010   1.012  1.1331  1.3409 -0.1860
10035TIP3   OH251595   0.683   2.408  78.338 -0.1532  0.3766  0.3173
10035TIP3    H151596   0.633   2.417  78.418 -1.5076 -1.0891 -0.3085
10035TIP3    H251597   0.758   2.467  78.349 -2.4100  3.3326  0.9523
10036TIP3   OH251598   0.457   1.093  25.243  0.0711  0.1757 -0.8540
10036TIP3    H151599   0.403   1.061  25.170 -1.8342 -0.1514  0.6118
10036TIP3    H251600   0.394   1.133  25.303  1.5934  0.5425  0.5682
10037TIP3   OH251601   2.336   0.754  12.880  0.2266  0.2117  0.3721
10037TIP3    H151602   2.264   0.726  12.824  1.1074 -0.5970 -0.3726
10037TIP3    H251603   2.401   0.685  12.874  0.4951  0.2406  2.1656
10038TIP3   OH251604   0.020   2.321  80.249 -0.2658 -0.6147 -0.5233
10038TIP3    H151605  -0.055   2.362  80.292  0.2118  0.9099 -1.0793
10038TIP3    H251606  -0.007   2.230  80.236 -1.1382 -0.6725  1.2931
10039TIP3   OH251607   2.387   1.613  18.333  0.3532  0.1203 -0.3893
10039TIP3    H151608   2.454   1.589  18.270  0.8055  0.9950 -0.2627
10039TIP3    H251609   2.419   1.695  18.372 -0.8580  0.6348 -0.4381
10040TIP3   OH251610   1.674   2.345  37.953 -0.2070  0.6990  0.2220
10040TIP3    H151611   1.676   2.336  38.048 -1.1160  2.4937  0.4552
10040TIP3    H251612   1.581   2.343  37.931 -0.0030  0.3082 -0.6358
10041TIP3   OH251613   1.790   0.619  87.430 -0.0261 -0.3100 -0.2505
10041TIP3    H151614   1.780   0.714  87.419 -1.2541 -0.2936  0.7520
10041TIP3    H251615   1.744   0.600  87.512  0.1967 -1.7842 -0.4466
10042TIP3   OH251616   1.840   0.326   9.490  0.4015 -0.1899 -0.7801
10042TIP3    H151617   1.904   0.275   9.440  0.7125 -0.4374 -0.1348
10042TIP3    H251618   1.883   0.410   9.505  1.2686 -0.9077  1.0615
10043TIP3   OH251619   2.574   2.585  16.530 -0.0695 -0.2996  0.8409
10043TIP3    H151620   2.540   2.530  16.459 -0.4078  1.7848 -0.7087
10043TIP3    H251621   2.602   2.523  16.598 -1.1220 -2.3143 -0.4810
10044TIP3   OH251622   1.656   2.143  82.069  0.1634  0.0722  0.2392
10044TIP3    H151623   1.652   2.117  81.977  0.3620 -2.7000  0.9301
10044TIP3    H251624   1.736   2.102  82.102  1.0460  2.4420  1.3170
10045TIP3   OH251625   2.423   2.516  34.034 -0.2033  0.6860  0.3124
10045TIP3    H151626   2.511   2.516  33.997 -0.7732 -0.0539 -1.1214
10045TIP3    H251627   2.434   2.480  34.122  0.7666 -0.7180 -0.3354
10046TIP3   OH251628   1.186   1.301 101.167 -0.1820  0.1114  0.2372
10046TIP3    H151629   1.187   1.292 101.262  0.3821 -0.7905  0.1584
10046TIP3    H251630   1.213   1.392 101.151 -0.9098  0.4628  0.9460
10047TIP3   OH251631   0.097   1.402   8.584  0.2105  0.0474 -0.1908
10047TIP3    H151632   0.148   1.323   8.568  0.2923  0.3514 -1.6214
10047TIP3    H251633   0.147   1.451   8.649  0.3941 -0.8540  0.3561
10048TIP3   OH251634   0.781   0.588   3.778 -0.1909  0.1199  0.5134
10048TIP3    H151635   0.850   0.596   3.712 -0.5481  1.5103  0.2651
10048TIP3    H251636   0.730   0.669   3.769  0.2003  0.7458  3.0061
10049TIP3   OH251637   1.562   1.009  58.946  0.2549  0.7640  0.2437
10049TIP3    H151638   1.566   0.932  59.002 -2.0823 -0.1286 -0.6733
10049TIP3    H251639   1.480   0.999  58.897  0.2019  3.4927 -0.4176
10050TIP3   OH251640   1.768   2.208  89.858  0.1949 -0.1773 -0.4198
10050TIP3    H151641   1.832   2.149  89.818  0.2065  0.7597 -1.8599
10050TIP3    H251642   1.798   2.296  89.833 -1.0044  0.3306 -0.1417
10051TIP3   OH251643   2.282   1.674  76.449 -0.4546 -0.7072 -0.3416
10051TIP3    H151644   2.281   1.691  76.355  0.1908  1.3917 -0.0079
10051TIP3    H251645   2.373   1.652  76.469 -0.6033 -1.2178 -0.2050
10052TIP3   OH251646   1.205   0.334  80.984 -0.5799  0.1041 -0.5387
10052TIP3    H151647   1.224   0.286  81.064 -0.0796 -0.1889 -0.8310
10052TIP3    H251648   1.191   0.425  81.013  0.8397  0.2491 -0.2496
10053TIP3   OH251649   0.975   1.098  77.187 -0.5899 -0.4079  0.1465
10053TIP3    H151650   0.917   1.068  77.258  0.1462 -0.2555  0.8284
10053TIP3    H251651   1.017   1.176  77.223 -0.0518 -0.4483 -0.3859
10054TIP3   OH251652   2.133   1.471  77.945  0.0322 -0.0549 -0.1481
10054TIP3    H151653   2.109   1.500  77.857 -0.6777 -0.4765 -0.1043
10054TIP3    H251654   2.058   1.495  77.999  0.1705 -0.4325  0.2162
10055TIP3   OH251655   0.232   2.252   6.971  0.0805  0.4220  0.6185
10055TIP3    H151656   0.297   2.202   6.922 -0.0943 -0.0117  0.8217
10055TIP3    H251657   0.283   2.295   7.040  0.2611  0.6914  0.3234
10056TIP3   OH251658   0.368   2.377  33.851  0.0850  0.3994 -0.5470
10056TIP3    H151659   0.462   2.393  33.844  0.1025  0.1300 -0.9788
10056TIP3    H251660   0.353   2.300  33.795 -0.2212 -0.1844  0.3206
10057TIP3   OH251661   1.127   0.158  74.201  0.2014 -0.1059  0.1327
10057TIP3    H151662   1.174   0.076  74.217  0.8423  0.1095 -0.5877
10057TIP3    H251663   1.121   0.163  74.106  0.0233  0.6137  0.1824
10058TIP3   OH251664   1.428   0.671   5.826 -0.5107 -0.0027 -0.1984
10058TIP3    H151665   1.442   0.765   5.833  1.2045 -0.2202 -0.3194
10058TIP3    H251666   1.345   0.655   5.872  0.1588  1.3015  1.5579
10059TIP3   OH251667   1.333   0.378  19.304  0.7590  0.5145 -0.2260
10059TIP3    H151668   1.362   0.449  19.362  0.9508  0.0631  0.2417
10059TIP3    H251669   1.372   0.299  19.342  0.4134  0.1377 -0.6454
10060TIP3   OH251670   1.706   2.649   4.354  0.1008 -0.0582  0.3131
10060TIP3    H151671   1.643   2.616   4.418  0.2867  0.1796  0.6187
10060TIP3    H251672   1.730   2.572   4.302 -1.9197  0.1811 -1.0933
10061TIP3   OH251673   0.816   0.843 100.458 -0.4372 -0.1744  0.6832
10061TIP3    H151674   0.883   0.894 100.412 -0.7538 -1.3488 -1.2365
10061TIP3    H251675   0.750   0.907 100.484 -0.2607  0.5651 -0.5967
10062TIP3   OH251676   1.035   0.843  57.504 -0.9431 -0.0013 -0.1267
10062TIP3    H151677   0.955   0.825  57.553 -0.4426  2.3931  1.7417
10062TIP3    H251678   1.010   0.910  57.440 -0.2941  1.6309  1.2376
10063TIP3   OH251679   2.536   1.907  16.342  0.3206  0.0242  0.4566
10063TIP3    H151680   2.520   1.840  16.275 -1.2875 -0.4474  1.2517
10063TIP3    H251681   2.552   1.987  16.293  1.2933 -0.7212 -0.5018
10064TIP3   OH251682   0.473   1.655  15.194  0.3939  0.1642 -0.3314
10064TIP3    H151683   0.393   1.708  15.195  1.1474  1.3902 -1.4904
10064TIP3    H251684   0.442   1.566  15.177 -0.7527  0.5881 -0.5874
10065TIP3   OH251685   0.020   2.128   4.057 -0.5500 -0.2636 -0.2796
10065TIP3    H151686   0.010   2.138   3.962  0.5844 -2.3452 -0.6822
10065TIP3    H251687  -0.038   2.055   4.080  0.7280 -1.1691  0.2228
10066TIP3   OH251688   1.002   0.717 111.944 -0.2568  0.1616 -0.5019
10066TIP3    H151689   1.075   0.656 111.954 -0.3293  0.2586  0.8599
10066TIP3    H251690   0.926   0.661 111.927 -0.3804 -0.2008  1.0494
10067TIP3   OH251691   2.511   1.258  97.003 -0.0657 -0.1269 -0.4870
10067TIP3    H151692   2.546   1.346  96.988  0.2079 -0.1776 -0.1533
10067TIP3    H251693   2.423   1.273  97.037  0.3490  0.0475  0.5532
10068TIP3   OH251694   1.272   2.143   3.578 -0.4480  0.5050 -0.2756
10068TIP3    H151695   1.286   2.052   3.603  0.1244  0.8138  0.5531
10068TIP3    H251696   1.177   2.150   3.565 -0.6808  0.1384  1.0714
10069TIP3   OH251697   2.565   1.763  82.100 -0.1784  0.3346  0.7714
10069TIP3    H151698   2.522   1.817  82.033 -0.1455 -0.7422 -0.1441
10069TIP3    H251699   2.508   1.772  82.177 -2.3743 -1.3683 -0.5184
10070TIP3   OH251700   0.454   0.176  20.514  0.0478  0.0350 -0.1386
10070TIP3    H151701   0.389   0.162  20.583 -0.8602 -0.0413 -0.9809
10070TIP3    H251702   0.403   0.206  20.439  0.9902 -0.0570 -0.8356
10071TIP3   OH251703   2.308   2.195  93.729 -0.3208  0.0506 -0.0078
10071TIP3    H151704   2.243   2.132  93.759  0.1139 -0.7332 -0.6667
10071TIP3    H251705   2.321   2.255  93.802 -2.6168  0.9133 -0.2315
10072TIP3   OH251706   1.826   0.599 111.222  0.0214  0.8514 -0.2435
10072TIP3    H151707   1.787   0.558 111.299 -0.1913  0.0676 -0.7634
10072TIP3    H251708   1.752   0.615 111.164  0.4443 -0.7055 -1.2652
10073TIP3   OH251709   1.599   2.463 111.160 -0.4938 -0.1894  0.0430
10073TIP3    H151710   1.537   2.390 111.155 -1.3295  0.4435  0.6893
10073TIP3    H251711   1.603   2.497 111.071 -0.7050 -0.5304 -0.1000
10074TIP3   OH251712   0.123   0.891   1.908  0.4022  0.2534 -0.7680
10074TIP3    H151713   0.194   0.911   1.845  0.2682 -1.5101 -1.5441
10074TIP3    H251714   0.161   0.827   1.967 -0.4516 -0.4668 -0.9888
10075TIP3   OH251715   2.568   0.893  14.484  0.0714  0.8196 -0.2266
10075TIP3    H151716   2.505   0.821  14.473 -0.0140  0.9031 -0.2809
10075TIP3    H251717   2.518   0.961  14.529  0.0104  1.0430 -0.6343
10076TIP3   OH251718   2.229   1.326  78.459 -0.4335 -0.1864  0.1609
10076TIP3    H151719   2.241   1.368  78.374  1.6294  0.2824  0.6280
10076TIP3    H251720   2.224   1.399  78.521 -0.7472 -0.5531  0.5731
10077TIP3   OH251721   0.935   0.592  33.990  0.5072 -0.0971 -0.4215
10077TIP3    H151722   0.990   0.516  34.009  1.9169  0.6792 -1.2558
10077TIP3    H251723   0.898   0.574  33.903 -1.2477 -0.9687  0.4465
10078TIP3   OH251724   1.692   1.122  37.429  0.3189 -0.4049  0.3929
10078TIP3    H151725   1.683   1.187  37.359  0.0505 -1.3616 -0.4909
10078TIP3    H251726   1.738   1.168  37.499  1.9734  0.1962 -0.9929
10079TIP3   OH251727   2.097   0.191  11.509 -1.1975 -0.0642 -0.7036
10079TIP3    H151728   2.184   0.197  11.550 -1.1757 -1.2702 -0.5174
10079TIP3    H251729   2.053   0.272  11.534 -0.7615 -0.2260  0.7319
10080TIP3   OH251730   2.248   1.235  29.940 -0.3276 -0.0970  0.0064
10080TIP3    H151731   2.184   1.164  29.945 -0.1755 -0.1469  1.9307
10080TIP3    H251732   2.205   1.308  29.985 -0.4502  1.0561 -1.8502
10081TIP3   OH251733   2.169   0.641  35.876  0.0333 -0.3290  0.4467
10081TIP3    H151734   2.228   0.682  35.812 -1.1295 -1.0807 -1.1900
10081TIP3    H251735   2.112   0.585  35.823 -0.4918 -1.5865  2.2621
10082TIP3   OH251736   0.761   0.356 100.069  0.0752 -0.1038  0.7490
10082TIP3    H151737   0.673   0.394 100.071 -0.2058 -0.6853  0.1078
10082TIP3    H251738   0.774   0.322 100.157 -0.0513  0.6211  1.0578
10083TIP3   OH251739   2.445   2.595  80.785 -0.3205  0.3736  0.1478
10083TIP3    H151740   2.375   2.545  80.744 -0.7059  1.4234 -0.4962
10083TIP3    H251741   2.524   2.567  80.738 -0.5558  0.4786 -0.3127
10084TIP3   OH251742   2.224   0.964  94.974  0.4780 -0.5061 -0.3545
10084TIP3    H151743   2.169   1.001  94.905 -1.8354 -1.8619  0.6254
10084TIP3    H251744   2.275   0.896  94.931  0.2171 -0.2979 -0.9990
10085TIP3   OH251745   0.805   0.019  84.851 -0.6514  0.6484  0.0413
10085TIP3    H151746   0.734  -0.038  84.881 -0.6795  1.1332  0.9320
10085TIP3    H251747   0.882  -0.011  84.900 -0.4554  0.7580 -0.1953
10086TIP3   OH251748   0.837   1.214  82.945 -0.1453 -0.2185  0.2531
10086TIP3    H151749   0.765   1.252  82.896  0.8182 -0.1347 -1.1412
10086TIP3    H251750   0.879   1.288  82.988  0.1952 -0.0221 -0.4056
10087TIP3   OH251751   2.244   2.005  85.922 -0.6807  0.1427 -0.2222
10087TIP3    H151752   2.196   1.927  85.949 -0.4167 -0.2796 -0.9464
10087TIP3    H251753   2.309   2.018  85.991  0.6366 -1.5001 -1.0392
10088TIP3   OH251754   0.548   1.360  95.268  0.0141  0.1129 -0.4909
10088TIP3    H151755   0.634   1.337  95.303 -0.5867 -0.6641  0.5425
10088TIP3    H251756   0.528   1.445  95.306  0.1838  0.1454 -0.4718
10089TIP3   OH251757   1.053   0.082  96.813  0.2227 -0.4670 -0.6572
10089TIP3    H151758   1.040   0.172  96.782  0.0316 -1.0136 -2.2671
10089TIP3    H251759   1.084   0.092  96.903  0.8902  1.2291 -1.0321
10090TIP3   OH251760   1.055   1.837  84.451  0.8303 -0.3382 -0.4501
10090TIP3    H151761   1.051   1.742  84.461 -0.4010 -0.2359  0.3068
10090TIP3    H251762   1.080   1.868  84.538 -1.3938  0.1385  0.0808
10091TIP3   OH251763   2.415   1.115  33.978  0.1830  0.1667  0.3637
10091TIP3    H151764   2.429   1.020  33.978 -2.8170 -0.3719  0.4311
10091TIP3    H251765   2.503   1.152  33.987  1.5089 -2.5686 -0.1614
10092TIP3   OH251766   2.267   1.929   3.846  0.3156 -0.2662  0.0681
10092TIP3    H151767   2.285   1.961   3.934 -1.1570  0.1615  0.2369
10092TIP3    H251768   2.344   1.954   3.795  0.4802  0.9340  0.8665
10093TIP3   OH251769   2.382   1.410  17.415 -0.4562 -0.2201  0.4554
10093TIP3    H151770   2.314   1.359  17.369 -0.1246 -0.7912  0.5893
10093TIP3    H251771   2.342   1.495  17.429 -1.2803 -0.6568  0.8416
10094TIP3   OH251772   1.763   1.593   8.924  0.1796  0.1568 -0.0725
10094TIP3    H151773   1.675   1.606   8.959 -0.3809 -1.2472 -0.8770
10094TIP3    H251774   1.806   1.535   8.988 -0.1093 -0.6406 -0.5923
10095TIP3   OH251775   2.160   2.546 107.218  0.0567 -0.3887  0.0414
10095TIP3    H151776   2.127   2.503 107.296  0.3852 -3.0678 -1.1689
10095TIP3    H251777   2.098   2.523 107.149  1.9985 -1.8908 -1.3502
10096TIP3   OH251778   2.585   0.877 103.536 -0.1346 -0.0729 -0.6525
10096TIP3    H151779   2.671   0.904 103.568 -0.2249  0.1770 -0.6105
10096TIP3    H251780   2.523   0.928 103.589 -0.3057 -0.2843 -0.6460
10097TIP3   OH251781   1.238   2.565  33.281  0.0293 -0.0116  0.3403
10097TIP3    H151782   1.306   2.512  33.239  0.5601 -0.2805  1.4816
10097TIP3    H251783   1.245   2.651  33.239  0.9442 -0.0957  0.3023
10098TIP3   OH251784   0.524   1.019  91.688  0.1931 -0.0044 -0.4360
10098TIP3    H151785   0.484   1.105  91.676 -0.7176 -0.3070  0.2495
10098TIP3    H251786   0.497   0.968  91.611 -1.0505 -0.3002  0.1681
10099TIP3   OH251787   0.801   0.091 111.848 -0.0840 -0.1603  0.0189
10099TIP3    H151788   0.754   0.024 111.798  0.4831 -0.3297 -0.2985
10099TIP3    H251789   0.886   0.097 111.805 -0.2055  0.9287 -0.0895
10100TIP3   OH251790   2.405   1.873  91.998  0.1329 -0.5760  0.1993
10100TIP3    H151791   2.460   1.830  92.064  1.5811 -0.2707 -0.7649
10100TIP3    H251792   2.466   1.927  91.948 -1.1106 -0.0090 -0.7386
10101TIP3   OH251793   1.672   1.756  80.492  0.2585  0.1028  0.2012
10101TIP3    H151794   1.587   1.776  80.453 -0.1694 -0.8652  0.5824
10101TIP3    H251795   1.690   1.829  80.550 -1.8788 -1.0840  2.5923
10102TIP3   OH251796   1.365   0.899  80.339 -0.2333 -0.7214  0.2014
10102TIP3    H151797   1.456   0.868  80.340 -0.5083 -1.5522  0.5286
10102TIP3    H251798   1.334   0.878  80.251  1.0887  3.2980 -1.4426
10103TIP3   OH251799   2.646   0.148  33.350 -0.4491 -0.5917 -0.0203
10103TIP3    H151800   2.698   0.214  33.304 -0.1835  0.4911  1.7480
10103TIP3    H251801   2.558   0.159  33.315  0.0719 -1.0429 -1.5595
10104TIP3   OH251802   1.790   0.059  38.231 -0.5121 -0.4144  0.5197
10104TIP3    H151803   1.799  -0.025  38.185 -0.1829  0.9605 -2.1142
10104TIP3    H251804   1.700   0.087  38.212  0.4686  1.4726 -1.8337
10105TIP3   OH251805   2.591   0.456 109.344  0.0598 -0.1975  0.0445
10105TIP3    H151806   2.534   0.383 109.368  0.0231  0.1234  0.9798
10105TIP3    H251807   2.662   0.454 109.407  1.0808 -0.5574 -1.0853
10106TIP3   OH251808   2.490   0.975  22.267 -0.0484  0.1940 -0.3178
10106TIP3    H151809   2.483   0.928  22.185  1.1989 -1.5065  0.4816
10106TIP3    H251810   2.582   1.000  22.273 -0.3400  1.2295  0.0806
10107TIP3   OH251811   0.482   0.653  84.989  0.0413  0.1262  0.9793
10107TIP3    H151812   0.519   0.738  84.965 -0.2176  0.3606  1.3989
10107TIP3    H251813   0.522   0.591  84.928  1.1585  0.3625  1.4624
10108TIP3   OH251814   1.042   2.032  32.116  0.2373 -0.5556  0.8470
10108TIP3    H151815   0.977   2.074  32.060  0.6319  0.5820  1.2250
10108TIP3    H251816   0.994   1.961  32.159 -0.1706 -1.2062 -0.6086
10109TIP3   OH251817   1.833   0.116   9.056  0.4136 -0.3879 -0.0484
10109TIP3    H151818   1.830   0.025   9.028  1.1290 -0.9591  1.6041
10109TIP3    H251819   1.829   0.112   9.151  0.3403  1.3230  0.0530
10110TIP3   OH251820   0.348   1.223 108.861 -0.0229  0.5378 -0.2197
10110TIP3    H151821   0.314   1.310 108.841  1.7214  1.1258 -0.7771
10110TIP3    H251822   0.405   1.202 108.788 -1.2801 -1.6009 -0.6746
10111TIP3   OH251823   1.070   0.097   9.686 -0.0523 -0.5177 -0.1131
10111TIP3    H151824   1.038   0.164   9.747  0.9612 -1.6918  1.8116
10111TIP3    H251825   0.991   0.058   9.650 -0.6847  1.9590 -1.6870
10112TIP3   OH251826   0.534   2.076  21.070 -0.0672  0.0854  0.6252
10112TIP3    H151827   0.482   2.147  21.107  1.5308  0.0762  3.1645
10112TIP3    H251828   0.588   2.117  21.003 -0.2455  0.9660  1.0105
10113TIP3   OH251829   0.679   1.312  96.000  0.3084  0.5775  0.2175
10113TIP3    H151830   0.763   1.276  96.030 -0.2036 -0.0018  1.0075
10113TIP3    H251831   0.621   1.235  95.993 -0.1818  0.9803 -0.2178
10114TIP3   OH251832   0.813   0.530  75.604 -0.6265 -0.4559 -0.0351
10114TIP3    H151833   0.723   0.559  75.588 -1.4657 -1.1085  2.8743
10114TIP3    H251834   0.860   0.610  75.630 -1.2217 -0.5594  1.4691
10115TIP3   OH251835   0.638   1.916  93.463 -0.1837  0.5149  0.4236
10115TIP3    H151836   0.573   1.867  93.513 -0.8647  0.0834 -0.8563
10115TIP3    H251837   0.593   1.995  93.434  0.0670  0.5468  0.1062
10116TIP3   OH251838   1.582   2.144  83.666  0.0722  0.6738 -0.0041
10116TIP3    H151839   1.637   2.197  83.607 -1.4927  0.8825 -1.3270
10116TIP3    H251840   1.543   2.208  83.726  0.0489  0.7251 -0.0722
10117TIP3   OH251841   2.460   0.653  76.587 -0.1297  0.0558  0.4066
10117TIP3    H151842   2.454   0.678  76.495  3.2829  1.6515  0.4702
10117TIP3    H251843   2.400   0.711  76.633  0.5315  1.5078 -0.5145
10118TIP3   OH251844   2.188   2.656  33.684  0.0022  0.2442  0.3225
10118TIP3    H151845   2.247   2.732  33.689  0.7974 -0.2525 -1.0694
10118TIP3    H251846   2.209   2.604  33.762  0.9094  0.4369  0.2171
10119TIP3   OH251847   1.663   1.402  86.121 -0.0907  0.4779 -0.7576
10119TIP3    H151848   1.697   1.390  86.033 -2.2290 -1.9243 -1.3974
10119TIP3    H251849   1.698   1.328  86.171 -0.2024  0.8946 -0.0517
10120TIP3   OH251850   1.124   1.311 108.462 -0.1075  0.0626  0.3349
10120TIP3    H151851   1.137   1.290 108.369  0.3274 -0.0662  0.4238
10120TIP3    H251852   1.212   1.307 108.500 -0.3107 -0.0914  0.8012
10121TIP3   OH251853   1.544   2.354  19.967  0.5336 -0.0597  0.0702
10121TIP3    H151854   1.593   2.406  19.903  1.5004  0.9147  1.5508
10121TIP3    H251855   1.497   2.419  20.020 -0.1212 -0.8363  0.4697
10122TIP3   OH251856   2.099   2.155  74.085 -0.1166 -0.3513 -0.1312
10122TIP3    H151857   2.076   2.157  74.178  0.6457 -0.3754  0.0615
10122TIP3    H251858   2.123   2.245  74.064 -0.2692 -0.3492 -0.3080
10123TIP3   OH251859   0.811   0.636  21.001 -0.1201 -0.3733  0.5042
10123TIP3    H151860   0.818   0.562  21.061  1.6394 -1.2665 -0.7243
10123TIP3    H251861   0.897   0.642  20.959 -0.9506  0.8802 -1.1642
10124TIP3   OH251862   1.964   1.683  28.911 -0.0840  0.4362  0.4835
10124TIP3    H151863   1.991   1.684  28.820 -0.0440  2.7438  0.4681
10124TIP3    H251864   2.045   1.689  28.961  0.0504 -2.6277  0.8101
10125TIP3   OH251865   0.103   2.487  86.706  0.6784  0.3821  0.2198
10125TIP3    H151866   0.175   2.425  86.712  1.6692  1.5312  0.5010
10125TIP3    H251867   0.103   2.516  86.615  0.8016  0.6452  0.3048
10126TIP3   OH251868   1.963   0.339  75.005  0.2677  0.2200  0.2961
10126TIP3    H151869   2.018   0.321  74.929  1.1602  1.6620  0.5554
10126TIP3    H251870   1.964   0.434  75.014  0.0069  0.1003  1.9742
10127TIP3   OH251871   1.743   1.620  10.254  0.0015  0.1095 -0.0041
10127TIP3    H151872   1.700   1.541  10.287  0.0683  0.3455  0.6594
10127TIP3    H251873   1.836   1.602  10.260  0.1342  1.1775  2.6605
10128TIP3   OH251874   1.338   1.704  33.577  0.4557  0.0134 -0.0420
10128TIP3    H151875   1.270   1.671  33.635 -1.1137  2.6749 -0.2431
10128TIP3    H251876   1.419   1.695  33.627 -0.4045 -0.6577  1.2830
10129TIP3   OH251877   1.026   1.712  96.348  0.1299 -0.3637  0.3616
10129TIP3    H151878   1.062   1.657  96.278 -1.3735 -0.3911 -0.4261
10129TIP3    H251879   1.006   1.650  96.419 -1.4520 -0.8867 -0.4812
10130TIP3   OH251880   0.707   2.306  88.146  0.0461  0.0549 -0.0577
10130TIP3    H151881   0.725   2.250  88.221 -0.8421 -0.4180 -0.1804
10130TIP3    H251882   0.694   2.245  88.073 -3.6412  0.1681  0.3427
10131TIP3   OH251883   1.265   2.292  77.354  0.3747  0.1089  0.1554
10131TIP3    H151884   1.190   2.234  77.368 -0.4999  1.2224  0.2661
10131TIP3    H251885   1.313   2.289  77.436 -1.8231  2.4938  1.7008
10132TIP3   OH251886   1.961   0.654  11.804  0.1157  0.4210  0.1986
10132TIP3    H151887   1.928   0.574  11.846  0.6978 -0.9254 -1.7694
10132TIP3    H251888   1.891   0.681  11.745  0.5482  0.4301 -0.3189
10133TIP3   OH251889   0.736   2.217  29.342 -0.1653 -0.1017 -0.2847
10133TIP3    H151890   0.776   2.250  29.423 -1.6180  1.3355 -0.1096
10133TIP3    H251891   0.642   2.226  29.356 -0.5138 -1.3930 -1.5174
10134TIP3   OH251892   0.735   0.512  96.255 -0.3868  0.1229  0.2563
10134TIP3    H151893   0.665   0.451  96.234 -0.7966  0.6430  0.1001
10134TIP3    H251894   0.809   0.456  96.280 -0.2448 -0.4851 -1.3935
10135TIP3   OH251895   1.668   0.798  79.563 -1.2610  0.4407 -0.3437
10135TIP3    H151896   1.742   0.830  79.510  0.2785  1.5307  2.2565
10135TIP3    H251897   1.600   0.863  79.551 -0.4177  1.4245  0.0403
10136TIP3   OH251898   1.136   1.635  35.467  0.4215 -0.1833  0.5240
10136TIP3    H151899   1.067   1.584  35.509 -0.0590 -0.7765 -0.9234
10136TIP3    H251900   1.102   1.724  35.463 -0.4903 -0.5541 -0.5834
10137TIP3   OH251901   0.804   1.549  87.256 -0.4338 -0.4995 -0.0957
10137TIP3    H151902   0.823   1.455  87.257 -0.9423 -0.6060  0.7429
10137TIP3    H251903   0.761   1.565  87.340  0.2270  0.6028  0.0458
10138TIP3   OH251904   2.342   0.313   7.178 -0.0694  0.2383  0.2244
10138TIP3    H151905   2.340   0.222   7.148  1.6232  0.2334  0.0561
10138TIP3    H251906   2.359   0.364   7.099 -1.7548  0.8089  0.1830
10139TIP3   OH251907   0.334   2.655  11.322  0.1181  0.1370  0.0524
10139TIP3    H151908   0.252   2.693  11.352  0.4466  0.6158  0.3455
10139TIP3    H251909   0.321   2.642  11.228  0.1468  1.3762 -0.1406
10140TIP3   OH251910   1.018   1.963  75.990  0.4772  0.5904  0.4640
10140TIP3    H151911   1.080   1.959  76.063  2.0658  1.7282 -0.7463
10140TIP3    H251912   1.048   1.895  75.930  0.1537  0.7357  0.1401
10141TIP3   OH251913   2.539   0.374  15.536 -0.1171  0.5059 -0.3034
10141TIP3    H151914   2.495   0.434  15.597 -1.7447 -1.4942  0.6253
10141TIP3    H251915   2.476   0.360  15.466 -0.1096 -0.6893 -0.0979
10142TIP3   OH251916   2.374   1.308   1.713 -0.0376  0.3798 -0.5001
10142TIP3    H151917   2.461   1.269   1.715 -0.4324 -0.5655 -0.7901
10142TIP3    H251918   2.315   1.235   1.731 -0.6875  1.4262  2.0217
10143TIP3   OH251919   0.811   2.581  24.158  0.1884 -0.0658  0.3539
10143TIP3    H151920   0.800   2.489  24.183 -1.1547 -0.3060 -1.0457
10143TIP3    H251921   0.795   2.583  24.064 -1.9202  1.9186  0.6708
10144TIP3   OH251922   2.510   1.296  27.073  0.3113 -0.1151  0.2633
10144TIP3    H151923   2.513   1.286  27.168  0.0427  0.6903  0.3607
10144TIP3    H251924   2.543   1.384  27.057 -1.2682  0.3998 -0.2722
10145TIP3   OH251925   2.415   0.873  91.351 -0.9238 -0.0532  0.2829
10145TIP3    H151926   2.353   0.945  91.342  0.1234  0.9009  0.3922
10145TIP3    H251927   2.501   0.915  91.351 -0.2043 -1.4051 -0.9132
10146TIP3   OH251928   1.295   0.023  10.017  0.1000  0.4553  0.1276
10146TIP3    H151929   1.317   0.106  10.058 -0.2346  0.0363  1.1760
10146TIP3    H251930   1.379  -0.020  10.004  0.1777  0.4216  0.7403
10147TIP3   OH251931   1.993   0.947   5.952 -0.4248  0.5716  0.3788
10147TIP3    H151932   1.989   0.943   5.856  1.0132  0.6047  0.3033
10147TIP3    H251933   1.909   0.911   5.980 -0.1374 -1.2581 -0.8673
10148TIP3   OH251934   0.947   2.142  91.723 -0.5275 -0.3127  0.0672
10148TIP3    H151935   0.879   2.205  91.698 -0.8668 -1.0152 -0.8029
10148TIP3    H251936   0.900   2.059  91.735  0.0410 -0.5921  0.3989
10149TIP3   OH251937   0.916   1.828  87.673  0.5163  0.2790  0.9574
10149TIP3    H151938   0.923   1.732  87.670 -0.4731  0.2075  0.5171
10149TIP3    H251939   0.966   1.858  87.597  0.8385  0.1203  1.1036
10150TIP3   OH251940   1.562   2.155  10.207  0.1312 -0.0136 -0.1645
10150TIP3    H151941   1.590   2.106  10.285  1.6392  1.1424  0.0814
10150TIP3    H251942   1.619   2.123  10.137  0.9863  1.1799 -0.0459
10151TIP3   OH251943   1.070   0.854  99.373 -0.3718  0.5350  0.4020
10151TIP3    H151944   1.079   0.801  99.294 -0.5849 -2.1383  2.0668
10151TIP3    H251945   0.983   0.892  99.367 -0.4630  0.1911 -0.5298
10152TIP3   OH251946   2.598   0.267  13.029  0.0208  0.4688  0.2663
10152TIP3    H151947   2.642   0.257  13.113 -0.9431  0.5302  0.8009
10152TIP3    H251948   2.504   0.267  13.051 -0.2994 -0.6520 -0.9097
10153TIP3   OH251949   1.693   0.997   5.613 -0.0726 -0.1401  0.3552
10153TIP3    H151950   1.714   1.081   5.655 -0.2816 -0.4639  1.1344
10153TIP3    H251951   1.777   0.962   5.585  0.2696 -0.6025  1.8505
10154TIP3   OH251952   2.559   0.733   4.178 -0.0281 -0.0805  0.3720
10154TIP3    H151953   2.523   0.689   4.255 -1.3762  0.2337 -0.0379
10154TIP3    H251954   2.534   0.677   4.104  0.7770 -0.1064  0.1131
10155TIP3   OH251955   0.011   0.241 107.631 -0.7084  0.1540  0.0303
10155TIP3    H151956   0.012   0.146 107.643 -1.3250  0.1658  0.2050
10155TIP3    H251957  -0.081   0.266 107.644 -0.5760  0.7552 -0.1569
10156TIP3   OH251958   1.962   0.834  85.479 -0.0930  0.1680  0.4177
10156TIP3    H151959   1.985   0.812  85.389  2.8950  1.5607  0.7119
10156TIP3    H251960   1.998   0.761  85.531 -1.1032 -0.2389  0.5574
10157TIP3   OH251961   1.827   1.264  96.997 -0.1909  0.4218 -0.0791
10157TIP3    H151962   1.902   1.231  96.948 -0.7539 -0.9548 -0.0354
10157TIP3    H251963   1.866   1.320  97.064  0.7331  0.4559 -0.6271
10158TIP3   OH251964   0.894   1.472  11.802  0.3909  0.3659 -0.4097
10158TIP3    H151965   0.862   1.399  11.855  0.7899  0.0950 -0.5440
10158TIP3    H251966   0.824   1.537  11.808 -0.3652 -0.3701 -1.0137
10159TIP3   OH251967   1.086   1.146  27.630 -0.3349 -0.2170 -0.1734
10159TIP3    H151968   1.114   1.187  27.712  0.4389  0.8527 -0.9333
10159TIP3    H251969   1.166   1.142  27.578 -1.2822  1.7011 -1.9244
10160TIP3   OH251970   1.390   0.053  11.815 -0.1623 -0.2552 -0.3492
10160TIP3    H151971   1.405  -0.042  11.817  1.0357 -0.0924  0.9845
10160TIP3    H251972   1.300   0.064  11.844 -0.3132 -0.9931 -0.5206
10161TIP3   OH251973   1.244   0.074  32.708  0.1234 -0.2509  0.1103
10161TIP3    H151974   1.287   0.055  32.624  1.4393 -0.0177  0.6981
10161TIP3    H251975   1.299   0.143  32.747  0.9509 -2.0035  2.2051
10162TIP3   OH251976   2.446   0.153  74.218 -0.1024 -0.0650 -0.3515
10162TIP3    H151977   2.444   0.125  74.127 -1.4877 -0.2152 -0.3059
10162TIP3    H251978   2.489   0.239  74.216 -0.0522 -0.0999 -1.1353
10163TIP3   OH251979   2.645   0.182 106.546 -0.0828 -0.1914 -0.2019
10163TIP3    H151980   2.593   0.116 106.499  0.2039 -1.1375  0.7502
10163TIP3    H251981   2.728   0.184 106.500 -0.4485  0.2622 -0.8516
10164TIP3   OH251982   0.044   1.566  11.113 -0.5697  0.2081 -0.2818
10164TIP3    H151983   0.085   1.549  11.028 -0.6444  0.2847 -0.3339
10164TIP3    H251984  -0.011   1.643  11.098  1.6354  2.0588  0.5519
10165TIP3   OH251985   1.453   1.917  81.948  0.4611  0.1628  0.3472
10165TIP3    H151986   1.543   1.921  81.915  0.4559 -1.3380  0.0735
10165TIP3    H251987   1.462   1.929  82.042  0.7441  1.8786  0.1248
10166TIP3   OH251988   2.383   0.224  44.084  0.0659  1.0857  0.1730
10166TIP3    H151989   2.356   0.189  43.999  0.9137 -0.1567  0.3999
10166TIP3    H251990   2.449   0.163  44.115 -1.8734  0.1336  2.8090
10167TIP3   OH251991   0.954   1.469  17.090  0.3073  0.0200  0.5003
10167TIP3    H151992   1.048   1.471  17.071  0.1740 -0.2499 -0.1885
10167TIP3    H251993   0.921   1.551  17.053  0.0912 -0.3816 -0.1895
10168TIP3   OH251994   2.428   1.717  95.587  0.5462 -0.5289 -0.4339
10168TIP3    H151995   2.368   1.755  95.522  0.6478 -1.3747 -1.0376
10168TIP3    H251996   2.506   1.695  95.537  0.9716 -0.3679  0.1567
10169TIP3   OH251997   1.118   2.363  53.296  0.5487  0.6141 -0.8317
10169TIP3    H151998   1.193   2.422  53.294  0.0976  1.5317  2.7716
10169TIP3    H251999   1.156   2.275  53.304  1.4406  1.1795  2.7269
10170TIP3   OH252000   1.034   0.939  27.893  0.0763  0.2603  0.1248
10170TIP3    H152001   1.042   0.929  27.798 -0.8402  1.0314 -0.0489
10170TIP3    H252002   0.955   0.991  27.905  0.5980  0.8144  1.2884
10171TIP3   OH252003   2.229   2.241  30.305 -0.0008 -0.0880 -0.3743
10171TIP3    H152004   2.293   2.219  30.236 -0.2694 -0.9417 -0.3647
10171TIP3    H252005   2.258   2.191  30.381 -0.7367 -0.5636 -0.4016
10172TIP3   OH252006   0.372   0.215  19.275  0.1906  0.5960  0.5309
10172TIP3    H152007   0.388   0.208  19.181 -1.0948  0.5606  0.3039
10172TIP3    H252008   0.282   0.186  19.287  0.1018  1.2672  1.6843
10173TIP3   OH252009   1.946   1.134  13.674  0.7533 -0.1805  0.2818
10173TIP3    H152010   1.944   1.159  13.766  2.4619 -0.0752  0.3096
10173TIP3    H252011   1.859   1.157  13.642 -0.4402 -1.6396  2.2043
10174TIP3   OH252012   0.755   0.315  51.160 -0.5105  0.6666 -0.0918
10174TIP3    H152013   0.820   0.382  51.139  0.7066  0.6360  3.0106
10174TIP3    H252014   0.802   0.233  51.152 -1.5240  0.2312 -2.2099
10175TIP3   OH252015   1.003   1.673  25.769 -0.3905  0.3293  0.1761
10175TIP3    H152016   0.979   1.607  25.704  0.8309  1.4967 -1.5282
10175TIP3    H252017   1.085   1.641  25.807 -1.1047 -0.3535  1.2076
10176TIP3   OH252018   0.025   1.049  89.418  0.3205 -0.5243 -0.0637
10176TIP3    H152019  -0.014   1.126  89.458 -1.0078 -1.5316  0.6679
10176TIP3    H252020   0.064   1.081  89.337  2.7642  1.5104  1.7405
10177TIP3   OH252021   0.477   0.875  89.763 -0.1625 -0.0785  0.1400
10177TIP3    H152022   0.437   0.817  89.698  0.8470 -0.3247 -0.2833
10177TIP3    H252023   0.468   0.963  89.725 -1.7336  0.0948  0.7956
10178TIP3   OH252024   1.663   0.566  62.697  0.2815  0.6675  0.7101
10178TIP3    H152025   1.608   0.489  62.710  0.2235  0.9849  2.5851
10178TIP3    H252026   1.612   0.638  62.735 -0.1213  1.8724 -1.8773
10179TIP3   OH252027   0.249   2.411 101.079  0.1452  0.0207 -0.1853
10179TIP3    H152028   0.309   2.484 101.093  1.8196 -1.5723  1.6968
10179TIP3    H252029   0.283   2.367 101.001 -1.6561  1.8725 -2.1354
10180TIP3   OH252030   0.445   0.147   2.595 -0.0281  0.7130  0.2922
10180TIP3    H152031   0.404   0.214   2.541 -1.3565 -1.0124 -0.9492
10180TIP3    H252032   0.429   0.065   2.548  0.3736 -0.6469  2.4035
10181TIP3   OH252033   1.449   0.452  80.532  0.4562 -0.3841 -0.5136
10181TIP3    H152034   1.527   0.503  80.508 -1.0470  1.7377 -1.2109
10181TIP3    H252035   1.477   0.361  80.526  2.0083  0.1446 -4.2613
10182TIP3   OH252036   0.202   1.679  20.539 -0.2941 -0.0969 -0.2960
10182TIP3    H152037   0.279   1.683  20.595  0.7220  0.7877 -1.6971
10182TIP3    H252038   0.148   1.753  20.567  0.3560  0.5280 -0.6859
10183TIP3   OH252039   2.564   1.051  36.392 -0.1283 -0.3077  0.2559
10183TIP3    H152040   2.475   1.083  36.378  0.0172 -0.4036 -1.0875
10183TIP3    H252041   2.620   1.120  36.356  0.4278  0.4264  2.4184
10184TIP3   OH252042   1.651   2.339  18.337 -0.8585 -0.7129 -0.0918
10184TIP3    H152043   1.617   2.371  18.253 -2.5758  0.2225  0.8960
10184TIP3    H252044   1.581   2.286  18.373 -1.2710  1.0178  1.8877
10185TIP3   OH252045   0.555   2.483   6.964  0.3930  0.2068 -0.0351
10185TIP3    H152046   0.524   2.422   6.897  2.1864  0.1418 -0.8616
10185TIP3    H252047   0.565   2.429   7.042  1.0910 -0.3807 -0.5156
10186TIP3   OH252048   0.214   0.704  89.582 -0.0473  0.3130 -0.7548
10186TIP3    H152049   0.245   0.615  89.596 -1.2676 -0.0004  0.1331
10186TIP3    H252050   0.249   0.729  89.497  4.7875  0.9718  1.0997
10187TIP3   OH252051   2.606   1.353  90.542  0.6243 -0.1970  0.1740
10187TIP3    H152052   2.684   1.299  90.551  1.2646  0.8825  1.5612
10187TIP3    H252053   2.623   1.409  90.466  0.7798 -0.6118 -0.1010
10188TIP3   OH252054   1.007   2.179 104.734 -0.2784  0.2433 -0.4399
10188TIP3    H152055   1.072   2.246 104.714 -0.7689  0.6456 -0.7016
10188TIP3    H252056   0.993   2.187 104.829  2.9105 -2.4462  0.4435
10189TIP3   OH252057   0.706   0.020  31.093 -0.2051  0.1157  0.0824
10189TIP3    H152058   0.704   0.111  31.123  0.5239  0.2653 -0.3074
10189TIP3    H252059   0.728  -0.031  31.171  0.8990  0.4258 -0.0118
10190TIP3   OH252060   0.061   1.437  36.834  0.1635  0.1254 -0.1798
10190TIP3    H152061   0.055   1.467  36.924  1.8872 -0.4440  0.1530
10190TIP3    H252062   0.019   1.351  36.835  1.5268 -0.5605  0.4464
10191TIP3   OH252063   1.668   0.516  26.333  0.0291  0.5151  0.3993
10191TIP3    H152064   1.612   0.593  26.341  0.4583  0.7869  0.8901
10191TIP3    H252065   1.733   0.540  26.267 -0.7011  0.0192 -0.5328
10192TIP3   OH252066   1.246   2.021  24.941  0.1490  0.5121 -0.0462
10192TIP3    H152067   1.190   2.095  24.917  0.7467  1.0528  0.1968
10192TIP3    H252068   1.229   1.955  24.873  0.0740  1.1146 -0.6222
10193TIP3   OH252069   0.658   1.431  87.023  0.1443 -0.3539 -0.1287
10193TIP3    H152070   0.752   1.413  87.033  0.6824  1.9049 -0.6925
10193TIP3    H252071   0.629   1.367  86.958  1.9008  0.5413 -1.9050
10194TIP3   OH252072   1.284   2.118  10.156 -0.5577 -0.1124  0.1854
10194TIP3    H152073   1.270   2.176  10.081 -0.5280 -0.5249 -0.1451
10194TIP3    H252074   1.378   2.123  10.173 -0.4016 -0.7551 -0.4255
10195TIP3   OH252075   0.351   2.145  98.342 -0.6000 -0.0420 -0.3511
10195TIP3    H152076   0.417   2.132  98.274 -1.2578 -1.2289 -0.8048
10195TIP3    H252077   0.312   2.058  98.354 -3.9178  1.0399 -2.0453
10196TIP3   OH252078   2.585   0.512  97.089 -0.4654 -0.2763  0.5759
10196TIP3    H152079   2.597   0.417  97.092 -0.0320 -0.2546 -0.2098
10196TIP3    H252080   2.610   0.537  97.000 -0.8966  0.5351  0.6693
10197TIP3   OH252081   2.063   1.533   8.484  0.5589  0.0283  0.0202
10197TIP3    H152082   2.009   1.555   8.560  2.5034  0.7648  1.2531
10197TIP3    H252083   2.085   1.441   8.496  1.0144  0.1918  0.4509
10198TIP3   OH252084   0.862   1.036  96.808  0.4272 -0.7656  0.0835
10198TIP3    H152085   0.883   0.978  96.881  2.3562  0.0848  0.2726
10198TIP3    H252086   0.853   1.122  96.848 -0.2085 -0.5677 -0.4730
10199TIP3   OH252087   2.394   2.348  75.809  0.5699  1.2469 -0.0849
10199TIP3    H152088   2.302   2.333  75.832  1.1681  1.2029  2.5559
10199TIP3    H252089   2.419   2.271  75.758 -0.5311  0.6946  0.1873
10200TIP3   OH252090   1.700   1.209  91.996 -0.2028 -0.0508  0.0681
10200TIP3    H152091   1.713   1.302  91.980  0.4010 -0.0684  0.4141
10200TIP3    H252092   1.785   1.169  91.973 -0.0340 -0.3477  1.1589
10201TIP3   OH252093   0.614   1.480 102.777 -0.5014 -0.1791  0.3704
10201TIP3    H152094   0.528   1.489 102.819  0.0277 -2.8081  2.2506
10201TIP3    H252095   0.676   1.510 102.843  0.1581 -0.6110 -0.0385
10202TIP3   OH252096   0.663   1.866 104.993 -0.3036 -0.2429  0.3395
10202TIP3    H152097   0.625   1.781 104.969 -0.8208  0.1489 -0.2566
10202TIP3    H252098   0.596   1.930 104.968  1.2337  0.5798 -1.9253
10203TIP3   OH252099   1.994   2.184  95.045  0.6238  0.2127  0.2554
10203TIP3    H152100   1.907   2.171  95.007  1.2521 -0.3380 -1.0589
10203TIP3    H252101   2.021   2.097  95.075  1.4298  0.0122 -0.9747
10204TIP3   OH252102   0.963   1.860  24.297  0.0464 -0.3554  0.6032
10204TIP3    H152103   0.963   1.955  24.305  0.0845 -0.3842  0.9460
10204TIP3    H252104   0.903   1.842  24.224  1.2782  0.0235 -0.5535
10205TIP3   OH252105   1.294   0.691  74.761  0.2849 -0.1784  0.1570
10205TIP3    H152106   1.291   0.628  74.689 -1.5824  0.4064 -0.3388
10205TIP3    H252107   1.277   0.776  74.719  1.0977  0.4410  1.0423
10206TIP3   OH252108   1.882   1.986  22.933 -0.2567 -0.4646  0.0631
10206TIP3    H152109   1.961   1.969  22.985  2.4493  4.3999 -1.7739
10206TIP3    H252110   1.902   1.949  22.847  0.3587  1.2571 -0.5642
10207TIP3   OH252111   0.319   1.437   7.834  0.0145  0.0853 -0.3788
10207TIP3    H152112   0.267   1.476   7.905 -1.0878 -0.6079 -0.7670
10207TIP3    H252113   0.291   1.485   7.756  0.5066  0.1913 -0.4891
10208TIP3   OH252114   0.306   0.392  81.599  0.4510 -0.1667 -0.1425
10208TIP3    H152115   0.347   0.407  81.685  1.5498  0.8306 -0.8181
10208TIP3    H252116   0.279   0.300  81.603 -0.1675  0.0388  1.5291
10209TIP3   OH252117   0.491   0.285  92.523 -0.0807 -0.9252  0.5705
10209TIP3    H152118   0.574   0.314  92.560 -0.5761  0.4504  0.6646
10209TIP3    H252119   0.499   0.302  92.429  0.0366 -1.5272  0.4688
10210TIP3   OH252120   0.579   2.405  90.060  0.1937 -0.1471  0.6209
10210TIP3    H152121   0.667   2.403  90.023  0.8169  1.9411  1.8261
10210TIP3    H252122   0.588   2.360  90.145  0.0850 -0.0114  0.7019
10211TIP3   OH252123   2.080   1.645  36.149 -0.4659 -0.4186 -0.4407
10211TIP3    H152124   2.083   1.632  36.244  0.0757 -0.9659 -0.5238
10211TIP3    H252125   2.000   1.695  36.134  0.0861  0.7936  0.4481
10212TIP3   OH252126   2.563   1.599  85.588  0.2851 -0.8210 -0.2660
10212TIP3    H152127   2.606   1.522  85.551  0.2188 -0.3426 -1.3858
10212TIP3    H252128   2.493   1.619  85.526  1.3967  1.1702 -0.9785
10213TIP3   OH252129   0.577   0.529  92.120 -0.4206  0.2205 -0.4367
10213TIP3    H152130   0.521   0.602  92.091 -0.4098 -0.0802 -1.2623
10213TIP3    H252131   0.592   0.545  92.213 -1.5070  0.5473 -0.3137
10214TIP3   OH252132   0.813   0.072  36.951  0.0444  0.1480 -0.6147
10214TIP3    H152133   0.858   0.016  36.889 -0.3086 -2.1252  1.0529
10214TIP3    H252134   0.866   0.152  36.953  2.7864 -1.5104 -0.4145
10215TIP3   OH252135   1.133   1.880   5.556 -0.7456 -0.1835 -0.3220
10215TIP3    H152136   1.102   1.819   5.489 -0.5922  1.0340 -1.5360
10215TIP3    H252137   1.217   1.912   5.524 -0.2910 -0.1538  0.8363
10216TIP3   OH252138   1.525   1.316  80.649 -0.1000 -0.1571 -0.6823
10216TIP3    H152139   1.568   1.348  80.728 -0.4583  0.0348 -0.5589
10216TIP3    H252140   1.584   1.249  80.615 -1.2439 -2.3467  1.3296
10217TIP3   OH252141   2.410   2.473  11.905 -0.2025  0.1541 -0.4939
10217TIP3    H152142   2.421   2.466  12.000 -0.9786 -1.3411 -0.4768
10217TIP3    H252143   2.483   2.423  11.868  0.0125  0.6058 -0.6853
10218TIP3   OH252144   1.333   2.552 103.730 -0.7178  0.7484 -0.0079
10218TIP3    H152145   1.362   2.495 103.801 -0.4641  0.9325  0.0415
10218TIP3    H252146   1.244   2.577 103.754 -0.8025  0.4315  0.0068
10219TIP3   OH252147   2.327   0.991  17.295  0.1331  0.2320 -0.5221
10219TIP3    H152148   2.418   1.002  17.321  0.0109 -1.7976  1.0767
10219TIP3    H252149   2.280   1.060  17.342  0.5788 -0.2186  0.6233
10220TIP3   OH252150   1.381   0.539   6.999 -0.2471 -0.6165 -0.0792
10220TIP3    H152151   1.314   0.594   7.040  0.5574  1.6308 -1.6058
10220TIP3    H252152   1.332   0.468   6.958 -1.3893 -0.6872  1.3179
10221TIP3   OH252153   0.446   1.866  95.431 -0.9988  0.1246  0.0561
10221TIP3    H152154   0.467   1.796  95.493 -0.0569  1.2855  1.1038
10221TIP3    H252155   0.526   1.919  95.428 -1.2582  0.4479 -1.6873
10222TIP3   OH252156   1.774   1.828   8.006 -0.0738  0.5655 -0.2074
10222TIP3    H152157   1.864   1.860   8.003  0.5959 -1.2530 -0.1896
10222TIP3    H252158   1.736   1.875   8.081  1.1582  0.5943  0.4383
10223TIP3   OH252159   1.949   1.131  27.347 -0.0030  0.5000 -0.7069
10223TIP3    H152160   1.944   1.038  27.369 -1.9146  0.4917 -1.0775
10223TIP3    H252161   2.043   1.147  27.336  0.3316 -1.5145 -1.2019
10224TIP3   OH252162   1.234   2.487  32.042 -0.7369 -0.1011  0.0489
10224TIP3    H152163   1.157   2.539  32.066  0.0677  1.0240  0.2432
10224TIP3    H252164   1.207   2.442  31.961 -0.8881  2.0124 -1.1586
10225TIP3   OH252165   0.008   1.503   4.406  0.0151 -0.0228 -0.1483
10225TIP3    H152166   0.062   1.432   4.440  0.6108 -0.3450 -1.6910
10225TIP3    H252167   0.068   1.558   4.356 -0.6042  1.0861  0.2825
10226TIP3   OH252168   2.458   2.497 102.716  0.2364 -0.3087 -0.8556
10226TIP3    H152169   2.529   2.433 102.723  1.9138  1.6068  1.7336
10226TIP3    H252170   2.503   2.581 102.714 -1.9623  0.9021 -1.2787
10227TIP3   OH252171   0.548   2.442 100.450 -0.1284 -0.4398  0.1792
10227TIP3    H152172   0.566   2.498 100.526  0.4467 -0.0745 -0.2128
10227TIP3    H252173   0.462   2.405 100.467 -0.2650  0.1083  0.7311
10228TIP3   OH252174   1.901   2.658  90.778 -0.5798 -0.0691 -0.3152
10228TIP3    H152175   1.879   2.627  90.690  0.3894  0.5646 -0.7893
10228TIP3    H252176   1.891   2.580  90.833 -2.6077 -0.1347 -0.7161
10229TIP3   OH252177   2.357   0.239  24.678 -0.6161  0.6256  0.0837
10229TIP3    H152178   2.290   0.200  24.622 -0.1713 -0.1006  0.0502
10229TIP3    H252179   2.438   0.195  24.653 -0.2447  0.9831  0.6292
10230TIP3   OH252180   1.313   1.094  27.465 -0.1598  0.4435  0.1580
10230TIP3    H152181   1.404   1.116  27.450  0.3734 -0.9672  1.1022
10230TIP3    H252182   1.279   1.068  27.380  1.0334 -1.3728  0.1823
10231TIP3   OH252183   2.671   2.157   5.277 -0.1038  0.1952 -0.5950
10231TIP3    H152184   2.724   2.237   5.281 -1.8604  1.3826  0.7674
10231TIP3    H252185   2.623   2.165   5.195  1.8404 -0.9730 -1.9244
10232TIP3   OH252186   0.142   1.152  35.883  0.6273 -0.4237  0.7160
10232TIP3    H152187   0.079   1.087  35.850  0.7922 -0.2213 -0.0008
10232TIP3    H252188   0.225   1.105  35.885  0.6483 -0.3873  0.6900
10233TIP3   OH252189   1.261   1.118  15.296 -0.2456 -0.0498 -0.0717
10233TIP3    H152190   1.336   1.139  15.353 -0.1332  1.4170 -0.7121
10233TIP3    H252191   1.298   1.064  15.226 -0.5310 -2.5744  1.6001
10234TIP3   OH252192   1.224   1.641  86.763 -0.3820  0.3937  0.3268
10234TIP3    H152193   1.292   1.668  86.825 -0.6530 -0.0641  0.8336
10234TIP3    H252194   1.145   1.687  86.794 -0.9974 -1.3635  1.5654
10235TIP3   OH252195   0.348   1.124   8.517 -0.1210 -0.1596  0.3844
10235TIP3    H152196   0.353   1.203   8.464  0.1936 -0.4579 -0.0421
10235TIP3    H252197   0.440   1.104   8.539 -0.0646 -1.1057 -0.5825
10236TIP3   OH252198   2.422   0.715  31.510 -0.1850 -0.1565  0.0795
10236TIP3    H152199   2.484   0.657  31.467  0.3270  1.2534 -1.1609
10236TIP3    H252200   2.452   0.719  31.601 -0.3730 -1.9493  0.2653
10237TIP3   OH252201   0.749   1.790  81.257 -0.1501  0.1305  0.7692
10237TIP3    H152202   0.794   1.874  81.251 -0.3060  0.1435 -0.2845
10237TIP3    H252203   0.814   1.725  81.231 -0.2650 -0.0016  0.8072
10238TIP3   OH252204   0.019   1.849  37.816 -0.2613 -0.5438  0.3820
10238TIP3    H152205  -0.057   1.909  37.814  0.2295  0.0854  0.2260
10238TIP3    H252206   0.095   1.907  37.811  0.2213 -1.2105 -0.0778
10239TIP3   OH252207   0.469   2.162   8.111 -0.0922 -0.3093  0.1321
10239TIP3    H152208   0.545   2.127   8.064 -0.7497 -1.3053 -0.2113
10239TIP3    H252209   0.398   2.160   8.047 -0.2369  1.4014  0.1843
10240TIP3   OH252210   0.406   1.598  36.110  0.0414  0.2934  0.0692
10240TIP3    H152211   0.443   1.544  36.040  0.1124 -0.3509  0.5920
10240TIP3    H252212   0.353   1.538  36.161 -0.3246  0.8428  0.3425
10241TIP3   OH252213   2.583   0.581  13.532  0.2107 -0.3377  0.2123
10241TIP3    H152214   2.594   0.621  13.618 -0.9346 -1.5695  0.9602
10241TIP3    H252215   2.520   0.636  13.487  2.4772  1.6440 -0.7767
10242TIP3   OH252216   0.625   0.519  85.761 -0.2818 -0.4001 -0.6695
10242TIP3    H152217   0.597   0.465  85.688 -1.6604  0.1380 -0.5808
10242TIP3    H252218   0.608   0.465  85.839  0.3854 -0.6500 -0.6928
10243TIP3   OH252219   2.453   1.726  84.557 -0.5713 -0.0894 -0.1869
10243TIP3    H152220   2.453   1.820  84.573 -0.2525 -0.1505  0.2121
10243TIP3    H252221   2.412   1.688  84.635 -0.2790 -0.3043 -0.1332
10244TIP3   OH252222   0.493   2.624  75.167 -0.1088 -0.6534  0.7582
10244TIP3    H152223   0.404   2.601  75.143  0.0673 -1.4216  0.8024
10244TIP3    H252224   0.534   2.540  75.188 -0.1470 -0.0932  3.3902
10245TIP3   OH252225   0.230   0.166  14.704 -0.5838 -0.3846  0.2865
10245TIP3    H152226   0.322   0.168  14.728 -0.6912 -0.4576  0.7111
10245TIP3    H252227   0.183   0.188  14.784 -0.8982  0.8319 -0.1982
10246TIP3   OH252228   1.402   1.453  15.484  0.3264  0.4044  0.5395
10246TIP3    H152229   1.450   1.371  15.493  1.5599  1.0882  0.3455
10246TIP3    H252230   1.390   1.483  15.574  0.7780  0.5201  0.5628
10247TIP3   OH252231   0.035   0.950   0.265 -0.3338  0.5927  0.0622
10247TIP3    H152232  -0.009   0.880   0.312  0.1121  0.7060  0.6601
10247TIP3    H252233   0.083   0.999   0.333 -0.9765  1.7336 -0.2803
10248TIP3   OH252234   1.482   2.635  63.702 -0.0354  0.7187 -0.2826
10248TIP3    H152235   1.500   2.543  63.680  2.6466  0.5792  1.9811
10248TIP3    H252236   1.394   2.651  63.667 -0.7415 -2.7814 -0.5043
10249TIP3   OH252237   2.669   1.437  97.488 -0.8779 -0.0685 -0.1538
10249TIP3    H152238   2.586   1.483  97.493 -0.4455  0.6619  0.5325
10249TIP3    H252239   2.646   1.347  97.464 -1.9752 -0.2153  1.3742
10250TIP3   OH252240   0.486   0.491  30.047 -0.3251  0.4046  0.1703
10250TIP3    H152241   0.417   0.433  30.076  0.2908 -0.0303  0.7996
10250TIP3    H252242   0.546   0.435  29.998  1.2658  0.0587  2.3840
10251TIP3   OH252243   1.436   2.233  88.626 -0.1651  0.3843  0.2731
10251TIP3    H152244   1.472   2.161  88.677  2.0341  0.7570 -0.6775
10251TIP3    H252245   1.482   2.311  88.657 -1.0217  1.0861 -0.1579
10252TIP3   OH252246   0.704   0.978  38.135  0.1195 -0.5823  0.3569
10252TIP3    H152247   0.703   0.889  38.101 -0.7231 -0.8848  1.1258
10252TIP3    H252248   0.712   0.968  38.230  0.7603  0.1794  0.3945
10253TIP3   OH252249   0.295   2.127  22.103 -0.1920  0.2224 -0.0400
10253TIP3    H152250   0.226   2.065  22.127 -1.0589  0.4904 -1.7194
10253TIP3    H252251   0.372   2.095  22.149 -0.5173 -2.3771 -1.1059
10254TIP3   OH252252   1.728   0.876  22.826 -0.0899 -0.6401  0.0543
10254TIP3    H152253   1.764   0.800  22.779  0.0820 -0.0527 -0.7767
10254TIP3    H252254   1.775   0.877  22.909  0.5004 -0.9535 -0.2733
10255TIP3   OH252255   2.623   0.307  67.104 -0.3053  0.4168  0.0038
10255TIP3    H152256   2.633   0.386  67.157  1.3888  1.4673 -1.7182
10255TIP3    H252257   2.713   0.282  67.081 -0.8935 -0.9819 -0.9451
10256TIP3   OH252258   2.482   2.296  75.212 -0.3590 -0.7682 -0.5446
10256TIP3    H152259   2.435   2.288  75.295 -0.7235  3.1006 -0.1488
10256TIP3    H252260   2.569   2.326  75.237 -1.4650  3.9564 -1.3504
10257TIP3   OH252261   1.904   0.537 102.455 -0.1669  0.2054 -0.4546
10257TIP3    H152262   1.953   0.618 102.436  0.1654 -0.0634 -0.7634
10257TIP3    H252263   1.959   0.467 102.419  0.9166 -0.4300  2.1757
10258TIP3   OH252264   1.565   1.474  25.125  0.9628 -0.0772  0.0821
10258TIP3    H152265   1.476   1.442  25.110  0.6883  0.8603 -0.3451
10258TIP3    H252266   1.620   1.417  25.072  0.5719 -0.4102  0.0317
10259TIP3   OH252267   2.609   0.756  13.067  0.3084  0.1802 -0.1477
10259TIP3    H152268   2.598   0.825  13.002  0.8325  0.9644  0.5770
10259TIP3    H252269   2.520   0.727  13.086 -0.0266  1.6000  0.5329
10260TIP3   OH252270   1.355   2.138  81.198  0.1960  0.1348  0.4658
10260TIP3    H152271   1.397   2.062  81.237 -0.7334 -0.3973  0.4610
10260TIP3    H252272   1.414   2.165  81.128  0.7595 -0.2932  0.7711
10261TIP3   OH252273   1.768   0.202  41.154 -0.3961 -0.2939  0.5569
10261TIP3    H152274   1.709   0.246  41.215  1.9987  1.7122  1.6005
10261TIP3    H252275   1.854   0.239  41.173  0.6945 -0.4745 -3.2232
10262TIP3   OH252276   0.727   1.053  19.484 -0.2817 -0.9897 -0.3288
10262TIP3    H152277   0.673   1.063  19.563 -1.5567 -1.1268 -1.1436
10262TIP3    H252278   0.784   0.979  19.503 -1.2281 -1.6298  0.1211
10263TIP3   OH252279   0.102   0.098  11.712  0.0335  0.2997  0.0789
10263TIP3    H152280   0.093   0.062  11.800 -0.0436  1.5785  0.6156
10263TIP3    H252281   0.197   0.103  11.698  0.0473 -0.5553 -0.2055
10264TIP3   OH252282   2.611   1.071 106.356  0.0060 -0.1355  0.8712
10264TIP3    H152283   2.615   1.013 106.279  1.4378 -0.8161  1.4256
10264TIP3    H252284   2.702   1.099 106.370 -0.3685  0.6805  1.8049
10265TIP3   OH252285   1.622   2.280   7.284 -0.5972  0.6273  0.6296
10265TIP3    H152286   1.564   2.251   7.214  1.1167  1.1898 -1.1206
10265TIP3    H252287   1.598   2.371   7.299  0.2685  1.1081 -0.6593
10266TIP3   OH252288   1.935   0.453  24.458 -0.5417 -0.1030  0.1031
10266TIP3    H152289   2.026   0.467  24.433 -0.7415 -0.0203 -0.6021
10266TIP3    H252290   1.902   0.541  24.479 -1.0548  0.1915 -1.7556
10267TIP3   OH252291   2.419   0.330  99.897  0.1354 -0.3050  0.0539
10267TIP3    H152292   2.380   0.243  99.908  0.2068 -0.1579  1.7393
10267TIP3    H252293   2.367   0.386  99.955 -0.0626  0.8349 -1.1994
10268TIP3   OH252294   0.556   1.418   1.647  0.3399  0.3358  0.0323
10268TIP3    H152295   0.536   1.359   1.573  0.3194  1.1425 -0.6198
10268TIP3    H252296   0.645   1.448   1.630  1.1827 -1.1458  1.5083
10269TIP3   OH252297   0.185   1.165  85.904  0.4385  0.1051  0.1666
10269TIP3    H152298   0.092   1.161  85.883  0.0982 -1.4292  1.7732
10269TIP3    H252299   0.189   1.152  85.999  2.2157  1.5418  0.3395
10270TIP3   OH252300   0.197   0.844   7.890  0.1272 -0.2484  0.1723
10270TIP3    H152301   0.229   0.758   7.862  1.5965  0.4978 -0.5067
10270TIP3    H252302   0.110   0.826   7.927  0.5943 -2.0795  0.4678
10271TIP3   OH252303   0.027   0.892 106.559 -0.2658  0.2432 -0.3570
10271TIP3    H152304   0.011   0.985 106.578 -0.0410  0.2935 -0.4190
10271TIP3    H252305   0.036   0.852 106.645  0.1764  0.3721 -0.3388
10272TIP3   OH252306   1.220   1.206  78.102  0.2008 -0.4623  0.1184
10272TIP3    H152307   1.135   1.211  78.146  0.6270 -0.6358  0.9854
10272TIP3    H252308   1.268   1.283  78.132  0.6398 -0.7876  0.2627
10273TIP3   OH252309   2.162   0.675 107.734 -0.3998  0.2465  0.2212
10273TIP3    H152310   2.070   0.687 107.710 -0.6544  0.7871  1.3548
10273TIP3    H252311   2.168   0.711 107.823  0.6641 -0.8112  0.5975
10274TIP3   OH252312   0.665   1.601  88.872  0.4012 -0.3023  0.6103
10274TIP3    H152313   0.726   1.671  88.848 -2.3286  1.6470 -1.1824
10274TIP3    H252314   0.685   1.530  88.812  2.2100 -0.5806  1.4537
10275TIP3   OH252315   1.329   2.650 106.791  0.2703 -0.0259 -0.2627
10275TIP3    H152316   1.246   2.650 106.839  0.3145  0.3513 -0.1796
10275TIP3    H252317   1.348   2.743 106.776  0.6669 -0.1090 -0.2967
10276TIP3   OH252318   1.999   2.136  83.656  0.5651  0.3113  0.2569
10276TIP3    H152319   1.949   2.055  83.672 -1.7365  1.3468 -1.2048
10276TIP3    H252320   1.961   2.199  83.718 -0.7689  1.3855 -1.5546
10277TIP3   OH252321   1.006   2.110  94.393  0.4883 -0.3100 -0.0285
10277TIP3    H152322   1.020   2.036  94.452  0.6742 -0.1528  0.1270
10277TIP3    H252323   0.946   2.078  94.327  1.5943 -1.0065 -0.7192
10278TIP3   OH252324   0.655   2.249  63.054 -0.3097  0.4149  0.2410
10278TIP3    H152325   0.599   2.291  63.119  0.7319 -1.0304  2.1750
10278TIP3    H252326   0.600   2.182  63.013 -0.2658 -0.4608  1.5607
10279TIP3   OH252327   1.261   0.090  98.489 -0.2898 -0.0763  0.6450
10279TIP3    H152328   1.297   0.003  98.501  0.1235  0.1327  0.9261
10279TIP3    H252329   1.229   0.115  98.576  0.4225  0.4250  0.7664
10280TIP3   OH252330   2.451   0.611   3.279 -0.1637 -0.0849  0.5275
10280TIP3    H152331   2.544   0.631   3.268 -0.2544  0.0579  0.0259
10280TIP3    H252332   2.446   0.516   3.268 -0.4697  0.1932 -2.3103
10281TIP3   OH252333   2.146   2.209  30.810  0.3698  0.1834  0.8143
10281TIP3    H152334   2.133   2.300  30.836  0.4901  0.1634  0.9506
10281TIP3    H252335   2.068   2.186  30.761  1.0369  0.8566 -0.6343
10282TIP3   OH252336   1.472   0.392  30.097 -0.3422 -0.1993  0.2272
10282TIP3    H152337   1.528   0.444  30.154 -0.2939  1.2352 -1.0665
10282TIP3    H252338   1.458   0.310  30.145  0.9961  0.3111  1.5563
10283TIP3   OH252339   0.413   1.751  84.004  0.4514 -0.2186 -0.3209
10283TIP3    H152340   0.389   1.685  83.939 -1.6949 -0.1108  0.2817
10283TIP3    H252341   0.453   1.821  83.953  0.4799 -0.9270 -1.2922
10284TIP3   OH252342   1.091   0.828  17.112  0.1867  0.2689 -0.4202
10284TIP3    H152343   1.187   0.823  17.106  0.3233  0.9900  0.7525
10284TIP3    H252344   1.075   0.888  17.185 -1.1514 -1.1541  0.5415
10285TIP3   OH252345   1.159   1.937  21.932 -0.3288  0.2808  0.3707
10285TIP3    H152346   1.246   1.902  21.950 -0.2989  0.3508  0.3625
10285TIP3    H252347   1.142   1.999  22.004  0.7533  2.3212 -1.0170
10286TIP3   OH252348   1.490   0.986  22.487 -0.4248  0.2506 -0.2303
10286TIP3    H152349   1.555   0.978  22.418 -0.2788  2.8875 -0.5029
10286TIP3    H252350   1.406   0.974  22.443 -0.2337 -1.0332 -0.2718
10287TIP3   OH252351   1.497   1.981  91.676 -0.1604 -0.1847 -0.4267
10287TIP3    H152352   1.543   2.053  91.719 -1.1914  1.3044 -1.7073
10287TIP3    H252353   1.567   1.922  91.647  0.7587  0.6107  0.1106
10288TIP3   OH252354   0.331   0.373  30.448  0.4545  0.0840 -0.0338
10288TIP3    H152355   0.378   0.314  30.390  1.0489  0.7945 -0.2800
10288TIP3    H252356   0.310   0.449  30.394 -1.7887 -0.5595 -0.2039
10289TIP3   OH252357   0.274   2.062  69.544 -0.0231  1.0404 -0.1893
10289TIP3    H152358   0.344   2.094  69.487 -0.6274  2.5647 -0.1009
10289TIP3    H252359   0.204   2.125  69.534 -1.3614 -0.3847 -0.1601
10290TIP3   OH252360   0.669   2.160  87.883 -0.0217 -0.2356 -0.2088
10290TIP3    H152361   0.716   2.137  87.803  0.6472  1.1687 -0.2555
10290TIP3    H252362   0.585   2.193  87.853  1.0176  2.3392 -0.5653
10291TIP3   OH252363   2.617   0.757  36.028 -0.5013  0.8534  0.0560
10291TIP3    H152364   2.536   0.765  36.077 -1.1731 -1.0134 -0.6661
10291TIP3    H252365   2.611   0.673  35.984  1.5383  0.9673 -0.5768
10292TIP3   OH252366   1.167   0.914  23.167 -0.0278  0.1749 -0.2501
10292TIP3    H152367   1.241   0.859  23.194 -0.4563 -0.6520 -0.6955
10292TIP3    H252368   1.125   0.863  23.097 -0.7605  0.8326 -0.2955
10293TIP3   OH252369   0.676   2.644  68.620 -0.3225 -0.4129 -0.1115
10293TIP3    H152370   0.652   2.731  68.652  0.0089  1.0414 -3.4495
10293TIP3    H252371   0.593   2.597  68.614 -0.6809  0.1470  0.3350
10294TIP3   OH252372   1.613   0.122   0.787 -0.0591 -0.4587 -0.4338
10294TIP3    H152373   1.535   0.108   0.840  0.0253 -2.4570 -0.7610
10294TIP3    H252374   1.585   0.105   0.697  0.6895 -1.0092 -0.5756
10295TIP3   OH252375   1.394   1.438  83.335  0.1418 -0.3676  0.2471
10295TIP3    H152376   1.346   1.357  83.350  0.4369 -0.6458 -0.2704
10295TIP3    H252377   1.341   1.486  83.271  1.2991 -1.3907 -1.5817
10296TIP3   OH252378   1.601   0.461  21.920  0.0088 -0.3528 -0.4407
10296TIP3    H152379   1.577   0.474  22.011  1.9866  1.2896 -0.0936
10296TIP3    H252380   1.527   0.496  21.870  0.1405  1.4700  0.5585
10297TIP3   OH252381   1.222   0.334  20.923 -0.0081  0.1094 -0.0824
10297TIP3    H152382   1.278   0.409  20.907 -0.5546  0.6055  0.2878
10297TIP3    H252383   1.262   0.263  20.873  1.7770  0.0605  1.3208
10298TIP3   OH252384   1.419   0.110   8.781  0.4046  0.3746  0.4064
10298TIP3    H152385   1.473   0.172   8.829  1.6359  0.2641 -0.7632
10298TIP3    H252386   1.480   0.065   8.722 -0.8035 -0.4466 -0.2816
10299TIP3   OH252387   1.865   0.326  84.834  0.0014 -1.0554 -0.0510
10299TIP3    H152388   1.816   0.401  84.868  1.4584 -0.6744  1.3143
10299TIP3    H252389   1.947   0.363  84.803  0.8144 -2.0961  0.8061
10300TIP3   OH252390   1.428   1.620  96.936  0.2034 -0.6255 -0.5309
10300TIP3    H152391   1.523   1.620  96.925  0.1174  0.1970 -1.4056
10300TIP3    H252392   1.415   1.618  97.031  1.1146  0.5358 -0.3530
10301TIP3   OH252393   2.169   1.129   3.319  0.3870 -0.8671  0.6383
10301TIP3    H152394   2.184   1.181   3.240  1.1778 -1.8011  0.1462
10301TIP3    H252395   2.144   1.193   3.386 -0.0089 -0.0302 -0.2888
10302TIP3   OH252396   0.380   1.567 106.390 -0.0998 -0.1618  0.2962
10302TIP3    H152397   0.310   1.506 106.411 -0.4822 -0.2167 -1.0481
10302TIP3    H252398   0.360   1.598 106.302  1.1670  0.3858  0.1688
10303TIP3   OH252399   1.890   1.704  87.406 -0.6218  0.4574  0.0662
10303TIP3    H152400   1.971   1.654  87.419 -0.3857  0.3146 -1.7364
10303TIP3    H252401   1.920   1.791  87.378 -1.0627  1.2732  1.9632
10304TIP3   OH252402   0.885   0.132 101.137 -0.3240 -0.5628 -0.0152
10304TIP3    H152403   0.829   0.205 101.112 -0.1202 -0.3467  0.1545
10304TIP3    H252404   0.974   0.162 101.116 -0.2270 -0.7022  0.2000
10305TIP3   OH252405   0.219   2.465  90.796  0.0230  0.0280 -0.2373
10305TIP3    H152406   0.258   2.379  90.783  0.2236  0.0198  0.3542
10305TIP3    H252407   0.125   2.448  90.799  0.0365 -0.1041 -0.6080
10306TIP3   OH252408   1.432   1.243  85.350 -0.3045 -0.8335  0.1978
10306TIP3    H152409   1.502   1.198  85.303  0.7515 -0.2297  1.1365
10306TIP3    H252410   1.392   1.300  85.285 -0.5399 -1.8486 -0.5673
10307TIP3   OH252411   0.752   1.261 103.079 -0.2102  0.6289  0.8992
10307TIP3    H152412   0.824   1.229 103.134  0.9287 -0.2052 -0.9664
10307TIP3    H252413   0.766   1.355 103.073  0.4456  0.5351  0.9206
10308TIP3   OH252414   0.173   1.094  79.323 -0.6262 -0.1349 -0.3164
10308TIP3    H152415   0.112   1.031  79.363 -0.3995 -0.0636  0.1505
10308TIP3    H252416   0.189   1.159  79.392 -3.0888  2.0657 -1.6541
10309TIP3   OH252417   1.131   0.933  89.790 -0.0731 -0.3768  0.2278
10309TIP3    H152418   1.092   0.976  89.866 -0.2166 -1.0918  0.5744
10309TIP3    H252419   1.060   0.927  89.727  0.1881  0.7125 -0.1815
10310TIP3   OH252420   0.189   1.988  86.093 -0.2604 -0.1940  0.4752
10310TIP3    H152421   0.169   2.079  86.116  0.3312  0.8302 -2.6395
10310TIP3    H252422   0.284   1.985  86.086 -0.3301 -0.8014 -0.3260
10311TIP3   OH252423   0.297   1.459  19.546 -0.0822  0.2512  0.1895
10311TIP3    H152424   0.270   1.521  19.614  0.7119 -0.4270  1.1501
10311TIP3    H252425   0.378   1.497  19.510  1.2102 -0.8684  1.7589
10312TIP3   OH252426   0.226   0.712  35.772 -0.4218  0.0571  0.1950
10312TIP3    H152427   0.247   0.678  35.685  1.0968  0.2263  0.4531
10312TIP3    H252428   0.275   0.656  35.832 -0.3029  0.8232  0.8305
10313TIP3   OH252429   1.880   1.312  20.974 -0.1557 -0.4693 -0.5057
10313TIP3    H152430   1.951   1.304  20.910 -1.4162  0.4635 -2.0897
10313TIP3    H252431   1.921   1.355  21.049  0.6937  1.3880 -1.9380
10314TIP3   OH252432   2.071   1.664 102.050 -0.4257 -0.0822  0.1032
10314TIP3    H152433   2.108   1.743 102.090 -1.5453  0.3560  0.3024
10314TIP3    H252434   1.977   1.682 102.043 -0.5587 -1.0111 -0.7443
10315TIP3   OH252435   1.393   2.143  91.095  0.6839  0.7044  0.1464
10315TIP3    H152436   1.336   2.150  91.018  3.1280 -0.3371 -1.9171
10315TIP3    H252437   1.384   2.052  91.123  2.1134  0.1756 -0.9557
10316TIP3   OH252438   1.877   1.926  87.594  0.2930 -0.6724 -0.2994
10316TIP3    H152439   1.884   2.017  87.622  0.3730 -0.3052 -1.4667
10316TIP3    H252440   1.792   1.920  87.551 -0.4992 -1.6035  1.3068
10317TIP3   OH252441   2.553   0.170  82.282  0.3708 -0.4137  0.3892
10317TIP3    H152442   2.583   0.090  82.326 -1.0730 -0.9997  0.3535
10317TIP3    H252443   2.593   0.166  82.195 -2.0919 -2.7501 -0.7792
10318TIP3   OH252444   0.327   0.191  79.536 -0.3306 -0.3194  0.7540
10318TIP3    H152445   0.293   0.103  79.521  0.1396 -0.5043  0.7599
10318TIP3    H252446   0.287   0.244  79.466 -0.4715 -0.5769  0.6360
10319TIP3   OH252447   2.314   2.220 101.533  0.0480 -0.1502 -0.3534
10319TIP3    H152448   2.386   2.282 101.546 -0.4120  0.2559  0.2965
10319TIP3    H252449   2.357   2.135 101.526  0.8837  0.4017 -3.3443
10320TIP3   OH252450   2.166   1.665  98.000  0.0807  0.0279 -0.1799
10320TIP3    H152451   2.251   1.645  98.039 -0.9006 -0.8231  1.6020
10320TIP3    H252452   2.162   1.609  97.922  2.1362  1.8794 -1.7511
10321TIP3   OH252453   0.872   0.179  81.454 -0.0999 -0.2325 -0.0642
10321TIP3    H152454   0.847   0.090  81.480  1.9265 -0.8806 -0.1411
10321TIP3    H252455   0.888   0.172  81.360  0.7480  0.0263  0.0517
10322TIP3   OH252456   1.115   1.189  11.183  0.0407 -0.2852 -0.4605
10322TIP3    H152457   1.202   1.218  11.156  0.6307 -0.3822  1.2346
10322TIP3    H252458   1.122   1.175  11.277 -1.0195 -3.0492 -0.6928
10323TIP3   OH252459   0.978   0.326  98.880  0.0311  0.5736  0.2926
10323TIP3    H152460   0.953   0.418  98.884  0.8015  0.8093 -0.0713
10323TIP3    H252461   1.068   0.325  98.914 -0.2455 -0.1605  1.0472
10324TIP3   OH252462   1.512   1.477  94.160 -0.3728 -0.1637  0.2215
10324TIP3    H152463   1.518   1.566  94.124 -0.6107  0.0302  0.6445
10324TIP3    H252464   1.418   1.460  94.165 -0.3247 -0.4503  0.1052
10325TIP3   OH252465   0.207   1.970  12.274  0.0289  0.0141  0.2161
10325TIP3    H152466   0.288   1.950  12.321  0.2631 -0.9789 -0.5786
10325TIP3    H252467   0.181   2.057  12.306  2.4815  1.2896 -0.9384
10326TIP3   OH252468   2.301   1.736  19.283  0.0789  0.0674 -0.2122
10326TIP3    H152469   2.307   1.725  19.188 -1.2438 -1.6779 -0.1488
10326TIP3    H252470   2.272   1.651  19.316  0.3252  0.6740  1.7518
10327TIP3   OH252471   1.017   0.337  64.091  0.1175  0.4052 -0.0585
10327TIP3    H152472   1.043   0.246  64.076  2.6378  1.0198  0.2396
10327TIP3    H252473   0.971   0.361  64.010  1.1482 -0.5746 -0.9846
10328TIP3   OH252474   2.589   0.132  28.220  0.5835  0.6610  0.0947
10328TIP3    H152475   2.674   0.161  28.187  1.1481 -0.0167  0.9172
10328TIP3    H252476   2.610   0.068  28.288 -0.5706  1.3204  1.0965
10329TIP3   OH252477   2.405   1.396  16.432  0.1827  0.3016  0.0710
10329TIP3    H152478   2.366   1.389  16.519 -1.3065  0.4685 -0.5656
10329TIP3    H252479   2.443   1.484  16.430 -0.1329  0.4454  0.4108
10330TIP3   OH252480   0.157   2.439  92.684 -0.0706 -0.1026 -0.4930
10330TIP3    H152481   0.074   2.477  92.654 -0.5037 -0.6878 -0.0508
10330TIP3    H252482   0.192   2.505  92.745 -1.6112 -1.0424  1.5478
10331TIP3   OH252483   1.844   0.947 109.490  0.4147 -0.2903  0.1241
10331TIP3    H152484   1.883   0.873 109.444  1.3408  0.3176 -0.1054
10331TIP3    H252485   1.888   0.947 109.575 -0.7044 -0.9220  0.7336
10332TIP3   OH252486   2.243   0.579  36.127  0.2541  0.3743  0.2695
10332TIP3    H152487   2.189   0.502  36.141  1.1231 -0.6445 -1.5885
10332TIP3    H252488   2.220   0.610  36.039  2.0592  0.3683 -0.2604
10333TIP3   OH252489   0.953   1.618  22.560  0.4032 -0.0014  0.1567
10333TIP3    H152490   0.958   1.559  22.635  0.9978 -0.3098 -0.1192
10333TIP3    H252491   1.029   1.595  22.506 -0.5667 -0.4954 -1.0457
10334TIP3   OH252492   2.429   0.021 106.100  0.0168 -0.3442 -0.1093
10334TIP3    H152493   2.384  -0.058 106.070 -1.7667  1.0735 -1.4287
10334TIP3    H252494   2.480   0.050 106.024  0.2073  0.0705  0.1723
10335TIP3   OH252495   2.194   2.043  35.182  0.1921 -0.8446  0.2497
10335TIP3    H152496   2.260   2.111  35.193  0.3923 -0.9769 -0.1451
10335TIP3    H252497   2.231   1.965  35.223  0.7979 -1.2471 -1.0325
10336TIP3   OH252498   0.918   1.442  59.566  0.8264 -0.3787 -0.2585
10336TIP3    H152499   0.824   1.449  59.584  0.7846 -0.3029 -0.5038
10336TIP3    H252500   0.930   1.354  59.531  0.8262 -0.3406 -0.3550
10337TIP3   OH252501   2.229   0.027  24.820  0.2965 -0.3760 -0.4123
10337TIP3    H152502   2.301  -0.031  24.844  0.1399 -0.5797 -0.4308
10337TIP3    H252503   2.163   0.013  24.887  1.1822  1.5196  0.9424
10338TIP3   OH252504   1.885   1.542  84.065 -0.2745  0.4240 -1.0673
10338TIP3    H152505   1.848   1.523  84.151  0.4994 -0.0200 -0.8197
10338TIP3    H252506   1.920   1.458  84.035  0.4540  0.8081 -1.3171
10339TIP3   OH252507   1.349   1.688   7.429  0.8921  0.0351  0.4711
10339TIP3    H152508   1.353   1.602   7.386  1.2645 -0.2629  1.0858
10339TIP3    H252509   1.421   1.687   7.492  0.8972  0.7994  0.4927
10340TIP3   OH252510   1.244   0.627 102.452 -0.1305  0.0747 -0.5451
10340TIP3    H152511   1.276   0.645 102.540  1.0708 -1.7998 -0.5455
10340TIP3    H252512   1.160   0.672 102.448  0.3911  1.3279  1.0652
10341TIP3   OH252513   0.679   2.478  96.654  0.4985  0.0827  0.1140
10341TIP3    H152514   0.717   2.442  96.574  0.4558  0.9528 -0.3144
10341TIP3    H252515   0.599   2.522  96.625 -0.4955 -1.1310  0.8935
10342TIP3   OH252516   0.215   1.969  91.252  0.4995 -0.2851 -0.2578
10342TIP3    H152517   0.246   1.948  91.164  0.6203  0.9546 -0.5275
10342TIP3    H252518   0.158   2.045  91.240  1.0322  0.3090  0.7976
10343TIP3   OH252519   1.565   2.157  19.581 -0.7111  0.1364  0.1331
10343TIP3    H152520   1.563   2.084  19.519 -1.4677  0.7684 -0.6154
10343TIP3    H252521   1.533   2.120  19.663  0.9668 -0.8865  0.3805
10344TIP3   OH252522   0.438   1.019   2.156 -0.2790 -0.1553 -0.0456
10344TIP3    H152523   0.507   1.023   2.089  0.3164 -1.9297  0.3991
10344TIP3    H252524   0.424   1.111   2.181  1.2361  0.3346 -0.8435
10345TIP3   OH252525   1.812   0.142   7.894  0.2535  0.1607 -0.8214
10345TIP3    H152526   1.802   0.149   7.989 -1.0025  1.7316 -1.0157
10345TIP3    H252527   1.904   0.120   7.881  0.3550 -0.4892  0.7594
10346TIP3   OH252528   1.974   2.673  31.638  0.3645 -0.4975 -0.7055
10346TIP3    H152529   1.991   2.607  31.706 -1.4207 -1.5257 -1.1962
10346TIP3    H252530   1.880   2.666  31.621  0.3917  1.2312 -1.7809
10347TIP3   OH252531   2.652   0.765  20.858 -0.4850 -0.0002  0.1852
10347TIP3    H152532   2.713   0.819  20.908 -0.7369  1.9422 -1.4651
10347TIP3    H252533   2.677   0.675  20.878  3.0174  0.6911 -0.4784
10348TIP3   OH252534   0.509   1.637  36.537 -0.2847 -0.4358  0.0165
10348TIP3    H152535   0.516   1.732  36.551  0.7406 -0.5733  0.5618
10348TIP3    H252536   0.559   1.622  36.456 -1.4599 -0.3719 -0.7400
10349TIP3   OH252537   1.949   2.241 102.840 -0.0859 -0.4042  0.4175
10349TIP3    H152538   1.877   2.303 102.853  1.0393  1.1146 -0.2861
10349TIP3    H252539   1.949   2.225 102.745 -1.4743 -2.9390  0.7689
10350TIP3   OH252540   0.154   2.363  19.797  0.0435  0.3939  0.2547
10350TIP3    H152541   0.107   2.358  19.714 -0.0468  0.2504  0.3136
10350TIP3    H252542   0.091   2.404  19.857 -0.2255 -0.3595  0.4906
10351TIP3   OH252543   0.785   2.082  87.643  0.2556  0.3102 -0.3428
10351TIP3    H152544   0.700   2.052  87.610  0.7229  1.3410 -2.7386
10351TIP3    H252545   0.835   2.002  87.657 -0.4065 -0.2346 -1.0232
10352TIP3   OH252546   1.719   1.307  92.715  0.9811 -0.3223 -0.1955
10352TIP3    H152547   1.802   1.271  92.744  0.5727 -2.5998 -1.5099
10352TIP3    H252548   1.674   1.232  92.675 -1.8556  0.7255  0.7866
10353TIP3   OH252549   1.174   0.069  19.218  0.0141  0.2258 -0.0421
10353TIP3    H152550   1.107   0.009  19.185  0.1360  0.8050 -1.4106
10353TIP3    H252551   1.188   0.131  19.147  0.6067  1.2947  0.9593
10354TIP3   OH252552   0.764   2.506  68.374  0.1175 -0.9812 -0.9250
10354TIP3    H152553   0.742   2.521  68.466 -1.4113 -1.1449 -1.2360
10354TIP3    H252554   0.847   2.553  68.361 -0.8316  1.0304 -0.0625
10355TIP3   OH252555   2.627   1.687  98.203 -0.2924 -0.3711 -0.2631
10355TIP3    H152556   2.542   1.667  98.243  0.4440 -1.2454  0.9550
10355TIP3    H252557   2.615   1.771  98.160 -1.5760 -0.1208  0.5378
10356TIP3   OH252558   0.077   0.988  32.784 -1.2463  0.1287  0.0836
10356TIP3    H152559   0.152   1.046  32.800  0.2656 -1.7012 -0.0100
10356TIP3    H252560   0.066   0.940  32.867 -1.1304 -0.8903 -0.4749
10357TIP3   OH252561   1.615   2.627  16.909  0.4633 -0.0959 -0.2165
10357TIP3    H152562   1.606   2.540  16.946 -0.2579 -0.5545 -1.4251
10357TIP3    H252563   1.709   2.636  16.891  0.6062 -0.4279  0.3508
10358TIP3   OH252564   1.354   0.441  97.732 -0.1064  0.2246  0.7187
10358TIP3    H152565   1.423   0.472  97.790  0.1541  1.2573 -0.1171
10358TIP3    H252566   1.370   0.486  97.649 -1.8386  0.5603  0.5266
10359TIP3   OH252567   0.705   1.208  78.639  0.5315 -0.3332 -0.0524
10359TIP3    H152568   0.738   1.210  78.549 -1.5002 -0.5752 -0.8533
10359TIP3    H252569   0.616   1.172  78.631  0.1822 -0.0429  2.0152
10360TIP3   OH252570   0.842   2.535   8.961 -0.2512  0.5575  0.1776
10360TIP3    H152571   0.820   2.530   8.868 -2.4071 -0.7389  0.6909
10360TIP3    H252572   0.893   2.455   8.978  1.1530  1.3568 -0.0717
10361TIP3   OH252573   2.367   1.115 101.896  0.2295  0.2462 -0.0239
10361TIP3    H152574   2.342   1.085 101.983 -0.1267 -0.7388 -0.4443
10361TIP3    H252575   2.291   1.165 101.865  0.0576 -0.0230 -0.0436
10362TIP3   OH252576   2.639   1.812  97.282 -0.3647 -0.3676  0.1160
10362TIP3    H152577   2.706   1.768  97.334 -1.9109 -2.0958  0.7265
10362TIP3    H252578   2.556   1.778  97.315 -1.4881  0.1932 -1.9477
10363TIP3   OH252579   1.421   1.225 104.129  0.2401 -0.1672 -0.2888
10363TIP3    H152580   1.425   1.278 104.209 -0.2291  0.2909 -0.5622
10363TIP3    H252581   1.501   1.247 104.081  0.2940 -0.0910 -0.1674
10364TIP3   OH252582   0.817   2.194  83.435 -0.4352  0.4795 -0.0249
10364TIP3    H152583   0.803   2.227  83.524 -0.3563  0.1754  0.1041
10364TIP3    H252584   0.757   2.120  83.427 -0.0627  0.1813 -0.0423
10365TIP3   OH252585   2.121   2.259  33.046  0.2110  0.1784 -0.4730
10365TIP3    H152586   2.030   2.280  33.066  0.2949 -0.2172  0.3857
10365TIP3    H252587   2.168   2.277  33.128  0.7195 -0.6931 -0.5630
10366TIP3   OH252588   0.801   1.747  76.293  0.4120  0.1833 -0.1294
10366TIP3    H152589   0.774   1.726  76.382 -1.0783  0.6712 -0.4518
10366TIP3    H252590   0.808   1.662  76.250 -2.0658  0.0543 -0.4180
10367TIP3   OH252591   0.564   2.308  95.638 -0.0610 -0.1481 -0.1902
10367TIP3    H152592   0.634   2.276  95.581  0.7205  1.5229 -0.2191
10367TIP3    H252593   0.608   2.367  95.699 -1.3590  0.4531  0.1917
10368TIP3   OH252594   1.731   1.021  37.000 -0.1638  0.1846 -0.2447
10368TIP3    H152595   1.780   1.101  37.019  0.8297 -0.8217  1.6396
10368TIP3    H252596   1.661   1.019  37.065  0.0626 -0.6796 -0.0205
10369TIP3   OH252597   2.287   0.393  94.913 -0.0059  0.4745 -0.4914
10369TIP3    H152598   2.315   0.366  95.000  1.0448  1.2399 -0.5683
10369TIP3    H252599   2.233   0.471  94.928 -0.1981  0.3421 -0.4965
10370TIP3   OH252600   1.947   1.024  34.565 -0.3297 -0.0914 -0.1628
10370TIP3    H152601   1.970   1.101  34.617 -0.5643  0.5665 -1.0184
10370TIP3    H252602   1.865   0.992  34.605  0.1858 -0.3924  0.6939
10371TIP3   OH252603   1.895   2.186  86.437 -0.4292  0.9715 -0.1597
10371TIP3    H152604   1.960   2.221  86.376 -1.6692  2.0260 -0.9012
10371TIP3    H252605   1.840   2.128  86.383 -1.5774  1.9656 -0.0894
10372TIP3   OH252606   0.378   2.544  21.034  0.3036  0.1343 -0.1702
10372TIP3    H152607   0.449   2.608  21.035  0.9245 -0.5166  1.0042
10372TIP3    H252608   0.326   2.565  21.112 -0.2153  0.0010 -0.4802
10373TIP3   OH252609   1.560   0.568  82.100 -0.2691  0.1011 -0.3843
10373TIP3    H152610   1.469   0.544  82.083 -0.8765  2.8023 -1.4711
10373TIP3    H252611   1.608   0.533  82.025 -0.4096 -1.1548  0.0875
10374TIP3   OH252612   1.195   1.777   1.741  0.1461 -0.2427 -0.1238
10374TIP3    H152613   1.144   1.772   1.822  0.0674  0.6169 -0.1109
10374TIP3    H252614   1.264   1.712   1.753 -0.2514 -0.5872  0.3582
10375TIP3   OH252615   0.177   1.612  14.578 -0.6285  0.3055 -0.0120
10375TIP3    H152616   0.158   1.572  14.493  1.0726 -2.2935  0.7121
10375TIP3    H252617   0.262   1.655  14.566 -0.3211 -0.1767  0.3552
10376TIP3   OH252618   1.518   1.996  29.360 -0.2261  0.0060  0.0040
10376TIP3    H152619   1.520   1.978  29.266  0.0560 -1.1918  0.2236
10376TIP3    H252620   1.432   1.966  29.389 -0.2102  0.1267  0.1790
10377TIP3   OH252621   0.881   0.302  34.954  0.1178  0.3467  0.2288
10377TIP3    H152622   0.879   0.388  34.910  0.5771  0.7094  0.9001
10377TIP3    H252623   0.829   0.315  35.033  0.6169  0.1576  0.5922
10378TIP3   OH252624   0.660   1.796  87.195 -0.2440 -0.0683 -0.4147
10378TIP3    H152625   0.601   1.756  87.259 -0.1380 -0.3443 -0.4832
10378TIP3    H252626   0.744   1.751  87.210  0.2937  1.2002  0.5536
10379TIP3   OH252627   1.188   0.074  95.246  0.0121 -0.0175 -0.4791
10379TIP3    H152628   1.093   0.067  95.235  0.1185 -1.2959 -0.7543
10379TIP3    H252629   1.203   0.166  95.265 -1.1032  0.5896 -2.2652
10380TIP3   OH252630   0.911   0.910  11.447  0.6211  0.0647 -0.1553
10380TIP3    H152631   0.940   0.975  11.511 -1.6014  0.7809  0.1965
10380TIP3    H252632   0.833   0.949  11.407  0.4321 -1.5203 -1.4057
10381TIP3   OH252633   2.646   0.981 107.703 -0.3108  0.3639  0.1637
10381TIP3    H152634   2.634   0.886 107.707 -0.9496  0.4123 -0.2995
10381TIP3    H252635   2.564   1.013 107.665 -0.0193  1.0836  0.1344
10382TIP3   OH252636   1.055   1.014 107.243 -0.1137 -0.0579  0.1766
10382TIP3    H152637   1.124   1.052 107.188 -0.3375  0.8099  0.4843
10382TIP3    H252638   0.975   1.058 107.215 -0.6792 -1.5323 -0.6385
10383TIP3   OH252639   1.608   2.562  23.349  0.0085  0.1699 -0.6988
10383TIP3    H152640   1.669   2.623  23.308 -0.0662  0.0195 -1.0446
10383TIP3    H252641   1.649   2.476  23.339  1.1474  0.3605  1.7074
10384TIP3   OH252642   1.171   1.608   6.563  0.3542 -0.1311 -0.0113
10384TIP3    H152643   1.189   1.591   6.655 -0.3833 -0.2025  0.1185
10384TIP3    H252644   1.200   1.698   6.549  0.4224 -0.1052  0.2949
10385TIP3   OH252645   0.479   2.543  16.195 -0.1384  0.0020 -0.0625
10385TIP3    H152646   0.483   2.594  16.114  0.0722  0.2477  0.1037
10385TIP3    H252647   0.564   2.499  16.200 -0.0240  0.2523  0.1979
10386TIP3   OH252648   0.756   2.575  84.015  0.2882  0.3111 -0.1645
10386TIP3    H152649   0.738   2.587  83.922 -1.0434 -1.1491 -0.1332
10386TIP3    H252650   0.716   2.651  84.057 -1.3093 -0.2708 -0.5821
10387TIP3   OH252651   2.214   1.967  20.327 -0.1966  0.2178  0.2201
10387TIP3    H152652   2.293   1.994  20.373 -0.9457 -0.0279  1.7257
10387TIP3    H252653   2.160   2.046  20.324  0.0577  0.3692 -0.7469
10388TIP3   OH252654   2.070   1.006   2.576  0.1741 -0.2204  0.0681
10388TIP3    H152655   1.991   0.951   2.582 -0.3673  0.6772  1.7566
10388TIP3    H252656   2.141   0.947   2.602 -0.2500 -0.4452  0.7565
10389TIP3   OH252657   1.359   0.523  98.061 -0.5509  0.2833  0.1871
10389TIP3    H152658   1.410   0.547  98.139 -0.7172 -0.1811  0.4422
10389TIP3    H252659   1.332   0.607  98.024 -1.1583  0.5079  1.0962
10390TIP3   OH252660   0.452   1.375  80.929  0.2110 -0.0395  0.5617
10390TIP3    H152661   0.523   1.437  80.947  0.0863 -0.3182  2.1258
10390TIP3    H252662   0.445   1.375  80.834  1.4268  0.9823  0.4334
10391TIP3   OH252663   1.440   1.697  90.981 -0.1457  0.3176 -0.2151
10391TIP3    H152664   1.503   1.768  90.995  1.0050 -0.8176  0.6263
10391TIP3    H252665   1.460   1.664  90.893  2.3494 -1.7453  0.9759
10392TIP3   OH252666   0.152   2.420 110.968  0.1456  0.4574  0.1332
10392TIP3    H152667   0.133   2.513 110.965 -1.3642  0.1619 -1.3411
10392TIP3    H252668   0.096   2.385 111.037  0.4782  0.5913  0.4694
10393TIP3   OH252669   1.737   1.500   4.513  0.3942 -0.4355  0.2382
10393TIP3    H152670   1.781   1.450   4.445  1.1875  0.7462 -0.1567
10393TIP3    H252671   1.644   1.478   4.505  0.4078  0.0446 -1.5450
10394TIP3   OH252672   1.258   0.112  78.795 -0.3706 -0.1733  0.3496
10394TIP3    H152673   1.258   0.205  78.772 -1.9035 -0.4121 -0.7825
10394TIP3    H252674   1.168   0.095  78.825 -0.1799 -1.3456  0.2932
10395TIP3   OH252675   0.115   0.776   7.098 -0.2014  0.0220  0.0156
10395TIP3    H152676   0.043   0.839   7.090  0.9228  1.4023  0.4233
10395TIP3    H252677   0.141   0.781   7.189  0.9677  0.1742 -0.3150
10396TIP3   OH252678   1.228   1.233 110.258 -0.2570  0.1355  0.3098
10396TIP3    H152679   1.140   1.249 110.226  0.1879 -0.3259 -1.2468
10396TIP3    H252680   1.235   1.137 110.265  0.3964  0.1160 -0.4618
10397TIP3   OH252681   0.640   0.574 107.953  0.0483  0.0220 -0.2709
10397TIP3    H152682   0.600   0.627 108.022  0.0130 -1.2491  0.7362
10397TIP3    H252683   0.567   0.524 107.916  0.1034  0.5349 -1.0886
10398TIP3   OH252684   0.941   0.864 105.577 -0.0717 -0.0606  0.3310
10398TIP3    H152685   0.868   0.809 105.549  0.6080 -0.6001 -0.4489
10398TIP3    H252686   0.996   0.805 105.629 -0.1193  0.3105  0.8140
10399TIP3   OH252687   0.021   0.453 109.829 -0.2197 -0.4523 -0.2298
10399TIP3    H152688   0.094   0.409 109.872 -1.2302 -1.6952  0.3044
10399TIP3    H252689  -0.026   0.496 109.900  1.3678  2.5883 -0.8660
10400TIP3   OH252690   2.337   2.519  28.468 -0.0715 -0.3574  0.4352
10400TIP3    H152691   2.380   2.516  28.382 -0.6765 -0.4913  0.1326
10400TIP3    H252692   2.288   2.601  28.467 -1.0401 -0.9227  0.1753
10401TIP3   OH252693   2.560   1.863  69.145  0.1066 -0.2163 -0.0468
10401TIP3    H152694   2.516   1.852  69.230 -0.8650 -0.6729 -0.5931
10401TIP3    H252695   2.650   1.835  69.161  0.2299  0.7593  1.1010
10402TIP3   OH252696   0.624   2.224   4.548 -0.9891  0.0698  0.5837
10402TIP3    H152697   0.551   2.193   4.494 -1.1446  0.1566  0.7420
10402TIP3    H252698   0.629   2.162   4.620 -1.3038  0.4124  0.9024
10403TIP3   OH252699   2.034   2.670  27.232 -0.5455 -0.1518  0.5272
10403TIP3    H152700   2.102   2.712  27.284 -0.7658  2.2407 -0.9733
10403TIP3    H252701   2.073   2.659  27.145 -1.7881  0.5802 -0.1523
10404TIP3   OH252702   0.498   1.474  96.148  0.0029 -0.2795 -0.6572
10404TIP3    H152703   0.549   1.421  96.086 -1.1858 -1.8500 -0.3784
10404TIP3    H252704   0.553   1.550  96.166  1.7707 -1.3742 -1.1668
10405TIP3   OH252705   0.178   1.064  94.897  0.2893  0.7557 -0.2539
10405TIP3    H152706   0.271   1.049  94.882  0.5135  1.5285  0.3367
10405TIP3    H252707   0.170   1.159  94.908 -0.4575  0.6252  0.3994
10406TIP3   OH252708   1.007   0.180  99.804  0.5808  0.0796  0.3559
10406TIP3    H152709   1.061   0.151  99.877  0.7951 -2.2889 -0.6687
10406TIP3    H252710   0.956   0.253  99.839  2.7523  0.9116  1.9998
10407TIP3   OH252711   1.981   1.752  25.064  0.4469 -0.0977  0.9880
10407TIP3    H152712   1.888   1.736  25.077  0.2458  0.1506 -0.0496
10407TIP3    H252713   2.019   1.666  25.048  0.2635 -0.1147  0.6445
10408TIP3   OH252714   1.098   1.862  27.831 -0.2253 -0.4334  0.0959
10408TIP3    H152715   1.052   1.907  27.902  1.9164  0.8626  0.7388
10408TIP3    H252716   1.031   1.807  27.790 -2.1608  0.8468  1.3932
10409TIP3   OH252717   1.131   1.302  21.321  0.3525  0.5213 -0.2474
10409TIP3    H152718   1.044   1.328  21.291  0.2442  0.0881 -0.3206
10409TIP3    H252719   1.157   1.232  21.261  1.1571  1.2828 -0.8072
10410TIP3   OH252720   0.176   2.597  93.657 -0.1104 -0.0635  0.2265
10410TIP3    H152721   0.087   2.568  93.640 -0.2938  0.5421  0.1089
10410TIP3    H252722   0.166   2.667  93.722  0.3306 -0.4001  0.6621
10411TIP3   OH252723   1.840   0.897   4.324  0.1129  0.3214 -0.1613
10411TIP3    H152724   1.924   0.903   4.368  0.2266  0.5790 -0.4146
10411TIP3    H252725   1.792   0.975   4.352  0.2411  0.5609 -0.6133
10412TIP3   OH252726   0.796   2.580 111.417 -0.0608  0.3379 -0.1408
10412TIP3    H152727   0.728   2.586 111.350 -1.8373 -1.4886  1.3804
10412TIP3    H252728   0.864   2.526 111.377 -0.5587  0.2274 -0.8633
10413TIP3   OH252729   2.313   2.065   5.671  1.0553 -0.0420 -0.3859
10413TIP3    H152730   2.361   2.072   5.589  0.0643 -3.4782 -1.4384
10413TIP3    H252731   2.285   2.154   5.690  2.3472  1.0662 -3.1055
10414TIP3   OH252732   0.351   1.900  96.751 -0.1260 -0.1132  0.0281
10414TIP3    H152733   0.389   1.934  96.832  0.4511 -0.7454  0.0380
10414TIP3    H252734   0.424   1.902  96.688 -0.2249 -0.7898 -0.1200
10415TIP3   OH252735   2.620   2.677  88.155  0.6520 -0.1917  0.3639
10415TIP3    H152736   2.697   2.692  88.100  1.2931 -2.1982  0.6279
10415TIP3    H252737   2.609   2.582  88.155 -0.4346 -0.1140  2.2243
10416TIP3   OH252738   2.672   2.250  90.205  0.1690  0.6694 -0.7747
10416TIP3    H152739   2.690   2.181  90.140 -0.4180 -0.8271  0.5697
10416TIP3    H252740   2.577   2.255  90.208 -0.0021 -1.7552  2.3119
10417TIP3   OH252741   2.237   2.079 105.370  0.3906  0.0050 -0.1380
10417TIP3    H152742   2.177   2.050 105.302  0.3368  0.0902 -0.1278
10417TIP3    H252743   2.182   2.128 105.431  0.1590 -1.2322  0.6977
10418TIP3   OH252744   0.132   0.168  99.977 -0.3315  0.0183  0.2484
10418TIP3    H152745   0.086   0.088 100.001 -0.1607  0.1757  1.1298
10418TIP3    H252746   0.124   0.172  99.881 -0.2229 -1.1168  0.1737
10419TIP3   OH252747   1.963   0.951 111.164  0.1131  0.6965 -0.0465
10419TIP3    H152748   1.960   0.906 111.248 -0.0480  0.5275 -0.1401
10419TIP3    H252749   2.027   0.903 111.112 -0.6940  0.0371 -0.4589
10420TIP3   OH252750   0.622   0.352  83.540 -0.0128  0.0412  0.3227
10420TIP3    H152751   0.690   0.416  83.524  0.0994  0.4420  2.1775
10420TIP3    H252752   0.593   0.369  83.629 -3.1498  0.4450 -0.6325
10421TIP3   OH252753   0.942   2.137  93.756  0.2304  0.3857 -0.0504
10421TIP3    H152754   0.865   2.122  93.811 -0.1728  0.6304 -0.5376
10421TIP3    H252755   0.934   2.072  93.686  1.8779 -1.4074  1.3100
10422TIP3   OH252756   0.734   1.466  92.191  0.4394 -0.3078 -0.5304
10422TIP3    H152757   0.783   1.467  92.274 -0.0327 -1.0357 -0.2356
10422TIP3    H252758   0.755   1.550  92.150  0.1434  0.3557  0.6351
10423TIP3   OH252759   1.109   0.918  94.775 -0.0087 -0.3514  0.6324
10423TIP3    H152760   1.068   0.998  94.741  0.7729 -0.4948 -0.7181
10423TIP3    H252761   1.038   0.853  94.774  0.1447 -0.5623 -1.5564
10424TIP3   OH252762   1.224   0.947  25.186  0.2453 -0.1107  0.0400
10424TIP3    H152763   1.255   1.037  25.196 -0.0189 -0.0739  0.6039
10424TIP3    H252764   1.155   0.952  25.120  1.4073 -0.1946 -1.2151
10425TIP3   OH252765   1.526   2.662  98.221 -0.5225  0.1904 -0.3287
10425TIP3    H152766   1.539   2.657  98.126 -0.1911 -1.2969 -0.2290
10425TIP3    H252767   1.435   2.691  98.231 -0.5339  0.4442 -1.0972
10426TIP3   OH252768   0.346   1.570  14.123  0.7443  0.2346 -0.2619
10426TIP3    H152769   0.275   1.573  14.188 -0.1510 -1.5109 -1.0849
10426TIP3    H252770   0.421   1.535  14.171  0.6095  0.6401  0.2532
10427TIP3   OH252771   1.131   0.543  89.357  0.3531  0.2432 -0.0697
10427TIP3    H152772   1.045   0.501  89.365  0.1704  0.6383  0.1173
10427TIP3    H252773   1.110   0.631  89.325  0.5795  0.7778  1.1854
10428TIP3   OH252774   2.287   1.554  79.398 -0.1372  0.4783 -0.1595
10428TIP3    H152775   2.376   1.575  79.428 -0.7736 -1.2258  3.5977
10428TIP3    H252776   2.244   1.638  79.390  1.2586  1.2404 -0.0060
10429TIP3   OH252777   2.150   0.767  18.139 -0.1570 -0.2079  0.2582
10429TIP3    H152778   2.149   0.755  18.234  0.8225 -0.5725  0.2369
10429TIP3    H252779   2.059   0.757  18.112 -0.2112 -1.9610  0.9448
10430TIP3   OH252780   0.569   2.650   4.114  0.6045 -0.2920  0.0577
10430TIP3    H152781   0.517   2.684   4.187 -0.7984 -1.8725 -0.1585
10430TIP3    H252782   0.633   2.592   4.155  0.4839 -0.3849  0.1154
10431TIP3   OH252783   2.579   0.805 100.618 -0.1324  0.0560 -0.0668
10431TIP3    H152784   2.503   0.770 100.664  1.1572 -1.7965  0.8253
10431TIP3    H252785   2.600   0.886 100.664 -1.8982  0.9619 -0.7592
10432TIP3   OH252786   2.457   0.104   8.615 -0.2175  0.5246 -0.1538
10432TIP3    H152787   2.379   0.159   8.625 -0.9364 -0.4630 -0.2441
10432TIP3    H252788   2.520   0.160   8.570 -1.5384  0.7274 -1.8407
10433TIP3   OH252789   2.329   0.351  20.434 -0.3699  0.3620 -0.1341
10433TIP3    H152790   2.324   0.387  20.523 -1.1675 -1.0674  0.4172
10433TIP3    H252791   2.423   0.350  20.415 -0.2582  1.9337  0.1290
10434TIP3   OH252792   0.602   1.039  25.696 -0.5968 -0.3010  0.6058
10434TIP3    H152793   0.634   1.122  25.660 -0.7350 -0.0517  1.0368
10434TIP3    H252794   0.558   0.996  25.623  0.0288 -0.2831  0.2222
10435TIP3   OH252795   0.732   0.176  26.522 -0.1907  0.5161  0.4900
10435TIP3    H152796   0.737   0.106  26.586  1.3201  2.1194  2.2341
10435TIP3    H252797   0.821   0.183  26.487 -0.4203  1.2976  0.0349
10436TIP3   OH252798   0.228   1.415  10.516  0.0204 -0.4237 -0.1754
10436TIP3    H152799   0.276   1.472  10.577 -0.5953  0.2087 -0.2733
10436TIP3    H252800   0.268   1.432  10.431 -0.4800  0.2491 -0.2905
10437TIP3   OH252801   1.007   1.588   4.486 -0.2678 -0.1451  0.2701
10437TIP3    H152802   0.948   1.652   4.447  0.1760 -0.0231 -0.2026
10437TIP3    H252803   1.004   1.513   4.427  1.5057  0.5776 -0.7993
10438TIP3   OH252804   1.148   1.899  18.674 -0.4837 -0.2693 -0.4948
10438TIP3    H152805   1.227   1.875  18.626  0.2075  2.0225 -0.6246
10438TIP3    H252806   1.180   1.939  18.755 -1.4805  0.7071 -0.5545
10439TIP3   OH252807   0.262   2.189 105.922  0.5218 -0.2198  0.3978
10439TIP3    H152808   0.295   2.245 105.992 -0.0496  1.1786 -0.3880
10439TIP3    H252809   0.171   2.171 105.946 -0.0426  1.2278 -0.4849
10440TIP3   OH252810   1.731   1.855 108.261  0.1402 -0.6564 -0.1186
10440TIP3    H152811   1.749   1.780 108.205  1.6445  1.3697 -2.5771
10440TIP3    H252812   1.815   1.873 108.305  0.3902  0.6508 -1.0491
10441TIP3   OH252813   2.229   0.886   3.670  0.6676 -0.4240 -0.0697
10441TIP3    H152814   2.168   0.843   3.730 -1.0383  1.2621 -0.4900
10441TIP3    H252815   2.188   0.878   3.584 -0.0985  2.5316 -0.0750
10442TIP3   OH252816   2.339   0.900  31.309 -0.2965 -0.2832  0.6322
10442TIP3    H152817   2.371   0.836  31.373 -0.5819  0.2926  1.3724
10442TIP3    H252818   2.301   0.847  31.239  0.1321 -0.9317  0.8815
10443TIP3   OH252819   0.645   0.229   7.232 -0.2496  0.5490  0.1038
10443TIP3    H152820   0.637   0.183   7.148  1.7341  0.4653 -0.0882
10443TIP3    H252821   0.606   0.315   7.216 -1.5255 -0.0797 -0.3380
10444TIP3   OH252822   0.622   0.200  87.650  0.7275  0.0687 -0.3398
10444TIP3    H152823   0.634   0.110  87.681 -1.5021  0.1658  0.9968
10444TIP3    H252824   0.625   0.193  87.555 -0.8776 -1.7273 -0.3283
10445TIP3   OH252825   0.561   0.999 101.176  0.0349  0.4973  0.3681
10445TIP3    H152826   0.614   0.921 101.161 -0.7091  0.3056 -1.5523
10445TIP3    H252827   0.508   0.978 101.253  1.7900  0.2203  1.5622
10446TIP3   OH252828   0.174   1.661 102.674  0.1587 -0.0195 -0.2607
10446TIP3    H152829   0.079   1.673 102.668  0.3689  0.9573 -2.2772
10446TIP3    H252830   0.200   1.628 102.589  1.8789  1.6620 -0.4616
10447TIP3   OH252831   0.494   2.656  34.942  0.0829 -0.0155 -0.4683
10447TIP3    H152832   0.469   2.707  34.865 -0.8754  0.6657  0.2696
10447TIP3    H252833   0.525   2.572  34.906 -0.9646  0.0372 -1.5660
10448TIP3   OH252834   0.932   0.607  34.893  0.3065  0.0922  0.3209
10448TIP3    H152835   0.955   0.700  34.886  1.2938 -0.0507  1.3727
10448TIP3    H252836   0.837   0.608  34.907  0.1751  0.8897 -0.5190
10449TIP3   OH252837   0.452   0.356 107.306  0.0382 -0.3685 -0.2240
10449TIP3    H152838   0.377   0.301 107.284  0.2021 -0.1646 -1.3858
10449TIP3    H252839   0.459   0.417 107.232 -0.5670  1.6983  1.3423
10450TIP3   OH252840   1.178   1.817 108.276  0.2534 -0.3842  0.0597
10450TIP3    H152841   1.158   1.729 108.308  0.8968 -0.0786  1.3798
10450TIP3    H252842   1.230   1.802 108.196 -1.2215 -1.1687 -0.8018
10451TIP3   OH252843   0.906   2.128  27.778  0.8020  0.2796  0.4892
10451TIP3    H152844   0.908   2.096  27.868 -0.4990  1.1627  0.8686
10451TIP3    H252845   0.858   2.211  27.783  2.0847  1.1464 -0.7913
10452TIP3   OH252846   1.277   2.130 109.794  0.1873  0.4415 -0.1673
10452TIP3    H152847   1.277   2.219 109.828 -0.8510  0.0961  0.7716
10452TIP3    H252848   1.277   2.074 109.871 -4.0118 -0.3701 -0.5573
10453TIP3   OH252849   1.794   2.017   6.767  0.1675 -0.2499  0.3865
10453TIP3    H152850   1.805   1.924   6.785  0.8088 -0.4890 -1.1189
10453TIP3    H252851   1.880   2.055   6.781 -0.3036  0.3282  1.9619
10454TIP3   OH252852   0.109   0.367  11.440  0.1393 -0.1417 -0.0955
10454TIP3    H152853   0.131   0.287  11.392  2.1806  0.0881  0.3666
10454TIP3    H252854   0.107   0.435  11.373  0.0930 -0.2829 -0.2403
10455TIP3   OH252855   0.616   0.798  76.163  0.3446  0.3200  0.0947
10455TIP3    H152856   0.683   0.844  76.112  1.1329  2.0790  2.5284
10455TIP3    H252857   0.663   0.764  76.238 -1.2364  0.3238  1.1324
10456TIP3   OH252858   2.496   0.903  24.285  0.0204 -0.3526 -0.2051
10456TIP3    H152859   2.552   0.906  24.362  1.7850 -0.5570 -1.4397
10456TIP3    H252860   2.488   0.995  24.257 -0.5586 -0.2870  0.1483
10457TIP3   OH252861   0.051   2.214   8.820 -0.0375 -0.2112  0.1254
10457TIP3    H152862   0.010   2.152   8.880 -0.8943 -1.0902 -1.2989
10457TIP3    H252863  -0.002   2.209   8.740  0.7134  1.3289 -0.5232
10458TIP3   OH252864   2.426   2.050  22.638  0.2071 -0.3887 -0.3303
10458TIP3    H152865   2.385   1.983  22.583 -1.6882  0.8382 -0.5179
10458TIP3    H252866   2.433   2.126  22.580 -0.5643  0.5118  0.7300
10459TIP3   OH252867   0.906   1.520  29.489  0.1352  0.6992  0.1772
10459TIP3    H152868   0.943   1.434  29.508 -0.2831  0.7261  1.2062
10459TIP3    H252869   0.959   1.581  29.540 -0.0350  0.9646  0.0390
10460TIP3   OH252870   0.452   0.324  14.977 -0.2349  0.3134 -0.1447
10460TIP3    H152871   0.480   0.352  15.064 -1.9286  2.6508 -0.2646
10460TIP3    H252872   0.367   0.282  14.992  0.3865 -1.1409 -0.4895
10461TIP3   OH252873   2.255   2.148  90.980 -0.7021  0.1899  0.3012
10461TIP3    H152874   2.247   2.218  91.045 -0.0222  0.2354  0.3362
10461TIP3    H252875   2.349   2.134  90.970 -0.7859  0.2676 -0.7731
10462TIP3   OH252876   2.229   0.749   3.404  0.1406 -0.2618  0.0133
10462TIP3    H152877   2.169   0.789   3.342 -0.7081 -1.0413  0.3146
10462TIP3    H252878   2.285   0.692   3.351  0.1404 -0.0843 -0.1756
10463TIP3   OH252879   1.277   0.228   7.768  0.0146  0.5379  0.1227
10463TIP3    H152880   1.351   0.170   7.785 -0.0252  0.0288 -1.3135
10463TIP3    H252881   1.251   0.208   7.678  0.0142  2.7996 -0.4290
10464TIP3   OH252882   0.435   1.967 105.995 -0.3374 -0.6286 -0.0983
10464TIP3    H152883   0.343   1.994 106.000  0.0652  1.0880 -1.1981
10464TIP3    H252884   0.434   1.889 105.940 -1.0733 -0.1937 -0.7243
10465TIP3   OH252885   1.050   2.145  17.576  0.4130  0.1932  0.2931
10465TIP3    H152886   1.045   2.234  17.610 -0.9785  0.8397 -1.4892
10465TIP3    H252887   0.982   2.097  17.624 -1.9100  1.2298 -1.7755
10466TIP3   OH252888   1.703   1.973 100.897 -0.8127 -0.1878  0.0249
10466TIP3    H152889   1.629   2.015 100.854  0.3532  0.1508 -1.7904
10466TIP3    H252890   1.693   1.880 100.877 -1.8856 -0.4544  1.6524
10467TIP3   OH252891   0.570   2.418  23.378 -0.3068 -0.3761  0.0156
10467TIP3    H152892   0.569   2.482  23.307  2.2669 -1.1674 -0.8500
10467TIP3    H252893   0.576   2.333  23.334 -0.5505 -1.0094  1.1624
10468TIP3   OH252894   0.932   2.525  85.298 -0.2629 -0.4553 -0.2215
10468TIP3    H152895   0.962   2.555  85.384 -0.2731  1.7114 -0.9094
10468TIP3    H252896   1.013   2.509  85.249 -0.1997  0.9596 -0.6283
10469TIP3   OH252897   1.178   0.172   7.504  0.1618  0.3305  0.0985
10469TIP3    H152898   1.215   0.228   7.436  0.0672  0.3463  0.0607
10469TIP3    H252899   1.151   0.093   7.459 -0.9743  0.8026 -0.0850
10470TIP3   OH252900   1.755   2.256  76.995  0.3016 -0.1154 -0.2234
10470TIP3    H152901   1.757   2.256  76.900  0.5653 -1.8024 -0.2468
10470TIP3    H252902   1.679   2.311  77.018  1.0108  1.4102 -1.3274
10471TIP3   OH252903   2.040   2.476  77.470 -0.9888  0.1003 -0.0514
10471TIP3    H152904   1.985   2.438  77.538 -1.0504 -1.2489 -0.7989
10471TIP3    H252905   2.062   2.402  77.413  2.7674  0.2496  0.9517
10472TIP3   OH252906   0.743   0.670  75.286  0.3932 -0.0710  0.1549
10472TIP3    H152907   0.801   0.649  75.212  0.8469 -3.5293  1.2997
10472TIP3    H252908   0.785   0.627  75.361  0.2590  3.7388  2.6852
10473TIP3   OH252909   0.916   2.312  85.802  0.4734 -0.0522 -0.3971
10473TIP3    H152910   0.907   2.284  85.893 -1.7619 -0.2695 -0.6287
10473TIP3    H252911   1.004   2.347  85.797  1.1940 -1.4141  1.4656
10474TIP3   OH252912   0.457   0.095  37.883  0.3740  0.4740  0.0083
10474TIP3    H152913   0.414   0.092  37.969 -1.0818  0.1882 -0.7045
10474TIP3    H252914   0.535   0.040  37.894 -0.9102 -1.3211  0.5818
10475TIP3   OH252915   2.141   1.841   4.348  0.0440  0.4112  0.0733
10475TIP3    H152916   2.233   1.857   4.369  0.0676 -0.1380  0.4231
10475TIP3    H252917   2.128   1.748   4.368 -0.4875  0.3874 -0.3416
10476TIP3   OH252918   0.615   2.548  29.406 -0.8460  0.1372  0.0848
10476TIP3    H152919   0.552   2.616  29.431 -2.5553 -1.2794 -0.1736
10476TIP3    H252920   0.619   2.490  29.482 -1.6140 -1.0000 -0.7107
10477TIP3   OH252921   1.392   0.464  21.739  0.1525 -0.4901  0.0392
10477TIP3    H152922   1.354   0.388  21.694  0.1592  0.1593 -1.0863
10477TIP3    H252923   1.379   0.537  21.678  1.8628  0.0419  0.2695
10478TIP3   OH252924   1.217   2.165  91.674  0.0414  0.0192  0.2011
10478TIP3    H152925   1.235   2.074  91.648  0.4592 -0.4539  1.9532
10478TIP3    H252926   1.123   2.167  91.691  0.2221 -0.4529  1.3482
10479TIP3   OH252927   2.551   1.870  33.597 -0.3011 -0.2086 -0.2717
10479TIP3    H152928   2.506   1.919  33.529  1.2586 -0.1715 -1.3422
10479TIP3    H252929   2.499   1.883  33.676 -1.4801  0.7734 -1.1833
10480TIP3   OH252930   1.317   2.085   9.817  0.6420  0.2294  0.0975
10480TIP3    H152931   1.409   2.110   9.826  0.7208 -0.2098  0.5714
10480TIP3    H252932   1.268   2.163   9.844  0.8818 -0.0211  1.2904
10481TIP3   OH252933   2.592   1.112   3.553  0.6160 -0.1773  0.4205
10481TIP3    H152934   2.558   1.037   3.506 -0.6565  1.0440 -0.6999
10481TIP3    H252935   2.526   1.131   3.619 -0.3918  1.4413 -0.9541
10482TIP3   OH252936   1.322   0.204  82.762  0.0975 -0.2403  0.0850
10482TIP3    H152937   1.298   0.133  82.822 -0.7767  1.1345  1.4471
10482TIP3    H252938   1.414   0.222  82.783  0.1799 -0.6490  0.0820
10483TIP3   OH252939   1.039   2.578  95.991  0.1258  0.6190  0.2046
10483TIP3    H152940   1.127   2.552  96.019 -0.2530 -0.4391  0.4798
10483TIP3    H252941   1.024   2.662  96.035  2.1628  2.4400 -2.2961
10484TIP3   OH252942   0.550   1.817  19.177  0.3303  0.3799 -0.0677
10484TIP3    H152943   0.595   1.734  19.194 -1.5467 -0.6587  0.1540
10484TIP3    H252944   0.511   1.805  19.090 -1.5334  0.2194  0.7331
10485TIP3   OH252945   0.957   2.399  95.088  0.0127  0.1525 -0.7293
10485TIP3    H152946   0.899   2.476  95.087  0.2998  0.4440  1.3600
10485TIP3    H252947   0.899   2.326  95.067 -0.1535  0.9427 -3.3933
10486TIP3   OH252948   0.841   2.196  83.731 -0.1780  0.0326  0.4718
10486TIP3    H152949   0.869   2.279  83.770 -0.1624  0.9069 -1.2926
10486TIP3    H252950   0.922   2.145  83.724  0.2901  0.8914 -0.7371
10487TIP3   OH252951   2.109   0.644  37.500  0.0538  0.5564  0.4438
10487TIP3    H152952   2.058   0.705  37.445  0.4638  0.6325  0.1481
10487TIP3    H252953   2.169   0.701  37.548 -0.1295  0.4631  0.7907
10488TIP3   OH252954   2.134   0.475  80.291  0.6740  0.2781 -0.1344
10488TIP3    H152955   2.153   0.397  80.239  0.9832  1.1175 -1.3199
10488TIP3    H252956   2.220   0.512  80.311  0.5134  0.5467  0.0663
10489TIP3   OH252957   1.232   1.096  93.031 -0.2581  0.1039  0.0682
10489TIP3    H152958   1.145   1.136  93.029  0.5928  2.1191  0.4713
10489TIP3    H252959   1.265   1.116  93.119  0.5537 -0.7950 -0.0173
10490TIP3   OH252960   2.444   0.796   5.563 -0.1881  0.3320 -0.9146
10490TIP3    H152961   2.364   0.838   5.592  0.0150 -0.0995  0.3367
10490TIP3    H252962   2.510   0.865   5.564  0.2892 -0.0845  1.7384
10491TIP3   OH252963   2.135   0.898   0.604  0.2613  0.7125 -0.6987
10491TIP3    H152964   2.128   0.987   0.640  1.0379 -0.1602  1.8863
10491TIP3    H252965   2.229   0.882   0.598  0.1307  0.3360 -1.9573
10492TIP3   OH252966   2.491   0.429  95.458 -0.2618 -0.3304 -0.1703
10492TIP3    H152967   2.498   0.520  95.488  0.9427  0.0119 -1.3924
10492TIP3    H252968   2.577   0.410  95.421 -0.9077 -1.5473 -1.1093
10493TIP3   OH252969   1.595   0.237  79.090 -0.3965  0.3133 -0.3684
10493TIP3    H152970   1.505   0.239  79.121 -0.3926  1.7335 -0.3800
10493TIP3    H252971   1.619   0.329  79.079  1.9788  0.1559  2.3301
10494TIP3   OH252972   0.233   1.482  87.765 -0.2946 -0.2261 -0.0958
10494TIP3    H152973   0.198   1.487  87.677  2.4737  4.5949 -1.3208
10494TIP3    H252974   0.180   1.544  87.815  0.7172  0.2261  0.4530
10495TIP3   OH252975   0.349   1.470 103.923  0.0390 -0.2883  0.2205
10495TIP3    H152976   0.277   1.454 103.862 -0.0254 -0.4663  0.3439
10495TIP3    H252977   0.344   1.564 103.941 -0.0605 -0.2704  0.1002
10496TIP3   OH252978   2.676   2.592   7.244 -0.0378 -0.1398  0.1169
10496TIP3    H152979   2.646   2.515   7.195  0.4902  0.3998 -1.0992
10496TIP3    H252980   2.597   2.624   7.288 -0.1578 -1.6803  1.1149
10497TIP3   OH252981   0.801   0.586 106.359  0.0490  0.2586 -0.1805
10497TIP3    H152982   0.818   0.679 106.369  0.4478  0.2189 -0.4523
10497TIP3    H252983   0.834   0.565 106.271 -0.4624 -0.0442 -0.3054
10498TIP3   OH252984   0.797   0.169  79.419 -0.0909 -0.0911 -0.1520
10498TIP3    H152985   0.851   0.178  79.498 -1.7612 -0.8442  1.1225
10498TIP3    H252986   0.858   0.138  79.352  1.1786 -0.3722  1.0809
10499TIP3   OH252987   2.643   2.194  34.111  0.3592 -0.4074 -0.1641
10499TIP3    H152988   2.676   2.125  34.168  0.2735 -2.7301 -2.7171
10499TIP3    H252989   2.692   2.183  34.029 -0.4493  1.8792 -1.0397
10500TIP3   OH252990   1.149   2.102  77.588 -0.1205 -0.1868  0.2885
10500TIP3    H152991   1.155   2.007  77.575  0.7700 -0.2250  0.8918
10500TIP3    H252992   1.238   2.129  77.611  0.3387  1.2447 -2.7121
10501TIP3   OH252993   1.754   0.139  32.844 -0.0929  0.0349  0.3341
10501TIP3    H152994   1.751   0.182  32.758  0.1396 -1.2860 -0.3731
10501TIP3    H252995   1.829   0.080  32.838  0.9992  1.1784  2.1072
10502TIP3   OH252996   0.612   1.435  84.685  0.0516 -0.0058 -0.0026
10502TIP3    H152997   0.636   1.458  84.595 -0.3316 -0.7542 -0.3027
10502TIP3    H252998   0.544   1.369  84.675 -1.5084  1.4229  0.8435
10503TIP3   OH252999   0.739   1.845  52.613  0.2886 -0.5664  0.0168
10503TIP3    H153000   0.791   1.861  52.692  1.5604 -0.7108 -0.7658
10503TIP3    H253001   0.763   1.757  52.586  2.8490  0.8094 -2.6545
10504TIP3   OH253002   0.389   1.011  16.996  0.5921  0.2482  0.3544
10504TIP3    H153003   0.370   0.975  17.082 -0.5033 -1.3482 -0.5031
10504TIP3    H253004   0.340   1.094  16.993  0.0838 -0.0161  1.0180
10505TIP3   OH253005   0.305   0.415  15.475 -0.3180  0.0939  0.0513
10505TIP3    H153006   0.226   0.434  15.526 -0.0760  1.1816  0.0559
10505TIP3    H253007   0.290   0.459  15.391  0.2206  0.1834 -0.0005
10506TIP3   OH253008   0.082   2.604  12.202 -0.6080  0.0600  0.0868
10506TIP3    H153009   0.158   2.617  12.258  0.4643  0.1816 -1.3309
10506TIP3    H253010   0.007   2.603  12.262  0.4776  0.2019  1.4878
10507TIP3   OH253011   0.197   1.206  35.497 -0.7467 -0.2066  0.0069
10507TIP3    H153012   0.139   1.137  35.465 -0.6250 -0.2213 -0.1839
10507TIP3    H253013   0.138   1.270  35.537 -0.9761  0.1744 -0.8989
10508TIP3   OH253014   2.579   1.079  76.056 -0.3512  0.1645  0.6088
10508TIP3    H153015   2.516   1.096  76.127 -0.6334  2.8460 -0.1597
10508TIP3    H253016   2.546   1.131  75.983  2.3457  1.0328 -0.0756
10509TIP3   OH253017   0.814   0.243  35.891  0.0592  0.1373  0.1241
10509TIP3    H153018   0.833   0.167  35.946 -1.8792 -0.0886  0.5324
10509TIP3    H253019   0.900   0.282  35.874  0.8688 -0.7847  1.8545
10510TIP3   OH253020   2.061   2.643  19.710 -0.0783  0.6145  0.2670
10510TIP3    H153021   2.039   2.569  19.653 -0.6034  0.6812  0.3794
10510TIP3    H253022   2.057   2.719  19.652 -2.4160  0.9230  0.7393
10511TIP3   OH253023   0.818   0.674  78.679  0.3049 -0.5279  0.0008
10511TIP3    H153024   0.858   0.709  78.600 -0.3727  0.2696 -0.0060
10511TIP3    H253025   0.737   0.632  78.649  0.8187 -1.5923  0.0835
10512TIP3   OH253026   2.564   0.446  99.368 -0.8965 -0.6887  0.0752
10512TIP3    H153027   2.523   0.361  99.350 -1.3887 -0.1811 -1.3444
10512TIP3    H253028   2.582   0.445  99.462 -0.5829 -2.4974  0.0226
10513TIP3   OH253029   1.166   1.872   3.653  0.0697 -0.1604  0.5081
10513TIP3    H153030   1.107   1.946   3.666  0.7467  0.1973  1.7314
10513TIP3    H253031   1.146   1.812   3.725  0.6099 -0.4289  0.4381
10514TIP3   OH253032   1.857   1.149  10.606  0.3097 -0.2262 -0.0164
10514TIP3    H153033   1.900   1.064  10.591 -0.4892 -0.2452 -2.7064
10514TIP3    H253034   1.765   1.127  10.618  0.2385  0.2139  0.2519
10515TIP3   OH253035   0.873   2.669  16.210 -0.6035  0.5667 -0.4159
10515TIP3    H153036   0.904   2.681  16.300  1.3629  1.1006 -1.1124
10515TIP3    H253037   0.832   2.752  16.188 -1.6208  0.2346  0.1542
10516TIP3   OH253038   1.014   2.168  95.512  0.0505  0.1482 -0.1361
10516TIP3    H153039   1.050   2.087  95.476 -1.2708  0.2813 -1.8663
10516TIP3    H253040   1.048   2.237  95.456  1.1438  0.8337  1.3132
10517TIP3   OH253041   1.843   2.252  95.812 -0.5577  0.4906 -0.0267
10517TIP3    H153042   1.893   2.175  95.841 -0.4831  0.5493 -0.0021
10517TIP3    H253043   1.752   2.228  95.828 -0.6466 -0.2042 -1.4442
10518TIP3   OH253044   0.121   1.697  74.284 -0.1001 -0.0555 -0.1821
10518TIP3    H153045   0.081   1.651  74.209 -1.5440 -0.4838  0.8081
10518TIP3    H253046   0.097   1.788  74.271  1.2851  0.1819 -1.2307
10519TIP3   OH253047   1.386   1.508  80.052  0.3052  0.5870 -0.1822
10519TIP3    H153048   1.458   1.454  80.019  0.1263  0.6145 -0.6240
10519TIP3    H253049   1.319   1.446  80.079  0.5240  0.5598  0.2969
10520TIP3   OH253050   1.657   0.966   8.872 -0.1492  0.5175 -0.0678
10520TIP3    H153051   1.704   0.919   8.803  1.4614  1.5593  0.2663
10520TIP3    H253052   1.642   0.900   8.939  1.6569  0.3050  0.1898
10521TIP3   OH253053   1.397   2.137 111.519 -0.4235 -0.0263  0.4721
10521TIP3    H153054   1.491   2.123 111.509 -0.6172 -1.1010 -0.0621
10521TIP3    H253055   1.366   2.060 111.568 -1.1418 -0.1249 -0.1044
10522TIP3   OH253056   2.309   2.295  99.241 -0.0844 -0.3852  0.6854
10522TIP3    H153057   2.286   2.281  99.333 -0.5392 -2.3088  0.3298
10522TIP3    H253058   2.358   2.217  99.216 -0.0371  0.0620 -0.7297
10523TIP3   OH253059   1.345   1.215  77.831 -0.4316  0.1282  0.1872
10523TIP3    H153060   1.437   1.206  77.854 -0.5262 -0.7120  0.2817
10523TIP3    H253061   1.298   1.201  77.914 -0.6903 -0.8406 -0.1089
10524TIP3   OH253062   1.342   2.110 100.068  0.3291  0.2892  0.2594
10524TIP3    H153063   1.399   2.064 100.006  1.3338 -0.2580  1.5463
10524TIP3    H253064   1.396   2.121 100.146 -1.1308  0.3360  1.2932
10525TIP3   OH253065   0.434   1.760  27.350 -0.1010 -0.5617  0.0474
10525TIP3    H153066   0.402   1.695  27.413  1.4821  0.5034  2.1186
10525TIP3    H253067   0.522   1.781  27.382  0.0242  1.4492 -1.4586
10526TIP3   OH253068   2.552   2.403  14.848 -0.5392  0.1359  0.2537
10526TIP3    H153069   2.523   2.314  14.825 -1.1897  0.1117  1.1365
10526TIP3    H253070   2.639   2.410  14.809 -0.6151 -0.7781 -0.1062
10527TIP3   OH253071   1.194   2.677 109.057 -0.3042  0.2160 -0.3587
10527TIP3    H153072   1.148   2.757 109.084 -0.6046  0.2012 -0.8135
10527TIP3    H253073   1.125   2.622 109.019 -0.4593 -1.0450  1.5944
10528TIP3   OH253074   2.505   0.931  11.189  0.0510 -0.0573 -0.3958
10528TIP3    H153075   2.588   0.882  11.186 -0.1006 -0.4075  0.6980
10528TIP3    H253076   2.525   1.009  11.240 -0.4958 -0.5890  0.6707
10529TIP3   OH253077   1.115   0.111  52.880  0.3659 -0.5373 -0.0091
10529TIP3    H153078   1.118   0.020  52.848 -0.3785 -1.1566  1.5795
10529TIP3    H253079   1.052   0.109  52.952  1.3522  0.9677  0.9429
10530TIP3   OH253080   2.201   2.094  13.667 -0.2449  0.1405  0.0584
10530TIP3    H153081   2.252   2.039  13.726  1.5653  1.6889  0.0143
10530TIP3    H253082   2.266   2.143  13.617 -1.7736  1.7886 -0.4042
10531TIP3   OH253083   2.174   1.963   9.484  0.2067  0.3249  0.4029
10531TIP3    H153084   2.137   2.020   9.416  1.2022 -0.5419 -0.9187
10531TIP3    H253085   2.244   2.014   9.523  1.4319 -0.0935 -1.1222
10532TIP3   OH253086   0.605   1.918 104.211  0.0648  0.1880  0.1195
10532TIP3    H153087   0.514   1.939 104.191  0.5387  1.5748 -0.7238
10532TIP3    H253088   0.641   1.885 104.128  0.4891  0.2070  0.2940
10533TIP3   OH253089   1.038   2.649  93.951 -0.1906  0.1885  0.1339
10533TIP3    H153090   1.132   2.657  93.967 -0.1426  0.1431 -0.1119
10533TIP3    H253091   1.031   2.579  93.886 -0.4873 -0.6300  1.0415
10534TIP3   OH253092   1.805   1.173  18.452 -0.4168  0.0405  0.5348
10534TIP3    H153093   1.890   1.208  18.480 -0.0302 -0.0850 -0.4488
10534TIP3    H253094   1.754   1.167  18.533  0.1520  1.1001  0.9990
10535TIP3   OH253095   0.155   0.769  26.134 -0.0464 -0.0219 -0.4175
10535TIP3    H153096   0.170   0.855  26.096 -1.2219 -0.4061 -1.8558
10535TIP3    H253097   0.233   0.719  26.112 -0.3483  0.0184 -1.6427
10536TIP3   OH253098   2.186   2.590 104.295  0.7660 -0.0105  0.5921
10536TIP3    H153099   2.247   2.524 104.262  0.9893  0.0744  0.8278
10536TIP3    H253100   2.203   2.667 104.240 -0.4967 -0.5754 -0.6425
10537TIP3   OH253101   1.038   0.980  52.299 -0.0772 -0.0765 -0.1975
10537TIP3    H153102   1.016   0.982  52.206  0.1612 -0.3339 -0.2622
10537TIP3    H253103   1.069   0.891  52.315 -0.9231 -0.2865  0.3163
10538TIP3   OH253104   2.215   1.456  37.333 -0.0348  0.0062  0.6967
10538TIP3    H153105   2.153   1.388  37.355  1.0186 -1.3979 -0.4730
10538TIP3    H253106   2.279   1.455  37.404 -0.8382  0.8688  1.4595
10539TIP3   OH253107   0.346   1.117  82.519  0.0224  0.0061  0.1720
10539TIP3    H153108   0.336   1.126  82.424 -1.4583  1.1063  0.3971
10539TIP3    H253109   0.296   1.039  82.541 -0.8553  0.5646  0.2066
10540TIP3   OH253110   0.488   0.618  59.680  0.3998  0.1423  0.6880
10540TIP3    H153111   0.563   0.677  59.684 -0.5241  1.4297 -0.1857
10540TIP3    H253112   0.526   0.533  59.658  1.6475  0.6563  0.7399
10541TIP3   OH253113   2.328   1.125 111.225  0.4371  0.0596 -0.5566
10541TIP3    H153114   2.332   1.049 111.168 -0.3458 -1.1046  0.8635
10541TIP3    H253115   2.303   1.197 111.168 -1.6293 -1.3090 -1.4917
10542TIP3   OH253116   0.423   1.693 109.065 -0.1343 -0.2877  0.2671
10542TIP3    H153117   0.419   1.788 109.064 -0.1390 -0.2810 -1.1775
10542TIP3    H253118   0.464   1.672 109.148 -0.1428  0.9755  0.6109
10543TIP3   OH253119   1.804   1.693  23.864 -0.0737 -0.1543  0.5742
10543TIP3    H153120   1.738   1.748  23.821 -1.8428 -2.1621  0.5635
10543TIP3    H253121   1.878   1.693  23.803 -1.0937  0.0156 -0.7191
10544TIP3   OH253122   1.391   1.938  33.822  0.2065  0.8323  0.2270
10544TIP3    H153123   1.370   1.916  33.913  0.2177  1.7425  0.4606
10544TIP3    H253124   1.487   1.934  33.818  0.1501 -2.2482 -0.5577
10545TIP3   OH253125   0.731   1.252  11.997  0.2521 -0.3596 -0.1160
10545TIP3    H153126   0.678   1.192  12.050  1.3624 -1.3175 -0.0442
10545TIP3    H253127   0.800   1.282  12.056  0.3370  0.1415 -0.4616
10546TIP3   OH253128   0.192   0.893  14.128 -0.5366  0.2347  0.3808
10546TIP3    H153129   0.177   0.923  14.038 -1.7466  1.0315  0.8190
10546TIP3    H253130   0.287   0.894  14.138 -0.3502 -0.3478 -1.0346
10547TIP3   OH253131   2.534   0.001  24.808  0.2327  0.3222  0.5097
10547TIP3    H153132   2.562   0.034  24.723  1.5791 -0.1121  0.7467
10547TIP3    H253133   2.524   0.079  24.862  0.0212  0.5551  0.1348
10548TIP3   OH253134   2.559   1.570  62.824 -0.5251  0.7191 -0.1438
10548TIP3    H153135   2.501   1.646  62.821 -1.8754 -0.1993  1.3941
10548TIP3    H253136   2.501   1.494  62.815  0.5909 -0.1928  0.0389
10549TIP3   OH253137   1.409   1.943  25.600  0.3807  0.2679  0.0330
10549TIP3    H153138   1.480   1.888  25.569  0.6575  0.6459 -0.0186
10549TIP3    H253139   1.411   1.934  25.696 -0.4913 -0.9172 -0.0438
10550TIP3   OH253140   0.041   0.358   9.793 -0.3567 -0.0989  0.1784
10550TIP3    H153141   0.046   0.346   9.888 -1.1556 -0.9160  0.1316
10550TIP3    H253142  -0.003   0.279   9.761 -1.4197  0.8030 -0.7057
10551TIP3   OH253143   0.787   2.124 104.944  0.2481  0.0570 -0.1857
10551TIP3    H153144   0.790   2.039 104.988 -2.9523 -0.5944 -0.9722
10551TIP3    H253145   0.712   2.168 104.983  1.8051  2.5979  0.1635
10552TIP3   OH253146   1.998   0.827  35.957 -0.7348 -0.1716  0.0882
10552TIP3    H153147   2.003   0.901  35.897 -1.9740 -0.8270 -0.8852
10552TIP3    H253148   2.038   0.755  35.909  1.5178  0.0582  1.4680
10553TIP3   OH253149   1.919   2.615  37.415 -0.5722  0.7414  0.7096
10553TIP3    H153150   1.873   2.567  37.484  0.0780  0.5571  1.0172
10553TIP3    H253151   1.974   2.677  37.461  0.3622  0.1681  0.3848
10554TIP3   OH253152   2.135   1.459  47.946 -0.7366 -0.2612  0.1534
10554TIP3    H153153   2.218   1.507  47.954 -0.5901 -0.4019 -0.5085
10554TIP3    H253154   2.161   1.368  47.940 -1.0337 -0.4990  1.8623
10555TIP3   OH253155   2.522   1.913  76.395 -0.3529 -0.0151 -0.1269
10555TIP3    H153156   2.558   1.956  76.473 -0.1798 -0.2740 -0.0616
10555TIP3    H253157   2.555   1.824  76.400 -0.1023  0.0473 -0.6564
10556TIP3   OH253158   1.749   2.476  84.823 -0.3920 -0.0834  0.2115
10556TIP3    H153159   1.760   2.556  84.772  1.9978  0.4639  1.4505
10556TIP3    H253160   1.809   2.413  84.783 -0.3682 -0.4502  0.8137
10557TIP3   OH253161   2.373   0.057  80.355  0.1338 -0.4077 -0.0079
10557TIP3    H153162   2.435   0.066  80.283  0.8635 -0.5143  0.5961
10557TIP3    H253163   2.423   0.080  80.433 -1.3700  2.5835  0.2365
10558TIP3   OH253164   0.356   1.566 108.620 -0.1130  0.6234  0.2796
10558TIP3    H153165   0.387   1.489 108.572 -0.9222  1.2978 -1.4272
10558TIP3    H253166   0.323   1.531 108.703  0.1105 -0.7779 -0.1982
10559TIP3   OH253167   1.327   0.594 101.511 -0.3194 -0.1600  0.2933
10559TIP3    H153168   1.258   0.592 101.577 -0.1569 -0.1633  0.4664
10559TIP3    H253169   1.356   0.503 101.504 -0.3593 -0.1656  0.1926
10560TIP3   OH253170   0.779   0.580  83.467  0.3077  0.2697  0.2205
10560TIP3    H153171   0.753   0.661  83.509 -0.3769  0.3436 -0.3133
10560TIP3    H253172   0.798   0.605  83.376  0.2600 -0.1346  0.0969
10561TIP3   OH253173   1.223   0.086  84.596  0.3963  0.4640  0.3634
10561TIP3    H153174   1.217   0.138  84.676 -1.1674  1.3879 -0.3000
10561TIP3    H253175   1.251   0.149  84.529 -1.2842  0.4481 -0.4061
10562TIP3   OH253176   0.596   0.353  90.278  0.2820 -0.2214 -0.2084
10562TIP3    H153177   0.565   0.297  90.349  0.1256 -0.4556 -0.4622
10562TIP3    H253178   0.669   0.402  90.316  1.1583 -1.4084 -0.2880
10563TIP3   OH253179   2.133   2.264 107.609  0.6029 -0.2020 -0.6653
10563TIP3    H153180   2.082   2.282 107.688  2.6835  2.9265  0.1289
10563TIP3    H253181   2.184   2.186 107.630 -0.0755 -0.3791  0.4011
10564TIP3   OH253182   0.521   1.710  69.562  0.2956 -0.6292 -0.6093
10564TIP3    H153183   0.597   1.673  69.606  0.6515 -1.7412 -2.1030
10564TIP3    H253184   0.547   1.800  69.541  0.4640 -0.3830  0.5608
10565TIP3   OH253185   2.651   2.020  99.964  0.0704  0.1930  0.1547
10565TIP3    H153186   2.708   1.948  99.992 -0.1768 -0.0210  0.1129
10565TIP3    H253187   2.707   2.098  99.968  0.9264 -0.2590 -1.6667
10566TIP3   OH253188   2.035   0.917  89.239 -0.0482  0.0067  0.4594
10566TIP3    H153189   1.989   0.846  89.193  1.9018 -0.9998 -0.0483
10566TIP3    H253190   1.990   0.925  89.323 -1.7239 -0.2645 -0.3707
10567TIP3   OH253191   2.032   1.881  36.952 -0.1924  0.5182  0.1357
10567TIP3    H153192   2.012   1.802  36.903 -1.3495 -0.9129  2.7382
10567TIP3    H253193   2.011   1.953  36.892 -1.2730 -1.0970 -1.5133
10568TIP3   OH253194   2.662   0.915  24.506  0.3295  0.5214  0.1232
10568TIP3    H153195   2.605   0.875  24.571 -0.2324  0.4387 -0.4170
10568TIP3    H253196   2.716   0.976  24.556 -0.7123  1.1211  0.5327
10569TIP3   OH253197   0.905   2.372  33.796  0.0364 -0.2237  0.0464
10569TIP3    H153198   0.873   2.331  33.877 -1.1825 -0.7389 -0.6710
10569TIP3    H253199   1.000   2.373  33.806 -0.1143  1.4458  2.3296
10570TIP3   OH253200   2.056   1.072  37.500  0.0159  0.4548 -0.1569
10570TIP3    H153201   2.137   1.034  37.533 -0.5666  1.4450  2.7105
10570TIP3    H253202   2.013   1.001  37.452  1.0735 -1.0840  1.0826
10571TIP3   OH253203   0.585   2.214  80.910  0.3069 -0.3170 -0.3000
10571TIP3    H153204   0.580   2.267  80.831  0.8571  0.6598  0.3015
10571TIP3    H253205   0.669   2.237  80.950 -0.0488 -0.6290  0.6752
10572TIP3   OH253206   2.008   2.380  23.380  0.2066  0.0528 -0.2317
10572TIP3    H153207   2.088   2.353  23.425 -0.3730  1.7988  2.0456
10572TIP3    H253208   2.036   2.451  23.322  0.4073  0.3602  0.2328
10573TIP3   OH253209   1.114   0.591  95.161 -0.3703  0.0135 -0.4033
10573TIP3    H153210   1.147   0.600  95.071  1.1272  0.8220  0.1964
10573TIP3    H253211   1.038   0.649  95.164  0.5106  1.2480 -0.7423
10574TIP3   OH253212   0.642   0.997   0.559 -0.2296 -0.2170 -0.1072
10574TIP3    H153213   0.655   1.089   0.534  1.5032  0.0865  1.6850
10574TIP3    H253214   0.564   0.970   0.510 -1.3492  2.4802  0.0056
10575TIP3   OH253215   0.998   0.024  26.755 -0.5148 -0.2159  0.1121
10575TIP3    H153216   1.036  -0.052  26.799 -0.2259  1.0271  2.1283
10575TIP3    H253217   1.056   0.040  26.680  0.5991 -0.7652  0.8327
10576TIP3   OH253218   0.543   2.429   5.218 -0.6285  0.2444  0.0645
10576TIP3    H153219   0.610   2.361   5.219 -1.3192 -0.4663  1.4853
10576TIP3    H253220   0.580   2.500   5.271 -0.2080  0.6921 -0.8094
10577TIP3   OH253221   2.501   0.627  39.843  0.3587 -0.4231 -0.4413
10577TIP3    H153222   2.541   0.595  39.924 -0.0527 -0.8533 -0.4074
10577TIP3    H253223   2.455   0.706  39.869 -1.2900 -1.5261  0.1309
10578TIP3   OH253224   1.228   2.494  47.872  0.2063  0.2763  0.0677
10578TIP3    H153225   1.258   2.470  47.784 -1.1946 -0.1980 -0.3004
10578TIP3    H253226   1.300   2.468  47.929  1.4410  1.2319 -0.9874
10579TIP3   OH253227   0.732   1.960  88.629 -0.4899 -0.0676 -0.7918
10579TIP3    H153228   0.653   1.997  88.591  0.2472  0.4694 -1.8778
10579TIP3    H253229   0.770   1.907  88.558  0.5130  0.2943 -0.5439
10580TIP3   OH253230   2.365   1.381   4.479  0.6340 -0.0706  0.2102
10580TIP3    H153231   2.444   1.343   4.441  1.4463  1.2798  0.5101
10580TIP3    H253232   2.395   1.429   4.555 -0.6275 -0.4041  0.9498
10581TIP3   OH253233   0.982   0.217  57.472 -0.6765 -0.6975  0.4727
10581TIP3    H153234   0.975   0.244  57.564 -0.0743  0.7485  0.1220
10581TIP3    H253235   1.063   0.166  57.469 -0.5763 -0.5571  0.7054
10582TIP3   OH253236   1.529   0.883  85.972  0.1891 -0.0173 -0.4716
10582TIP3    H153237   1.578   0.956  85.934 -0.0154  0.2670 -0.1855
10582TIP3    H253238   1.582   0.806  85.952  1.1763  0.3792  0.5587
10583TIP3   OH253239   0.043   1.324   3.723  0.5833 -0.0140  0.1484
10583TIP3    H153240   0.087   1.244   3.695  0.2539 -0.1780  0.0886
10583TIP3    H253241  -0.008   1.352   3.647 -0.3472 -0.4871  0.5818
10584TIP3   OH253242   0.651   1.826  33.978  0.3651 -0.1218 -0.3847
10584TIP3    H153243   0.564   1.848  34.011  0.4792 -0.7418  0.3855
10584TIP3    H253244   0.666   1.886  33.905 -0.5630  0.2201 -0.3044
10585TIP3   OH253245   1.241   1.360  82.170 -0.0988  0.2256 -0.2217
10585TIP3    H153246   1.275   1.333  82.255 -2.4013 -1.3560  0.2901
10585TIP3    H253247   1.244   1.282  82.116 -2.3648  0.0753 -0.2656
10586TIP3   OH253248   1.541   0.202   3.303  0.3827 -0.3707  0.2641
10586TIP3    H153249   1.544   0.209   3.207 -0.4411 -0.4207  0.2263
10586TIP3    H253250   1.552   0.109   3.321  0.2717 -0.3973  0.1984
10587TIP3   OH253251   0.298   0.889  29.210  0.1631 -0.0772 -0.3792
10587TIP3    H153252   0.255   0.840  29.280 -0.7184  0.3585 -0.5966
10587TIP3    H253253   0.254   0.974  29.210  1.5425  0.6737 -0.1152
10588TIP3   OH253254   0.507   1.187  85.142 -0.1424 -0.6079  0.0724
10588TIP3    H153255   0.448   1.261  85.158  0.2294 -0.4810  0.9229
10588TIP3    H253256   0.465   1.114  85.188  0.2667 -0.5549  0.5481
10589TIP3   OH253257   2.219   0.689  74.688  0.2245 -0.1366  0.4582
10589TIP3    H153258   2.168   0.653  74.615 -0.3402 -2.5960  1.9687
10589TIP3    H253259   2.212   0.784  74.677  1.8374 -0.2990 -3.7873
10590TIP3   OH253260   1.608   1.816 111.404  0.2912  0.5005 -0.1267
10590TIP3    H153261   1.539   1.752 111.391  1.1047 -0.4042 -0.0566
10590TIP3    H253262   1.642   1.799 111.491 -0.4291  1.9776  0.4833
10591TIP3   OH253263   1.786   2.127  14.599  0.5236  0.0648 -0.6359
10591TIP3    H153264   1.765   2.034  14.592  3.1022 -0.6097 -0.2383
10591TIP3    H253265   1.792   2.144  14.693 -0.6424  0.8515 -0.6745
10592TIP3   OH253266   2.592   0.085  17.207  0.3687  0.0978  0.0830
10592TIP3    H153267   2.585   0.152  17.139  1.1115 -1.3861 -1.5423
10592TIP3    H253268   2.647   0.125  17.274  0.1240  1.4031 -0.4653
10593TIP3   OH253269   2.488   2.238  35.689  0.4570  0.7403  0.5980
10593TIP3    H153270   2.410   2.185  35.708  2.4203 -3.1230 -1.0431
10593TIP3    H253271   2.523   2.261  35.775  0.2230 -1.9404  1.4868
10594TIP3   OH253272   1.229   0.045  98.215  0.3768 -0.2660  0.2080
10594TIP3    H153273   1.153  -0.012  98.205  0.3293 -0.1759  0.0449
10594TIP3    H253274   1.225   0.075  98.306  0.4925 -0.6430  0.3403
10595TIP3   OH253275   1.275   0.719  87.404  0.3909 -0.6041  0.0162
10595TIP3    H153276   1.214   0.778  87.449  1.0720 -0.2235  0.4587
10595TIP3    H253277   1.314   0.667  87.475  2.1516  0.6292  0.0118
10596TIP3   OH253278   2.633   0.788  33.256 -0.4183 -0.8368  0.4486
10596TIP3    H153279   2.728   0.794  33.271 -0.2795 -0.4034 -0.5600
10596TIP3    H253280   2.597   0.863  33.303 -0.1623 -0.4647  0.0594
10597TIP3   OH253281   1.267   2.517  82.864  0.5201  0.6742 -0.2114
10597TIP3    H153282   1.219   2.464  82.800  0.7502 -1.0975  1.0046
10597TIP3    H253283   1.203   2.582  82.894 -0.2307  0.1949 -0.7207
10598TIP3   OH253284   1.646   0.852  80.245 -0.0499 -0.2052 -0.4421
10598TIP3    H153285   1.582   0.859  80.175 -0.0714 -1.5175 -0.5817
10598TIP3    H253286   1.717   0.912  80.220 -1.0220  0.9621 -0.4748
10599TIP3   OH253287   0.486   1.784  80.987  0.4456  0.8894 -0.0215
10599TIP3    H153288   0.560   1.723  80.986 -0.1595  0.1321 -0.1459
10599TIP3    H253289   0.512   1.855  80.928  0.9444  0.4824 -0.2992
10600TIP3   OH253290   0.710   0.488  27.513  0.1875 -0.1902 -0.0699
10600TIP3    H153291   0.694   0.582  27.523  2.1251  0.1421  0.2684
10600TIP3    H253292   0.628   0.453  27.478 -0.6067  1.6032 -0.0878
10601TIP3   OH253293   2.011   1.441  99.557 -0.3642 -0.1319  0.4635
10601TIP3    H153294   1.941   1.375  99.556  0.2667 -0.8182 -0.8712
10601TIP3    H253295   2.060   1.425  99.477  0.4839  1.2606  0.6722
10602TIP3   OH253296   1.794   1.422  18.671  0.2749 -0.2503  0.2255
10602TIP3    H153297   1.702   1.451  18.673 -0.0505 -1.1389 -0.7353
10602TIP3    H253298   1.789   1.327  18.677  1.1556 -0.2913  0.4092
10603TIP3   OH253299   1.959   0.490   0.417  0.2062 -0.1029  0.1393
10603TIP3    H153300   2.047   0.495   0.454  0.8939 -0.1910 -1.4033
10603TIP3    H253301   1.923   0.578   0.429  0.1437 -0.2883  1.5423
10604TIP3   OH253302   1.583   1.108  78.649 -0.0856 -0.7566  0.4550
10604TIP3    H153303   1.553   1.199  78.653 -0.2314 -0.7812 -0.0177
10604TIP3    H253304   1.506   1.058  78.620  0.2223 -0.9140 -0.1031
10605TIP3   OH253305   2.155   1.550  98.947  1.1283 -0.0032 -0.1678
10605TIP3    H153306   2.194   1.470  98.982  2.8073  1.4057  1.3894
10605TIP3    H253307   2.212   1.621  98.979 -1.8226  2.0933  0.9219
10606TIP3   OH253308   2.158   1.430   2.703 -0.2750  0.1443  0.0531
10606TIP3    H153309   2.232   1.388   2.747 -0.8175 -2.5770 -1.4108
10606TIP3    H253310   2.096   1.447   2.773  0.6762  0.0444  0.9463
10607TIP3   OH253311   1.782   2.311 101.998 -0.3694 -0.3717 -0.3206
10607TIP3    H153312   1.800   2.397 101.959 -2.0551  0.6119  0.9629
10607TIP3    H253313   1.804   2.322 102.090  2.6971 -2.4026 -0.6760
10608TIP3   OH253314   0.492   1.954  28.284 -0.0614  0.6484  0.3964
10608TIP3    H153315   0.417   1.941  28.342 -0.5026  2.9244  0.4332
10608TIP3    H253316   0.463   1.919  28.200 -0.1192 -0.9384  1.0432
10609TIP3   OH253317   2.505   2.312  77.983  0.7875  0.5099  0.0482
10609TIP3    H153318   2.459   2.229  77.971  1.5854 -0.3502  2.4664
10609TIP3    H253319   2.538   2.333  77.895 -1.7650 -0.2304 -1.2129
10610TIP3   OH253320   2.154   0.790 111.064 -0.1258  0.1035  0.2476
10610TIP3    H153321   2.216   0.827 111.001 -0.5298 -3.6390 -2.7431
10610TIP3    H253322   2.205   0.725 111.112 -0.8619 -0.2319  0.5799
10611TIP3   OH253323   2.358   0.910   1.002 -0.3881 -0.7544 -0.2969
10611TIP3    H153324   2.272   0.869   0.989 -0.3797 -0.7294 -0.4266
10611TIP3    H253325   2.390   0.927   0.914 -0.4829 -0.2689 -0.2378
10612TIP3   OH253326   0.255   2.667 100.389  0.2845 -0.2662  1.1016
10612TIP3    H153327   0.263   2.576 100.420  0.8361 -0.4621  0.4115
10612TIP3    H253328   0.190   2.663 100.320  0.8614 -0.2781  0.5484
10613TIP3   OH253329   1.511   2.518  97.387  0.6934 -0.1476 -0.3235
10613TIP3    H153330   1.525   2.427  97.361  1.2903 -0.0186 -0.4859
10613TIP3    H253331   1.460   2.513  97.468 -1.0575 -0.5676 -1.3924
10614TIP3   OH253332   0.454   1.996  30.155 -0.2442  0.2768  0.2522
10614TIP3    H153333   0.490   1.923  30.103 -0.9698  0.7723 -0.9793
10614TIP3    H253334   0.525   2.061  30.156  0.2856 -0.2937  1.0825
10615TIP3   OH253335   0.600   1.009  30.015 -0.3142  0.2167 -0.3069
10615TIP3    H153336   0.551   0.935  29.979  0.9203 -0.4710 -0.6585
10615TIP3    H253337   0.576   1.083  29.960 -0.3004 -0.3002 -1.0269
10616TIP3   OH253338   2.670   2.667   4.961  0.4050  0.0320 -0.0071
10616TIP3    H153339   2.755   2.694   4.996  0.2503  1.5527 -0.7216
10616TIP3    H253340   2.607   2.726   5.001 -0.1982 -0.4505 -0.2281
10617TIP3   OH253341   1.798   0.955  19.714  0.0944 -0.8780  0.4256
10617TIP3    H153342   1.885   0.920  19.697  1.0137  0.9273  1.1782
10617TIP3    H253343   1.808   1.006  19.795 -2.2024 -2.5000  1.8460
10618TIP3   OH253344   2.444   0.897  77.628 -0.1448 -0.0253  0.0435
10618TIP3    H153345   2.439   0.802  77.625 -2.1631  0.0580 -2.5511
10618TIP3    H253346   2.367   0.924  77.679  1.2177  0.2539  2.0590
10619TIP3   OH253347   1.949   1.489  80.752 -0.7103  0.0688 -0.1055
10619TIP3    H153348   1.868   1.458  80.712 -1.4019 -0.8785  1.8772
10619TIP3    H253349   2.015   1.425  80.726 -0.6424  0.6558 -1.4525
10620TIP3   OH253350   1.193   0.604  87.903 -0.1278 -0.1753  0.2238
10620TIP3    H153351   1.161   0.688  87.936 -2.2688 -1.0212  0.4290
10620TIP3    H253352   1.122   0.571  87.848  1.7117 -0.6874 -1.9914
10621TIP3   OH253353   2.625   1.383  48.340  0.0461 -0.1781  1.1130
10621TIP3    H153354   2.628   1.433  48.422  0.3517  0.2081  0.8652
10621TIP3    H253355   2.715   1.385  48.308 -0.1874  0.1598  0.4650
10622TIP3   OH253356   0.239   0.350   7.510 -0.4448 -0.3882 -0.0372
10622TIP3    H153357   0.286   0.267   7.503  0.5693 -0.0066  1.6528
10622TIP3    H253358   0.147   0.325   7.522 -0.3496 -1.2120 -0.9567
10623TIP3   OH253359   1.061   1.846 111.777  0.1893 -0.1023  0.2017
10623TIP3    H153360   0.973   1.878 111.799  0.1300  0.5812 -0.9174
10623TIP3    H253361   1.105   1.922 111.740  2.0497  0.1842  2.7566
10624TIP3   OH253362   0.639   0.233 111.259 -0.0264  0.0119 -0.0312
10624TIP3    H153363   0.615   0.174 111.331 -0.0637  0.6015  0.4550
10624TIP3    H253364   0.564   0.292 111.251  0.0273  0.0169 -0.4829
10625TIP3   OH253365   1.001   1.257   9.884  0.0746  0.3848 -0.4878
10625TIP3    H153366   1.002   1.278   9.791  1.4818  0.9030 -0.3760
10625TIP3    H253367   1.073   1.307   9.921 -1.0558  0.9543  1.0611
10626TIP3   OH253368   0.770   0.249 102.912 -0.0760  0.7995  0.3929
10626TIP3    H153369   0.813   0.180 102.863 -1.2065  0.5613 -0.3109
10626TIP3    H253370   0.837   0.281 102.973  1.0964  0.5243 -0.7122
10627TIP3   OH253371   0.681   2.251 102.352  0.1415  0.0447 -0.8437
10627TIP3    H153372   0.735   2.285 102.423  0.1597 -2.3678  0.4034
10627TIP3    H253373   0.728   2.275 102.272  0.6864  1.8812 -0.0156
10628TIP3   OH253374   0.037   1.323  75.386 -0.0495 -0.4751  0.2459
10628TIP3    H153375  -0.001   1.304  75.301  0.8947 -1.2299 -0.0235
10628TIP3    H253376   0.040   1.418  75.390 -1.9504 -0.3673  0.2966
10629TIP3   OH253377   0.956   1.543  91.756 -0.2289 -0.4897 -0.2143
10629TIP3    H153378   0.997   1.512  91.836 -0.4463  0.0478  0.1064
10629TIP3    H253379   0.916   1.464  91.718 -0.1618 -0.7362  0.2152
10630TIP3   OH253380   2.283   2.406  27.539  0.7079 -0.7145  0.1423
10630TIP3    H153381   2.280   2.311  27.530  0.4790 -0.8801  1.7847
10630TIP3    H253382   2.208   2.428  27.595 -0.2585  0.6322 -1.5752
10631TIP3   OH253383   0.877   2.498  73.676  0.3800 -0.0160 -0.0086
10631TIP3    H153384   0.817   2.479  73.748 -1.3100  2.3122 -0.6893
10631TIP3    H253385   0.856   2.588  73.650  5.1981  1.6168  0.6842
10632TIP3   OH253386   0.671   0.433   7.696  0.2559  0.2327 -0.1176
10632TIP3    H153387   0.677   0.345   7.658 -0.7559  0.7263 -1.4953
10632TIP3    H253388   0.720   0.489   7.635 -0.9821  0.9614 -0.4872
10633TIP3   OH253389   2.603   2.569 110.444  0.2789  0.0937  0.3454
10633TIP3    H153390   2.602   2.477 110.417 -1.9660  0.4881 -1.1464
10633TIP3    H253391   2.638   2.616 110.368 -2.2682  0.8023 -0.4867
10634TIP3   OH253392   1.242   1.510  21.179 -0.1396 -0.4317 -0.3318
10634TIP3    H153393   1.162   1.557  21.157  1.1192  1.5349 -0.9328
10634TIP3    H253394   1.212   1.434  21.229 -2.2766  1.0283  0.7716
10635TIP3   OH253395   2.556   1.279  95.839  0.0314 -0.3750 -0.2697
10635TIP3    H153396   2.647   1.251  95.838  0.6333  1.4416 -1.9633
10635TIP3    H253397   2.506   1.198  95.829  1.4463 -1.3392  0.1551
10636TIP3   OH253398   1.356   2.050  97.787 -0.2133  0.1508 -0.2936
10636TIP3    H153399   1.381   1.969  97.742  4.0098  0.5748  0.8257
10636TIP3    H253400   1.302   2.022  97.861  0.6472 -1.6130 -0.2862
10637TIP3   OH253401   0.468   0.195 101.162 -0.5306 -0.1225  0.6963
10637TIP3    H153402   0.414   0.195 101.084 -0.8976 -0.4967  0.9475
10637TIP3    H253403   0.528   0.269 101.150 -0.1208 -0.6005 -0.2468
10638TIP3   OH253404   0.097   0.655  32.630 -0.3766 -0.4073  0.2556
10638TIP3    H153405   0.144   0.675  32.711 -0.5122 -1.6065  0.6510
10638TIP3    H253406   0.033   0.588  32.655  0.2476 -1.5248 -1.0205
10639TIP3   OH253407   1.290   1.982 103.434 -0.5516  0.5600  0.0066
10639TIP3    H153408   1.222   1.978 103.502 -1.4817  1.0899 -0.8530
10639TIP3    H253409   1.350   2.050 103.465 -0.1443 -0.2293  1.0014
10640TIP3   OH253410   1.121   0.139   2.713 -0.1320 -0.3259 -0.2367
10640TIP3    H153411   1.137   0.066   2.654 -0.7104 -0.7814  0.1627
10640TIP3    H253412   1.208   0.172   2.735  0.1552 -1.2182 -0.0155
10641TIP3   OH253413   0.574   0.199  85.719  0.4965 -0.0233 -0.6896
10641TIP3    H153414   0.580   0.105  85.703 -0.7894 -0.7368  2.3727
10641TIP3    H253415   0.481   0.216  85.730  0.8709  0.8987  1.9078
10642TIP3   OH253416   1.929   2.001 102.510 -0.0739 -0.1489 -0.1239
10642TIP3    H153417   2.012   2.042 102.485  0.2746 -0.2139  0.8825
10642TIP3    H253418   1.947   1.958 102.593 -0.9490 -0.7278 -0.2123
10643TIP3   OH253419   2.630   2.666  25.559  0.2785 -0.0380  0.1253
10643TIP3    H153420   2.705   2.611  25.582 -0.4896 -0.7870  0.8865
10643TIP3    H253421   2.602   2.634  25.473  0.8292  0.2616 -0.1748
10644TIP3   OH253422   1.176   1.115  90.321 -0.7042  0.0303 -0.2773
10644TIP3    H153423   1.109   1.050  90.301 -0.3164 -0.1680 -0.9845
10644TIP3    H253424   1.143   1.196  90.282 -0.4419 -0.1191 -0.8320
10645TIP3   OH253425   2.070   0.330  28.067  0.4787  0.2394 -0.3396
10645TIP3    H153426   2.150   0.290  28.099  0.7454  0.4370 -0.7494
10645TIP3    H253427   2.079   0.328  27.972 -0.2890 -0.3242 -0.4114
10646TIP3   OH253428   1.644   0.161  31.000  0.8131  0.6153  0.2059
10646TIP3    H153429   1.737   0.146  31.019  0.7728  0.7205  0.4981
10646TIP3    H253430   1.614   0.080  30.959  0.2625 -0.6992  2.9683
10647TIP3   OH253431   2.496   0.625  22.407 -0.1777  0.1852  0.2402
10647TIP3    H153432   2.574   0.631  22.352  0.0320  2.9706  0.6551
10647TIP3    H253433   2.529   0.630  22.496 -0.6654 -2.1226  0.6111
10648TIP3   OH253434   1.387   0.609  12.308 -0.0666 -0.1849 -0.4524
10648TIP3    H153435   1.347   0.694  12.291  0.5626  0.1114 -0.4813
10648TIP3    H253436   1.320   0.545  12.282 -0.3609  0.2950 -0.8888
10649TIP3   OH253437   1.372   1.260  11.087 -0.3176  0.0933  0.0460
10649TIP3    H153438   1.376   1.299  10.999  1.3247 -1.8438 -0.8214
10649TIP3    H253439   1.430   1.315  11.140 -0.1859  0.4295 -0.4341
10650TIP3   OH253440   1.105   1.006   1.796 -0.0671  0.0764  0.4411
10650TIP3    H153441   1.034   1.044   1.846  0.6446 -0.9562  2.3417
10650TIP3    H253442   1.178   1.068   1.805 -0.0282  0.0316  0.4402
10651TIP3   OH253443   0.557   0.718  27.579  0.1515  0.2291 -0.6744
10651TIP3    H153444   0.570   0.783  27.648 -2.2252  0.3353 -0.2284
10651TIP3    H253445   0.505   0.764  27.513  0.7342 -0.4597 -1.6357
10652TIP3   OH253446   1.622   1.337  81.997 -0.6648  0.1963 -0.2443
10652TIP3    H153447   1.606   1.345  81.902 -1.8950 -0.3219 -0.0917
10652TIP3    H253448   1.611   1.244  82.015 -2.2424  0.5392  0.7070
10653TIP3   OH253449   0.551   2.578  12.550  0.0427 -0.0444  0.0412
10653TIP3    H153450   0.590   2.664  12.533 -0.4842  0.4271  1.0706
10653TIP3    H253451   0.591   2.520  12.486  1.5237  0.6631  0.2733
10654TIP3   OH253452   1.638   0.515  12.341 -0.4412 -0.2031 -0.3207
10654TIP3    H153453   1.550   0.551  12.336 -0.7641 -0.9407 -0.1278
10654TIP3    H253454   1.695   0.591  12.345 -1.0652  0.2834 -0.4863
10655TIP3   OH253455   2.274   1.583   0.079 -0.2239  0.1818  0.3733
10655TIP3    H153456   2.257   1.489   0.073  0.5257  0.1103 -1.0280
10655TIP3    H253457   2.207   1.623   0.023 -0.3343  0.4616  0.6992
10656TIP3   OH253458   0.050   1.341  68.450  0.4987 -0.0112  1.1984
10656TIP3    H153459   0.011   1.428  68.457 -1.3561 -0.3854 -2.0687
10656TIP3    H253460   0.134   1.355  68.406  0.0994  0.1789  0.4588
10657TIP3   OH253461   1.523   0.492  13.884  0.0006 -0.0277 -0.0000
10657TIP3    H153462   1.463   0.542  13.939  1.0598  0.7861  0.4759
10657TIP3    H253463   1.577   0.559  13.841  1.3349 -0.7318  0.5026
10658TIP3   OH253464   2.457   1.489  21.118 -0.2774  0.3957 -0.1072
10658TIP3    H153465   2.454   1.394  21.129 -1.2938  0.4252 -0.0463
10658TIP3    H253466   2.401   1.507  21.043 -1.0982  1.0481  0.6368
10659TIP3   OH253467   2.027   1.461  12.812  0.2638  0.0994 -0.0921
10659TIP3    H153468   2.099   1.398  12.805 -0.4521 -1.1544  2.6657
10659TIP3    H253469   1.989   1.463  12.724  2.4694 -0.6036 -1.1515
10660TIP3   OH253470   2.300   0.581  25.279 -0.4035 -0.2835 -0.5623
10660TIP3    H153471   2.369   0.573  25.212 -0.6179  0.1420 -0.8391
10660TIP3    H253472   2.345   0.563  25.361 -0.0676 -0.5088 -0.7880
10661TIP3   OH253473   2.660   0.368  86.024 -0.1116  0.0343  0.4305
10661TIP3    H153474   2.742   0.391  86.067 -1.3661  2.3271  1.8054
10661TIP3    H253475   2.631   0.288  86.069  1.7524 -1.4224 -0.7724
10662TIP3   OH253476   1.316   1.049  58.827 -0.5953  0.0935  0.0144
10662TIP3    H153477   1.307   0.967  58.779  1.3536 -0.0679 -0.1310
10662TIP3    H253478   1.231   1.093  58.816 -1.8093 -2.0403  0.4060
10663TIP3   OH253479   0.859   1.875  32.245 -0.0608 -0.0388  0.0023
10663TIP3    H153480   0.783   1.835  32.203  0.2930 -1.9170  1.0235
10663TIP3    H253481   0.899   1.803  32.295  1.6467  1.2088  0.5177
10664TIP3   OH253482   0.164   1.865  22.675 -0.2190 -0.4159 -0.2943
10664TIP3    H153483   0.097   1.911  22.726  0.6272  0.3340  0.1761
10664TIP3    H253484   0.194   1.795  22.734  1.7166  1.2774  0.8491
10665TIP3   OH253485   1.786   2.354  79.286 -0.0060  0.0346  0.5438
10665TIP3    H153486   1.862   2.359  79.228  0.6729 -1.0750  1.2736
10665TIP3    H253487   1.782   2.262  79.311 -1.3557  0.1625  0.8535
10666TIP3   OH253488   1.219   1.802 102.962  0.2471  0.0925 -0.1834
10666TIP3    H153489   1.196   1.855 103.039  1.6276 -0.5419  0.7014
10666TIP3    H253490   1.219   1.712 102.994 -1.1339 -0.3874 -1.4462
10667TIP3   OH253491   2.323   1.452  11.228 -0.1009 -0.0192 -0.0979
10667TIP3    H153492   2.334   1.455  11.133  2.1457 -0.8651  0.0795
10667TIP3    H253493   2.254   1.516  11.246  0.5052  1.3036 -2.1367
10668TIP3   OH253494   1.987   1.608 103.253 -0.3885  0.1716 -0.3580
10668TIP3    H153495   1.963   1.551 103.326 -0.6022 -0.3192 -0.8014
10668TIP3    H253496   1.966   1.697 103.283 -0.3243 -0.0134  0.2354
10669TIP3   OH253497   0.198   1.023  10.778  0.2373  0.2731 -0.0737
10669TIP3    H153498   0.227   1.113  10.794  1.2220  0.4426 -2.4156
10669TIP3    H253499   0.102   1.027  10.782  0.2452  1.5748 -0.7732
10670TIP3   OH253500   0.697   1.018  35.556 -0.1981  0.8296  0.3291
10670TIP3    H153501   0.690   1.040  35.649  0.1700 -0.6900  0.7396
10670TIP3    H253502   0.674   1.099  35.511 -1.0179  1.4215  1.7359
10671TIP3   OH253503   0.279   0.517  94.827  0.5768  0.3250 -0.2389
10671TIP3    H153504   0.282   0.597  94.880  0.2730  0.3246 -0.2222
10671TIP3    H253505   0.293   0.547  94.737 -0.4050  0.5090 -0.3448
10672TIP3   OH253506   1.532   1.915  82.226  0.5452 -0.4649 -0.4094
10672TIP3    H153507   1.513   1.844  82.287  1.3312 -0.5128 -0.2167
10672TIP3    H253508   1.627   1.915  82.217  0.4965  0.0591 -1.0168
10673TIP3   OH253509   2.482   0.737   9.886  0.0678  0.0172 -0.0477
10673TIP3    H153510   2.437   0.692   9.814 -0.3056 -2.1309  1.4294
10673TIP3    H253511   2.566   0.763   9.848  0.2294 -1.7999 -1.0856
10674TIP3   OH253512   1.557   1.290  79.622  0.1592 -0.0309 -0.2721
10674TIP3    H153513   1.557   1.318  79.714  1.1052 -0.3313 -0.1645
10674TIP3    H253514   1.475   1.323  79.586 -1.2592 -1.7500  1.2361
10675TIP3   OH253515   1.207   0.087  16.285 -0.1206  0.1829 -0.3476
10675TIP3    H153516   1.141   0.072  16.353 -3.0554  1.0884 -2.7494
10675TIP3    H253517   1.234  -0.000  16.258 -1.4666 -0.2708 -0.2842
10676TIP3   OH253518   0.352   0.414  41.867 -0.1149  0.4982 -0.1130
10676TIP3    H153519   0.435   0.384  41.830  0.0972 -0.4493  1.0795
10676TIP3    H253520   0.354   0.384  41.958 -2.7319 -1.5585 -0.6323
10677TIP3   OH253521   1.643   1.470  36.630  0.0948 -0.1815  0.6153
10677TIP3    H153522   1.562   1.430  36.597  1.7984 -2.4512 -1.1197
10677TIP3    H253523   1.669   1.414  36.703 -0.3297  1.1001  1.7953
10678TIP3   OH253524   1.772   0.123   1.536  0.0964  0.3061 -0.1523
10678TIP3    H153525   1.726   0.205   1.518  0.6915  0.5543 -0.5642
10678TIP3    H253526   1.793   0.089   1.449 -1.0053 -0.7806 -0.0227
10679TIP3   OH253527   0.734   1.118 102.640 -0.2332 -0.2594 -0.3074
10679TIP3    H153528   0.668   1.183 102.616 -1.1156 -0.4966  1.3220
10679TIP3    H253529   0.817   1.163 102.631 -0.6539  0.3127 -1.5803
10680TIP3   OH253530   2.317   0.054   0.737  0.6539  0.1848  0.3031
10680TIP3    H153531   2.280   0.130   0.692  1.0956 -0.9018 -2.0683
10680TIP3    H253532   2.252   0.030   0.803  0.0827  2.0149  0.4604
10681TIP3   OH253533   0.068   1.355  93.829 -0.0205 -0.2504 -0.1027
10681TIP3    H153534   0.036   1.326  93.744 -1.3893 -1.5639  0.8031
10681TIP3    H253535   0.120   1.282  93.862  1.5367  0.7246 -0.2944
10682TIP3   OH253536   1.360   1.211  35.995 -0.5516 -0.2970 -0.6029
10682TIP3    H153537   1.350   1.122  35.959 -0.3102 -0.3390 -0.5646
10682TIP3    H253538   1.348   1.268  35.919 -1.5085 -0.3228 -0.4914
10683TIP3   OH253539   0.831   0.261  15.212  0.0115 -0.0550 -0.6192
10683TIP3    H153540   0.832   0.244  15.306  0.2989  0.2503 -0.5655
10683TIP3    H253541   0.831   0.174  15.172 -0.1698 -0.1854 -0.3374
10684TIP3   OH253542   0.534   1.726  66.536 -0.7894  0.1302 -0.6326
10684TIP3    H153543   0.478   1.802  66.520 -0.3900  0.0734 -2.4910
10684TIP3    H253544   0.489   1.654  66.491  0.9126  0.1488 -2.4399
10685TIP3   OH253545   2.120   0.374  37.359  0.2878  0.0511 -0.3927
10685TIP3    H153546   2.205   0.331  37.358 -0.1578 -0.8659 -0.2150
10685TIP3    H253547   2.094   0.371  37.451  0.5320  1.2991 -0.2643
10686TIP3   OH253548   1.382   0.058  91.727  0.0432 -0.0928 -0.2840
10686TIP3    H153549   1.300   0.092  91.761  1.2642 -0.0063  2.8915
10686TIP3    H253550   1.391  -0.029  91.766  2.2181  0.5890  0.9074
10687TIP3   OH253551   2.093   0.668  27.875 -0.1924 -0.1391 -0.2447
10687TIP3    H153552   2.027   0.717  27.923 -0.3053  1.7230 -2.1482
10687TIP3    H253553   2.045   0.620  27.808  0.2395  0.2248 -0.8333
10688TIP3   OH253554   0.049   1.513  87.550 -0.4255  0.5313 -0.7390
10688TIP3    H153555   0.035   1.605  87.574 -1.5846  0.7781 -2.2097
10688TIP3    H253556   0.059   1.515  87.455 -0.5298 -0.8863 -0.7885
10689TIP3   OH253557   1.844   2.455  38.166  0.1002  0.8251 -0.2604
10689TIP3    H153558   1.913   2.390  38.180 -0.5936  0.1576  0.1401
10689TIP3    H253559   1.803   2.463  38.252 -2.9529 -1.8407 -1.2771
10690TIP3   OH253560   1.880   0.111  25.601 -0.6452 -0.1162 -0.2847
10690TIP3    H153561   1.897   0.110  25.695 -1.3916 -0.6718 -0.1413
10690TIP3    H253562   1.834   0.193  25.585 -0.7965 -0.1641 -0.1034
10691TIP3   OH253563   1.476   1.208  94.088  0.1398  0.1420  0.3788
10691TIP3    H153564   1.442   1.228  94.001  0.6306 -0.4913  0.0386
10691TIP3    H253565   1.501   1.293  94.125  1.0826  0.2962 -0.5794
10692TIP3   OH253566   1.933   0.601  86.818  0.0580 -0.5221 -0.3633
10692TIP3    H153567   1.921   0.562  86.905  1.9943  1.5760  0.9677
10692TIP3    H253568   1.845   0.618  86.787 -0.7017 -1.8934  0.9052
10693TIP3   OH253569   0.018   1.685   9.437 -0.4207  0.4439 -0.0796
10693TIP3    H153570   0.092   1.671   9.377  0.3759  1.1524  0.7132
10693TIP3    H253571   0.059   1.706   9.521 -1.5087 -0.7181  0.7797
10694TIP3   OH253572   0.195   0.345  41.660 -1.1155 -0.2929 -0.0072
10694TIP3    H153573   0.263   0.359  41.593 -0.7843 -0.1354  0.3545
10694TIP3    H253574   0.227   0.394  41.736 -0.2262 -2.5412  1.1289
10695TIP3   OH253575   1.265   1.517  77.803  0.1331 -0.0506  0.5968
10695TIP3    H153576   1.203   1.544  77.870  2.8510  1.7720  2.5877
10695TIP3    H253577   1.342   1.488  77.851  1.5816 -0.3529 -1.7297
10696TIP3   OH253578   0.074   0.213  84.125 -0.0849 -0.1785 -0.3824
10696TIP3    H153579   0.052   0.141  84.184  1.6469 -1.0670 -0.7425
10696TIP3    H253580   0.083   0.289  84.181  3.5415 -1.3813  0.9822
10697TIP3   OH253581   1.800   2.025  97.010 -0.0098  0.2584 -0.1066
10697TIP3    H153582   1.710   2.058  97.009 -0.3846 -0.6941 -0.8965
10697TIP3    H253583   1.840   2.063  96.931 -0.6001 -1.4597 -1.3091
10698TIP3   OH253584   2.649   2.068  83.589  0.5938  0.0866  0.0530
10698TIP3    H153585   2.648   2.053  83.683 -0.6290 -1.8257 -0.2102
10698TIP3    H253586   2.558   2.090  83.567  0.9957  1.1476 -0.6053
10699TIP3   OH253587   1.493   1.935  32.378  0.1949  0.0557 -0.0038
10699TIP3    H153588   1.405   1.902  32.393  0.2763 -0.0046  0.3604
10699TIP3    H253589   1.481   2.015  32.327 -0.1225  0.4869  0.7305
10700TIP3   OH253590   1.842   1.371  93.813  0.4208  0.2344  0.0856
10700TIP3    H153591   1.882   1.346  93.896 -0.1268  0.3068  0.3776
10700TIP3    H253592   1.781   1.300  93.792 -1.7515  1.5926  1.3361
10701TIP3   OH253593   0.094   1.252 107.210 -0.2455  0.4555  0.0462
10701TIP3    H153594   0.077   1.209 107.294 -0.8735 -1.3218 -0.9327
10701TIP3    H253595   0.020   1.313 107.198 -0.9743 -0.4030  0.1009
10702TIP3   OH253596   0.481   0.037  14.758  0.2230  0.1053  0.5807
10702TIP3    H153597   0.558   0.094  14.754 -0.0845  0.4788 -0.2025
10702TIP3    H253598   0.472   0.003  14.669 -0.8925  0.5768  0.4883
10703TIP3   OH253599   1.711   1.242 107.382 -0.1314 -0.6876  0.4398
10703TIP3    H153600   1.671   1.248 107.469  0.0552 -1.7975  0.6193
10703TIP3    H253601   1.735   1.149 107.373 -1.2059 -0.8514 -1.2593
10704TIP3   OH253602   2.555   0.001  23.108  0.4055 -0.3034  0.8309
10704TIP3    H153603   2.558  -0.044  23.024 -0.4132  0.9283  0.0986
10704TIP3    H253604   2.478  -0.035  23.152  0.5120 -0.5495  0.8179
10705TIP3   OH253605   1.944   0.395  88.420 -0.0931 -0.0481 -0.5223
10705TIP3    H153606   2.021   0.398  88.477 -1.4116 -0.3484  1.4039
10705TIP3    H253607   1.940   0.482  88.380 -0.5046  1.1712  1.9205
10706TIP3   OH253608   1.037   1.728  95.088 -1.1317 -0.1462  0.1107
10706TIP3    H153609   0.989   1.780  95.024 -0.0178  0.7394 -0.0590
10706TIP3    H253610   1.127   1.761  95.082 -1.2555  1.0919  3.1870
10707TIP3   OH253611   0.241   0.438  76.850  0.0719 -0.0079 -0.5525
10707TIP3    H153612   0.193   0.432  76.767  0.0227 -0.1552 -0.5167
10707TIP3    H253613   0.302   0.364  76.848  0.0663 -0.0157 -0.4545
10708TIP3   OH253614   1.970   0.520  58.319  0.4526 -0.0533 -0.1590
10708TIP3    H153615   1.993   0.515  58.226  1.4441 -1.0926  0.1178
10708TIP3    H253616   1.976   0.613  58.340 -0.6876  0.3136 -1.3428
10709TIP3   OH253617   0.552   2.526  66.390  0.5744 -0.1502  0.0030
10709TIP3    H153618   0.512   2.604  66.351  0.2765 -0.8847 -1.1814
10709TIP3    H253619   0.639   2.556  66.419  0.2291  0.7700  0.1323
10710TIP3   OH253620   0.255   2.024  14.074 -0.0607  0.3923  0.3712
10710TIP3    H153621   0.182   1.972  14.040 -2.3346  2.0870  2.3192
10710TIP3    H253622   0.264   2.096  14.013 -0.3462  0.4147  0.3523
10711TIP3   OH253623   0.583   1.961  36.602 -0.4865  0.1938 -0.0563
10711TIP3    H153624   0.637   1.915  36.667  0.4528 -0.6631 -1.3851
10711TIP3    H253625   0.640   1.970  36.525 -1.8690  0.2738 -1.1227
10712TIP3   OH253626   1.295   0.366 105.258  0.5265 -0.3308  0.1019
10712TIP3    H153627   1.248   0.330 105.183 -1.6549 -2.3916  2.2807
10712TIP3    H253628   1.270   0.459 105.259  0.4133 -0.3117 -1.5319
10713TIP3   OH253629   2.411   2.632  74.397  0.2167  0.4810 -0.1266
10713TIP3    H153630   2.315   2.636  74.401 -0.0012 -1.8140 -1.4474
10713TIP3    H253631   2.436   2.704  74.338 -0.9051 -0.2708 -1.5705
10714TIP3   OH253632   0.285   0.262  14.215  0.1285 -0.3346  0.0508
10714TIP3    H153633   0.256   0.295  14.301  1.4742 -0.1618  0.4553
10714TIP3    H253634   0.373   0.228  14.231  0.4976 -0.0640 -1.3168
10715TIP3   OH253635   0.414   1.543  93.616 -0.1322  0.6215  0.0446
10715TIP3    H153636   0.380   1.608  93.555  1.2098  1.4164  0.1115
10715TIP3    H253637   0.400   1.459  93.571 -1.1614  1.0007 -0.3791
10716TIP3   OH253638   0.484   1.399 109.350 -0.0912 -0.0466 -0.3210
10716TIP3    H153639   0.479   1.365 109.261 -0.1863  0.8610 -0.6737
10716TIP3    H253640   0.395   1.430 109.369  0.0056  0.0650 -0.0441
10717TIP3   OH253641   1.986   2.293  84.773  0.6037  0.6393 -0.7362
10717TIP3    H153642   2.047   2.288  84.847 -0.1499  0.2103 -0.1145
10717TIP3    H253643   2.032   2.343  84.706  1.2687  1.1250  0.0732
10718TIP3   OH253644   1.704   1.117  24.933 -0.4458 -0.1913  0.2899
10718TIP3    H153645   1.765   1.070  24.875 -1.7746 -1.2225 -0.3413
10718TIP3    H253646   1.720   1.079  25.019  0.1040 -0.1310  0.2229
10719TIP3   OH253647   1.042   0.872  82.003 -0.2110  0.2538 -0.2008
10719TIP3    H153648   0.974   0.821  81.959  0.2192 -1.2572  0.8220
10719TIP3    H253649   1.045   0.837  82.092  2.8460 -0.7192 -0.5828
10720TIP3   OH253650   2.249   1.702   3.001  0.1871  0.6994 -0.1054
10720TIP3    H153651   2.174   1.707   2.943 -0.7964 -0.0650  1.0614
10720TIP3    H253652   2.323   1.684   2.943 -1.0490 -2.1509 -0.9785
10721TIP3   OH253653   0.580   2.303  26.114  0.4594 -0.0710 -0.4756
10721TIP3    H153654   0.554   2.228  26.061 -2.8547  0.8747 -0.4024
10721TIP3    H253655   0.602   2.267  26.199  0.8392 -1.1157 -1.0018
10722TIP3   OH253656   1.671   1.470  13.453  0.3895  0.4167  0.4956
10722TIP3    H153657   1.595   1.445  13.401 -1.0417  2.9385  1.1659
10722TIP3    H253658   1.732   1.509  13.390  1.3049 -1.8130 -0.0766
10723TIP3   OH253659   0.049   2.383  22.426  0.1666 -0.1537 -0.3349
10723TIP3    H153660   0.048   2.288  22.415  0.6343 -0.3427  0.9989
10723TIP3    H253661   0.130   2.412  22.384  2.0787 -0.8817  2.5469
10724TIP3   OH253662   1.076   2.344  91.914  0.4056 -0.1594 -0.2543
10724TIP3    H153663   1.050   2.273  91.854  0.0448 -0.4254  0.2057
10724TIP3    H253664   1.122   2.299  91.985  0.5042  0.1133 -0.1491
10725TIP3   OH253665   1.567   0.848  52.437 -0.2799  0.5723 -0.0736
10725TIP3    H153666   1.539   0.853  52.529 -0.2016  0.7890 -0.0635
10725TIP3    H253667   1.485   0.841  52.388 -0.3187  0.3628  0.0177
10726TIP3   OH253668   1.904   0.715  31.839  0.3558  0.5120 -0.1853
10726TIP3    H153669   1.965   0.718  31.764  0.0523  1.7072 -0.4094
10726TIP3    H253670   1.819   0.698  31.799  0.4370 -0.5673  0.0729
10727TIP3   OH253671   2.119   0.342 111.261  0.0475  0.0991  0.1272
10727TIP3    H153672   2.065   0.380 111.330 -1.5749 -1.8885  0.0688
10727TIP3    H253673   2.186   0.293 111.307 -0.2643 -0.1875  0.2837
10728TIP3   OH253674   0.826   2.183  93.255  0.7460  0.0680  0.1683
10728TIP3    H153675   0.908   2.133  93.266  0.1739 -1.0975 -0.6307
10728TIP3    H253676   0.762   2.117  93.227 -0.5454  0.9097  1.0398
10729TIP3   OH253677   2.588   1.199  30.726 -0.0039  0.1787 -0.0675
10729TIP3    H153678   2.677   1.229  30.744  0.0086 -0.2108  0.5666
10729TIP3    H253679   2.595   1.151  30.643  0.1400  1.1627 -0.6369
10730TIP3   OH253680   0.384   0.495  89.663  0.2391  0.1595  0.5173
10730TIP3    H153681   0.466   0.515  89.709 -0.3976 -0.9017  2.1999
10730TIP3    H253682   0.361   0.407  89.693 -0.8510 -0.0823 -0.9389
10731TIP3   OH253683   1.947   1.585  94.213 -0.3907  0.0170  0.1865
10731TIP3    H153684   1.925   1.585  94.120  0.4397 -0.7658 -0.0208
10731TIP3    H253685   1.888   1.520  94.252  0.0181 -0.4582  0.0162
10732TIP3   OH253686   1.408   0.813 105.519  0.0653 -0.5751  0.3741
10732TIP3    H153687   1.343   0.746 105.539  0.1389 -1.4884 -2.1313
10732TIP3    H253688   1.358   0.886 105.483  0.2908 -0.7997 -0.4152
10733TIP3   OH253689   2.480   2.427   4.080  0.0584  0.0048  0.0224
10733TIP3    H153690   2.534   2.490   4.032  1.7181 -2.9939 -2.3654
10733TIP3    H253691   2.406   2.410   4.022 -0.3341 -0.2857  0.6028
10734TIP3   OH253692   0.125   2.006 100.827  0.2569 -0.2747 -0.2591
10734TIP3    H153693   0.054   2.052 100.782 -0.0247 -1.0824 -0.6544
10734TIP3    H253694   0.202   2.021 100.772  0.3890  0.5089  0.1160
10735TIP3   OH253695   0.509   1.912 111.833 -0.2020  0.3430 -0.4187
10735TIP3    H153696   0.543   1.995 111.864 -0.3240  0.8814 -1.6609
10735TIP3    H253697   0.415   1.915 111.852 -0.1662  0.3940 -0.2534
10736TIP3   OH253698   1.481   0.603 102.268  0.5262  0.2105 -0.2939
10736TIP3    H153699   1.416   0.587 102.337  1.1010 -0.9035  0.0158
10736TIP3    H253700   1.465   0.693 102.240  2.2598  1.8852  3.4460
10737TIP3   OH253701   1.019   0.923   3.177  0.2912  0.3229 -0.2182
10737TIP3    H153702   1.102   0.889   3.211  0.2356 -1.3242 -1.6090
10737TIP3    H253703   0.956   0.904   3.247  0.7393 -0.0892  0.0857
10738TIP3   OH253704   1.422   0.742  31.480 -0.4620  0.1210  0.4696
10738TIP3    H153705   1.476   0.789  31.416 -1.3155 -1.2995 -1.3632
10738TIP3    H253706   1.419   0.652  31.448 -1.2475 -0.5626  2.3221
10739TIP3   OH253707   2.102   0.407  20.273 -0.1675 -0.1802 -0.6914
10739TIP3    H153708   2.189   0.386  20.308 -0.5493  2.5379  2.2750
10739TIP3    H253709   2.120   0.452  20.190  1.2779  0.5559 -0.0019
10740TIP3   OH253710   2.583   1.350  98.324  0.4611  0.4886  0.6140
10740TIP3    H153711   2.565   1.369  98.416  2.2410 -0.7539  1.2852
10740TIP3    H253712   2.497   1.335  98.285 -0.3891  1.8724  1.8580
10741TIP3   OH253713   1.359   1.206  10.403 -0.5879 -0.3489  0.3136
10741TIP3    H153714   1.293   1.203  10.334 -1.3204  0.8048  0.9190
10741TIP3    H253715   1.313   1.174  10.481 -0.9593  1.8466  1.0826
10742TIP3   OH253716   0.830   0.016  23.211  0.0053  0.1322 -0.3341
10742TIP3    H153717   0.898  -0.030  23.163 -1.2540 -0.2455 -1.8525
10742TIP3    H253718   0.777  -0.054  23.250  0.7262  0.4281  1.2452
10743TIP3   OH253719   0.624   0.088  35.158  0.0524  0.0328 -0.4586
10743TIP3    H153720   0.594   0.029  35.088  0.5695 -0.8795  0.0678
10743TIP3    H253721   0.719   0.074  35.161  0.1738  0.8476 -0.2626
10744TIP3   OH253722   1.251   0.228 103.851  0.3725 -0.5697  0.3110
10744TIP3    H153723   1.230   0.198 103.762 -0.1612  2.8392 -0.8574
10744TIP3    H253724   1.170   0.267 103.883  0.7142 -1.2652  2.1461
10745TIP3   OH253725   0.036   2.480   2.351  0.5926  0.0006 -0.1166
10745TIP3    H153726  -0.033   2.534   2.389  0.3538 -0.4152  0.0553
10745TIP3    H253727   0.076   2.535   2.284  0.7600  0.6041  0.4744
10746TIP3   OH253728   2.287   0.479  89.549  0.1314  0.3026 -0.2968
10746TIP3    H153729   2.216   0.472  89.485 -0.7401  1.6197  0.4825
10746TIP3    H253730   2.276   0.566  89.588  2.0320  0.4517  0.0247
10747TIP3   OH253731   0.298   0.187  33.440 -0.2407  0.2131  0.5808
10747TIP3    H153732   0.266   0.107  33.481 -0.2197 -1.6923 -2.7820
10747TIP3    H253733   0.218   0.233  33.412 -0.2634 -0.7896 -1.1460
10748TIP3   OH253734   0.865   0.077  86.514 -0.2225 -0.1937 -0.1277
10748TIP3    H153735   0.826   0.137  86.577  2.5826 -0.2335  1.8203
10748TIP3    H253736   0.834   0.108  86.429  1.0640  4.0730  0.7306
10749TIP3   OH253737   2.312   2.524  78.082  0.0099  0.0930 -0.4813
10749TIP3    H153738   2.370   2.593  78.051 -0.2111  1.2902  1.5823
10749TIP3    H253739   2.368   2.466  78.134 -0.4480  0.9071  0.9920
10750TIP3   OH253740   0.523   1.918  10.628  0.3195  0.2037  0.3514
10750TIP3    H153741   0.493   1.889  10.714 -0.2551 -1.5621 -0.4080
10750TIP3    H253742   0.446   1.912  10.572  1.3106 -1.4616 -0.9355
10751TIP3   OH253743   2.099   0.827  83.178 -0.1970 -0.3904  0.0835
10751TIP3    H153744   2.063   0.890  83.116  1.0879  0.7877  0.4981
10751TIP3    H253745   2.191   0.851  83.187  0.3561 -2.3498  0.2366
10752TIP3   OH253746   1.949   2.631  33.940  0.0125 -0.5743  0.0660
10752TIP3    H153747   2.042   2.650  33.953  0.3725 -0.6799 -1.9593
10752TIP3    H253748   1.935   2.647  33.847 -1.5806 -2.3274 -0.0462
10753TIP3   OH253749   0.717   2.086  92.080 -0.3017 -0.6297 -0.5455
10753TIP3    H153750   0.735   2.179  92.096 -0.8176 -0.4524 -0.9723
10753TIP3    H253751   0.804   2.045  92.079 -0.1366 -0.3879  0.9982
10754TIP3   OH253752   1.113   0.202  18.327 -0.3864 -0.0406  0.4176
10754TIP3    H153753   1.147   0.123  18.285 -1.0395 -0.4663  0.6936
10754TIP3    H253754   1.119   0.269  18.258 -0.3375 -0.4513  0.0177
10755TIP3   OH253755   1.085   2.019  28.611 -0.5094 -0.4154 -0.3078
10755TIP3    H153756   1.145   2.087  28.643  0.0553 -1.1768  0.2985
10755TIP3    H253757   0.999   2.048  28.640 -0.2164 -0.2042  0.3732
10756TIP3   OH253758   0.426   2.024  88.176  0.3727  0.1135 -0.3016
10756TIP3    H153759   0.404   1.935  88.148 -0.9550  0.8023 -1.6222
10756TIP3    H253760   0.519   2.020  88.198  0.3095 -1.6203 -0.2145
10757TIP3   OH253761   0.660   0.029  25.725 -0.2662  0.8121  0.1312
10757TIP3    H153762   0.570   0.048  25.700 -0.6749 -0.8312  0.2299
10757TIP3    H253763   0.712   0.099  25.685 -1.5601  1.6892 -0.0573
10758TIP3   OH253764   0.814   0.263 106.065 -0.4909  0.5957  0.5558
10758TIP3    H153765   0.894   0.218 106.040 -1.6217 -0.8443 -0.6348
10758TIP3    H253766   0.824   0.280 106.159  1.2497  0.6065  0.3982
10759TIP3   OH253767   2.671   0.961  91.402 -0.6224 -0.6139 -0.3073
10759TIP3    H153768   2.697   0.985  91.491 -0.8662 -0.8294 -0.1774
10759TIP3    H253769   2.725   1.016  91.345 -0.2392 -0.6991 -0.0333
10760TIP3   OH253770   1.861   2.202  48.451  0.9441 -0.5673 -0.0233
10760TIP3    H153771   1.830   2.212  48.541  2.1055 -0.6614  0.4118
10760TIP3    H253772   1.799   2.141  48.411 -0.3012  0.4308  0.3283
10761TIP3   OH253773   2.263   1.945  45.440 -0.3853  0.4985 -0.3344
10761TIP3    H153774   2.248   1.904  45.355 -3.4902 -2.2553  1.3239
10761TIP3    H253775   2.201   2.017  45.443 -1.9269 -0.7999  0.3472
10762TIP3   OH253776   2.372   1.178  13.940 -0.0456  0.0756 -0.3868
10762TIP3    H153777   2.307   1.139  13.881  1.1736 -0.3381 -1.5082
10762TIP3    H253778   2.397   1.106  13.998 -0.6666  0.2767  0.1534
10763TIP3   OH253779   1.428   1.494  37.217  0.5322  0.1546  0.4016
10763TIP3    H153780   1.354   1.440  37.189 -0.8070  0.7932  2.4905
10763TIP3    H253781   1.471   1.444  37.286  1.7436  0.0428 -0.4002
10764TIP3   OH253782   1.456   2.656   0.081  0.3602 -0.7475  0.3280
10764TIP3    H153783   1.551   2.662   0.072  0.4083  0.4398  1.2227
10764TIP3    H253784   1.432   2.736   0.129 -1.1266 -0.8610 -0.1732
10765TIP3   OH253785   0.221   2.431  36.448 -0.0442  0.0156 -0.0650
10765TIP3    H153786   0.128   2.442  36.465  0.2110 -0.2806  1.6530
10765TIP3    H253787   0.252   2.520  36.429 -0.3867  0.3882  1.0197
10766TIP3   OH253788   0.275   0.530  21.783 -0.5433 -0.1401  0.4879
10766TIP3    H153789   0.330   0.503  21.709 -0.4627 -1.5265  1.0332
10766TIP3    H253790   0.259   0.623  21.768 -0.4081 -0.3586 -1.1995
10767TIP3   OH253791   1.818   1.420  23.603  0.1280  0.1762 -0.3566
10767TIP3    H153792   1.727   1.450  23.609  0.3135  0.5749  0.9373
10767TIP3    H253793   1.813   1.325  23.609 -0.0650  0.2825  3.1886
10768TIP3   OH253794   1.616   1.257  36.307  0.3337 -0.7123  0.7007
10768TIP3    H153795   1.579   1.343  36.325 -1.6890 -1.2114 -0.6910
10768TIP3    H253796   1.582   1.201  36.378 -0.7149 -0.9175  0.0669
10769TIP3   OH253797   1.677   1.100  30.260 -0.4017 -0.3021 -0.4423
10769TIP3    H153798   1.766   1.091  30.296 -0.8796 -2.0048  0.4315
10769TIP3    H253799   1.669   1.193  30.239  1.6991 -0.1575 -0.8418
10770TIP3   OH253800   0.127   0.032  37.309 -0.4945  0.1874 -0.0416
10770TIP3    H153801   0.217   0.054  37.288 -0.6700 -0.2521 -1.3309
10770TIP3    H253802   0.108   0.082  37.388  0.4764  1.2562 -0.4590
10771TIP3   OH253803   1.492   1.854  63.079  0.8487  0.6793 -0.6910
10771TIP3    H153804   1.520   1.855  63.171  1.8740 -0.4067 -0.9751
10771TIP3    H253805   1.571   1.834  63.030  0.3605  1.4787 -1.8544
10772TIP3   OH253806   0.355   1.057  80.225 -0.2565  0.0520  0.7606
10772TIP3    H153807   0.329   1.143  80.192  0.4658  0.7002  1.8138
10772TIP3    H253808   0.291   1.037  80.293  0.9615  0.9033  2.2137
10773TIP3   OH253809   0.107   1.074  28.807 -0.0248 -0.0026  0.1127
10773TIP3    H153810   0.135   1.103  28.720  1.5818 -1.1456  0.2093
10773TIP3    H253811   0.182   1.091  28.864  0.4824 -2.9494  0.4485
10774TIP3   OH253812   2.167   2.472   2.852 -0.1209 -0.2888 -0.3080
10774TIP3    H153813   2.117   2.541   2.809 -1.3042 -1.4526 -0.8725
10774TIP3    H253814   2.204   2.513   2.930 -0.0466  1.1995 -1.0986
10775TIP3   OH253815   1.212   0.111 102.646 -0.0218 -0.5523  0.0968
10775TIP3    H153816   1.282   0.047 102.657  0.8323  0.5090  1.1110
10775TIP3    H253817   1.229   0.150 102.560  1.6182  0.7932  0.9822
10776TIP3   OH253818   0.152   0.865  22.976 -0.5645  0.2077 -0.5799
10776TIP3    H153819   0.155   0.786  22.923 -0.9345 -0.1455 -0.0873
10776TIP3    H253820   0.059   0.874  23.001 -0.9728  2.0450 -2.4793
10777TIP3   OH253821   0.873   0.074  33.977  0.1269  0.1343  0.0325
10777TIP3    H153822   0.837   0.091  33.889  0.2368 -1.6023 -0.3797
10777TIP3    H253823   0.956   0.028  33.960  0.7204  0.7866  1.0499
10778TIP3   OH253824   0.952   2.087   5.388  0.4678 -0.2409  0.2182
10778TIP3    H153825   0.988   2.090   5.477  0.2089  0.9057  0.2971
10778TIP3    H253826   1.017   2.038   5.338  1.3888  0.4683  0.6980
10779TIP3   OH253827   0.198   0.773   8.727 -0.0882 -0.6673 -0.6450
10779TIP3    H153828   0.154   0.690   8.708  0.5202 -1.0342 -0.4871
10779TIP3    H253829   0.286   0.747   8.755 -0.7615 -0.1636  2.2478
10780TIP3   OH253830   0.119   2.657  36.123 -0.3278  0.2060  0.0811
10780TIP3    H153831   0.136   2.751  36.116  0.9680 -0.0279 -0.0910
10780TIP3    H253832   0.205   2.616  36.116 -0.9101 -1.0219 -0.1759
10781TIP3   OH253833   2.653   1.325  24.771 -0.2891 -0.2094 -0.0686
10781TIP3    H153834   2.582   1.261  24.777  0.0830 -0.7262 -0.9902
10781TIP3    H253835   2.668   1.336  24.677 -0.4478  1.3663  0.0636
10782TIP3   OH253836   2.223   0.627   9.171 -0.1013 -0.2117 -0.1886
10782TIP3    H153837   2.314   0.652   9.152 -0.3500 -0.4486 -1.8495
10782TIP3    H253838   2.181   0.625   9.086 -1.4426 -1.0305  0.4660
10783TIP3   OH253839   1.932   0.062  33.666  0.0336  0.2080 -1.2857
10783TIP3    H153840   1.886  -0.004  33.614  0.2528 -0.6949 -0.3660
10783TIP3    H253841   2.025   0.037  33.658  0.0044 -0.5160  0.2679
10784TIP3   OH253842   2.578   1.124   3.217 -0.0641  0.3628 -0.2482
10784TIP3    H153843   2.590   1.057   3.150 -1.2282  1.1419 -1.2882
10784TIP3    H253844   2.545   1.077   3.293  1.6707 -0.6044 -0.0340
10785TIP3   OH253845   1.334   0.446  96.623  0.0346 -0.0728  0.0945
10785TIP3    H153846   1.331   0.386  96.698 -0.3435 -1.3732 -0.9207
10785TIP3    H253847   1.359   0.530  96.661  0.5428 -0.8497  1.5761
10786TIP3   OH253848   2.356   1.756   8.916 -0.1945  0.0728  0.2721
10786TIP3    H153849   2.381   1.664   8.929 -0.0068  0.0765 -0.0521
10786TIP3    H253850   2.327   1.760   8.825 -1.1187  0.1338  0.5647
10787TIP3   OH253851   1.819   0.976   7.412  0.0893 -0.2150  0.1920
10787TIP3    H153852   1.901   1.022   7.394  0.2613 -0.5465  0.1161
10787TIP3    H253853   1.843   0.905   7.471 -0.3742  0.4833  1.2492
10788TIP3   OH253854   1.754   1.456  20.752 -0.0666  0.5650 -0.0350
10788TIP3    H153855   1.662   1.446  20.727 -0.1107 -0.2477  0.4240
10788TIP3    H253856   1.756   1.435  20.845  0.8918 -1.5215 -0.4671
10789TIP3   OH253857   1.851   1.860  46.820  0.3730  0.0096  0.5570
10789TIP3    H153858   1.802   1.942  46.816  0.8931  0.2948 -0.3319
10789TIP3    H253859   1.849   1.827  46.730  0.3804 -0.8296  0.8585
10790TIP3   OH253860   1.549   2.576  86.190  1.0044 -0.4891  0.4747
10790TIP3    H153861   1.631   2.581  86.240  0.7271  0.3018  0.8572
10790TIP3    H253862   1.522   2.667  86.177  1.0515 -0.6724 -1.1061
10791TIP3   OH253863   1.480   2.309  12.969 -0.1127  0.1712  0.3399
10791TIP3    H153864   1.445   2.375  13.029  0.1924 -0.5473  1.3381
10791TIP3    H253865   1.403   2.268  12.930 -0.3151  0.6687  0.2109
10792TIP3   OH253866   2.114   0.242  93.193  0.4461  0.3015  0.1178
10792TIP3    H153867   2.026   0.205  93.185  0.2937  0.6357  0.2603
10792TIP3    H253868   2.161   0.205  93.118  1.0532 -2.2318  1.6316
10793TIP3   OH253869   0.693   0.225   0.388  0.7459  0.5809  0.0805
10793TIP3    H153870   0.670   0.156   0.450  2.2369 -0.6362 -0.6551
10793TIP3    H253871   0.622   0.226   0.324  0.8761 -0.5372 -0.0947
10794TIP3   OH253872   2.304   0.241  90.491 -0.1479 -0.2606 -0.2003
10794TIP3    H153873   2.250   0.242  90.411 -0.4232  0.6114 -0.0195
10794TIP3    H253874   2.334   0.151  90.499 -1.0883 -0.6265 -0.6475
10795TIP3   OH253875   0.645   0.116  85.189 -0.1840 -0.1865 -0.1588
10795TIP3    H153876   0.614   0.066  85.265 -0.0467  2.8817  2.0981
10795TIP3    H253877   0.739   0.127  85.204  0.2442 -1.1256 -1.8470
10796TIP3   OH253878   0.826   1.123  36.325 -0.0157  0.5657  0.0498
10796TIP3    H153879   0.804   1.035  36.356  1.6644  0.4825  1.1441
10796TIP3    H253880   0.755   1.179  36.358 -0.8952 -0.2987 -0.3342
10797TIP3   OH253881   0.358   1.903  69.341 -0.2984 -1.2210 -0.3382
10797TIP3    H153882   0.452   1.907  69.354 -0.2218 -1.5117 -0.7725
10797TIP3    H253883   0.321   1.925  69.426  0.1522 -0.5844 -0.3015
10798TIP3   OH253884   1.526   0.760 108.851  0.5127  0.1964 -0.2555
10798TIP3    H153885   1.473   0.836 108.877  0.0869 -0.1651 -0.0485
10798TIP3    H253886   1.584   0.744 108.925 -0.6409 -0.7803  0.4881
10799TIP3   OH253887   1.305   0.536  14.232  0.3362 -0.2758  0.0280
10799TIP3    H153888   1.327   0.525  14.324 -0.4492 -1.0111  0.1378
10799TIP3    H253889   1.244   0.465  14.213 -1.0034  0.9792 -0.5631
10800TIP3   OH253890   0.501   0.104  26.418 -0.5156 -0.1292  0.6661
10800TIP3    H153891   0.486   0.024  26.467 -0.3010 -0.5014  0.1287
10800TIP3    H253892   0.581   0.140  26.456  0.6977 -1.3816 -0.6362
10801TIP3   OH253893   1.186   0.778  18.260 -0.2712 -0.3295 -0.0940
10801TIP3    H153894   1.113   0.810  18.312  0.7963  0.3569  1.0451
10801TIP3    H253895   1.216   0.700  18.306  1.0876  0.6468  0.7348
10802TIP3   OH253896   0.872   0.301   8.570  0.6623 -0.2036  0.1121
10802TIP3    H153897   0.834   0.295   8.658 -1.6327 -2.3286 -0.8829
10802TIP3    H253898   0.804   0.344   8.518  0.9974 -1.0293 -1.0573
10803TIP3   OH253899   0.247   2.415 100.486  0.4311 -0.1044  0.1758
10803TIP3    H153900   0.293   2.337 100.456  1.7420  0.2017  1.2988
10803TIP3    H253901   0.171   2.382 100.533  0.0078 -0.6390 -0.8410
10804TIP3   OH253902   1.300   1.471  25.079  0.3509  0.3252  0.1792
10804TIP3    H153903   1.245   1.516  25.144  0.8555  0.6615  0.3805
10804TIP3    H253904   1.285   1.520  24.998  0.1503  0.2534  0.1728
10805TIP3   OH253905   0.773   0.689  91.746  0.1736  0.0985 -0.1563
10805TIP3    H153906   0.727   0.652  91.670 -0.7271  0.3703  0.2431
10805TIP3    H253907   0.809   0.771  91.714  1.1155 -0.5072 -0.7072
10806TIP3   OH253908   2.213   1.075  98.298 -0.4154 -0.2192  0.0687
10806TIP3    H153909   2.233   1.145  98.360  1.7249 -0.5616 -0.1645
10806TIP3    H253910   2.127   1.043  98.326 -0.0495  0.4238  2.1143
10807TIP3   OH253911   0.791   2.616  81.566 -0.0446  0.4737 -0.1108
10807TIP3    H153912   0.706   2.574  81.573 -0.8012  1.7810 -0.8290
10807TIP3    H253913   0.848   2.567  81.624 -1.4811  0.0301  0.9768
10808TIP3   OH253914   0.974   2.634  27.223  0.9702  0.2614  0.2284
10808TIP3    H153915   0.897   2.690  27.212  0.3903 -0.0914  2.0576
10808TIP3    H253916   1.046   2.694  27.241  1.0274  0.5681 -0.9870
10809TIP3   OH253917   0.871   0.710  79.453 -0.0784 -0.0432  0.7251
10809TIP3    H153918   0.911   0.646  79.394  0.8552  1.0657  0.1097
10809TIP3    H253919   0.791   0.737  79.408  2.0395  3.0073 -1.6995
10810TIP3   OH253920   0.681   0.521  74.275  0.1013 -0.4793  0.2909
10810TIP3    H153921   0.704   0.428  74.276 -0.8793 -0.7314  0.8212
10810TIP3    H253922   0.739   0.559  74.209  0.5522 -1.4522  0.1012
10811TIP3   OH253923   1.778   2.279  25.133  0.6935 -0.0372 -0.4390
10811TIP3    H153924   1.807   2.239  25.215  1.2402  0.6519 -0.2887
10811TIP3    H253925   1.683   2.266  25.134  0.6364  0.3295  0.5109
10812TIP3   OH253926   2.577   2.251  80.601  0.1037 -0.4844 -0.0583
10812TIP3    H153927   2.501   2.283  80.553  1.2682  2.0551 -0.3826
10812TIP3    H253928   2.622   2.331  80.630  3.0874 -1.8400 -0.6195
10813TIP3   OH253929   0.388   1.473   0.338 -0.3488  0.0565 -0.3057
10813TIP3    H153930   0.422   1.556   0.372  1.3361 -1.5864  2.3959
10813TIP3    H253931   0.306   1.459   0.386 -0.5662  0.1053 -0.6635
10814TIP3   OH253932   2.484   1.515 107.692 -0.3156  0.2123 -0.4594
10814TIP3    H153933   2.438   1.433 107.708 -0.7764  0.7774  1.2994
10814TIP3    H253934   2.479   1.527 107.597 -2.1326 -0.6890 -0.5195
10815TIP3   OH253935   0.305   0.584  28.966 -0.4224 -0.3635  0.3550
10815TIP3    H153936   0.309   0.538  29.050 -0.4089 -0.7864  0.1281
10815TIP3    H253937   0.213   0.578  28.941 -0.3742 -0.4836  0.2066
10816TIP3   OH253938   1.539   0.838 109.538  0.6636 -0.4410  0.2035
10816TIP3    H153939   1.473   0.907 109.529  0.5237 -0.4305  1.2404
10816TIP3    H253940   1.622   0.884 109.527  0.5285 -0.4173 -0.8867
10817TIP3   OH253941   1.406   1.141  35.051 -0.4821  0.5524  0.4132
10817TIP3    H153942   1.416   1.185  35.135 -0.3090  1.9539 -0.3102
10817TIP3    H253943   1.317   1.106  35.053 -0.0744 -0.5112  1.6467
10818TIP3   OH253944   0.298   0.093  94.569 -0.1835  0.4354 -0.0168
10818TIP3    H153945   0.313   0.134  94.654  0.9641 -0.4397  0.2185
10818TIP3    H253946   0.214   0.048  94.579  0.3027 -0.2887  0.9053
10819TIP3   OH253947   2.000   2.359  15.953  0.1445 -0.2895 -0.1562
10819TIP3    H153948   1.923   2.370  16.009 -0.1893  0.0701 -0.6824
10819TIP3    H253949   2.073   2.386  16.009 -0.0261 -1.2281  0.5532
10820TIP3   OH253950   1.810   2.683   5.695  0.0706  0.6091 -0.1351
10820TIP3    H153951   1.902   2.662   5.683 -0.0068 -1.2711  1.8075
10820TIP3    H253952   1.810   2.760   5.752  0.5208 -0.4391  1.3500
10821TIP3   OH253953   0.117   2.026 101.521 -0.6018  0.1420  0.5594
10821TIP3    H153954   0.212   2.024 101.523 -0.4091  1.1066 -2.3851
10821TIP3    H253955   0.091   1.934 101.530  0.8010 -0.4926 -1.1939
10822TIP3   OH253956   1.544   1.795  31.852  0.6003  0.0642  0.2753
10822TIP3    H153957   1.565   1.887  31.834  0.2190  0.1588  0.3055
10822TIP3    H253958   1.630   1.752  31.859  0.8211  0.6443  1.4809
10823TIP3   OH253959   2.146   1.263  93.906  0.0182  0.1954 -0.6122
10823TIP3    H153960   2.183   1.190  93.954  0.5555  1.9261  1.8339
10823TIP3    H253961   2.166   1.245  93.815  0.0596 -2.6850 -0.1155
10824TIP3   OH253962   0.095   1.644  81.194 -0.1693 -0.1369  0.0333
10824TIP3    H153963   0.125   1.711  81.132 -1.4762  0.9289  0.4888
10824TIP3    H253964   0.132   1.562  81.161  0.2880  0.6038 -1.3760
10825TIP3   OH253965   0.272   2.430  23.380 -0.0885  0.3883  0.1107
10825TIP3    H153966   0.358   2.473  23.386  0.3604 -0.5236  0.4226
10825TIP3    H253967   0.237   2.460  23.297  1.1102 -0.2451 -0.6524
10826TIP3   OH253968   1.860   0.109  76.670  0.2752 -0.2959  0.3822
10826TIP3    H153969   1.931   0.158  76.710  0.4772 -0.0911 -0.2298
10826TIP3    H253970   1.791   0.108  76.737  0.0553  1.2848  0.2078
10827TIP3   OH253971   0.399   1.728  75.996  0.1250  0.1396  0.0150
10827TIP3    H153972   0.384   1.703  76.087 -2.4587  2.0483  0.2151
10827TIP3    H253973   0.444   1.812  76.001  0.5811 -0.0685 -0.4882
10828TIP3   OH253974   1.096   0.141  86.176 -0.0642 -0.0916  0.0628
10828TIP3    H153975   1.090   0.176  86.087  0.2384  0.7098  0.3408
10828TIP3    H253976   1.008   0.155  86.212 -0.1983 -0.4536 -0.1200
10829TIP3   OH253977   1.099   1.095   7.755  0.4405 -0.4514 -0.0508
10829TIP3    H153978   1.022   1.136   7.795  0.8994 -0.0913  0.4817
10829TIP3    H253979   1.161   1.167   7.743  0.0223 -0.3980 -2.1851
10830TIP3   OH253980   1.446   0.073  79.785  0.1305  0.3340 -0.2586
10830TIP3    H153981   1.503   0.133  79.834 -0.5733  0.5580  0.2994
10830TIP3    H253982   1.474  -0.014  79.812 -1.2400  0.4436  1.7786
10831TIP3   OH253983   1.564   1.954  20.634  0.0474 -0.4714 -0.7363
10831TIP3    H153984   1.619   2.024  20.598 -1.1364  0.3815 -0.9486
10831TIP3    H253985   1.475   1.978  20.607 -0.7791 -0.3563  1.8798
10832TIP3   OH253986   0.898   1.867  88.432 -0.2433 -0.3057  0.3197
10832TIP3    H153987   0.959   1.871  88.359  0.7074 -2.7202  0.8636
10832TIP3    H253988   0.843   1.791  88.413 -1.7341  0.5971  0.8534
10833TIP3   OH253989   1.236   1.402  23.940 -0.0597  0.3446  0.1406
10833TIP3    H153990   1.253   1.353  23.860 -0.4755 -0.5044  0.5578
10833TIP3    H253991   1.311   1.461  23.948  0.4363 -0.1995 -0.3908
10834TIP3   OH253992   1.979   2.395   5.956 -0.5926  0.0880 -0.0334
10834TIP3    H153993   2.048   2.359   5.900  0.2656 -0.8430  1.5430
10834TIP3    H253994   2.008   2.485   5.973 -0.9605  0.4450 -1.1979
10835TIP3   OH253995   0.364   1.915  15.529  0.8409 -0.4315  0.3979
10835TIP3    H153996   0.311   1.993  15.512  1.0827 -0.2257  0.5588
10835TIP3    H253997   0.452   1.940  15.500  1.2824 -0.0344  1.9788
10836TIP3   OH253998   0.228   0.841  68.657 -0.0159 -0.4950 -0.9910
10836TIP3    H153999   0.147   0.829  68.706 -0.4862 -0.0476 -1.6454
10836TIP3    H254000   0.213   0.793  68.575 -0.5813  1.5530 -2.1496
10837TIP3   OH254001   0.438   0.290  81.247  0.0083 -0.0394 -0.2008
10837TIP3    H154002   0.523   0.265  81.212  0.9949  0.1177  1.8995
10837TIP3    H254003   0.395   0.207  81.268  1.5527 -0.2126  2.8421
10838TIP3   OH254004   1.756   0.411  13.279 -0.3957 -0.0580 -0.1774
10838TIP3    H154005   1.685   0.396  13.216 -0.0595  1.5348 -0.9678
10838TIP3    H254006   1.775   0.504  13.272 -0.1926  0.1223  2.1429
10839TIP3   OH254007   0.263   2.402  22.198  0.1211 -0.3699 -0.0420
10839TIP3    H154008   0.347   2.397  22.243  0.9358  0.8982 -1.3285
10839TIP3    H254009   0.263   2.325  22.140  0.5902 -0.1613 -0.3267
10840TIP3   OH254010   0.713   0.770  29.702 -0.0992 -0.5836  0.0699
10840TIP3    H154011   0.738   0.811  29.620 -0.2054  1.0264  0.8058
10840TIP3    H254012   0.789   0.783  29.759 -0.7706  0.1180  0.8356
10841TIP3   OH254013   0.625   1.694  14.377 -0.4986 -0.2322  0.0981
10841TIP3    H154014   0.715   1.703  14.345 -0.5841 -0.6636 -0.2800
10841TIP3    H254015   0.605   1.602  14.363 -1.3027  0.0389 -0.6324
10842TIP3   OH254016   0.903   0.314  21.652  0.3745 -0.5324 -0.1146
10842TIP3    H154017   0.945   0.383  21.601 -1.3437 -0.2978 -1.2908
10842TIP3    H254018   0.836   0.278  21.593 -2.1346  0.1624  2.1290
10843TIP3   OH254019   2.487   0.089  11.907 -0.1738  0.0600  0.0515
10843TIP3    H154020   2.413   0.144  11.882 -1.3760 -1.5659 -0.1075
10843TIP3    H254021   2.447   0.012  11.947  1.4244 -1.0535 -0.4202
10844TIP3   OH254022   0.461   0.792  98.092  0.7074  0.9835 -0.1315
10844TIP3    H154023   0.399   0.806  98.164  0.3153 -1.7942  0.2008
10844TIP3    H254024   0.547   0.796  98.134  0.6321  2.0148 -0.0506
10845TIP3   OH254025   0.127   2.156   9.959  0.3433 -0.2662  0.2893
10845TIP3    H154026   0.036   2.130   9.942  0.4051 -0.7335  0.6376
10845TIP3    H254027   0.121   2.229  10.020  0.1337  1.1352 -1.3284
10846TIP3   OH254028   1.923   0.802  90.362 -0.1287  0.6214 -0.0062
10846TIP3    H154029   1.896   0.877  90.415  1.1731  0.5645  0.7964
10846TIP3    H254030   1.994   0.761  90.413  0.3344 -0.1571 -1.2245
10847TIP3   OH254031   0.192   0.174   7.804  0.4966  0.1844  0.3920
10847TIP3    H154032   0.151   0.088   7.791 -0.2195  0.6969 -1.0802
10847TIP3    H254033   0.283   0.162   7.778  0.0146  0.2122 -1.4968
10848TIP3   OH254034   0.995   2.210  27.446 -0.0223 -0.1568 -0.2334
10848TIP3    H154035   1.073   2.211  27.502  0.2807 -1.1678 -0.6135
10848TIP3    H254036   0.983   2.302  27.420  0.9970  0.0286 -0.1057
10849TIP3   OH254037   0.129   0.060  73.796  0.3429  1.0651 -0.2590
10849TIP3    H154038   0.134   0.107  73.713  0.7935 -2.3122 -2.3310
10849TIP3    H254039   0.059  -0.004  73.784  1.5413 -0.6590  1.2538
10850TIP3   OH254040   0.906   1.077  84.801 -0.3690  0.5517  0.4408
10850TIP3    H154041   0.930   1.021  84.875 -0.2267  0.1819  0.1148
10850TIP3    H254042   0.859   1.150  84.841  2.1326  1.8557  1.2353
10851TIP3   OH254043   1.654   2.681  73.383 -0.5424 -0.2504  0.1441
10851TIP3    H154044   1.642   2.620  73.311 -1.1902  0.4930 -0.3880
10851TIP3    H254045   1.698   2.629  73.451  1.4132 -0.5806 -1.2965
10852TIP3   OH254046   0.424   0.018  94.318  0.2217  0.5340 -0.1889
10852TIP3    H154047   0.461   0.103  94.295  1.5576 -0.3178 -1.3567
10852TIP3    H254048   0.381   0.033  94.403  0.9969  2.2116 -0.0452
10853TIP3   OH254049   0.147   1.969  19.225 -0.0373  0.1745  1.0565
10853TIP3    H154050   0.239   1.975  19.254  0.0279 -0.0796  0.9000
10853TIP3    H254051   0.126   1.876  19.232 -0.6463  0.3876  2.2048
10854TIP3   OH254052   1.851   0.017  98.953  0.6592  0.0221 -0.4057
10854TIP3    H154053   1.802   0.099  98.964 -0.8923 -0.8778 -0.3828
10854TIP3    H254054   1.809  -0.027  98.880  1.1708 -0.9887 -0.1146
10855TIP3   OH254055   2.680   2.221  23.182 -0.1704  0.2765  0.0084
10855TIP3    H154056   2.760   2.211  23.131  0.4196  0.7382  0.8054
10855TIP3    H254057   2.643   2.133  23.186 -0.0530  0.1779 -0.9236
10856TIP3   OH254058   2.464   2.634  81.061  0.6073  0.2340  0.1040
10856TIP3    H154059   2.383   2.602  81.101 -0.3915  1.3783 -0.9118
10856TIP3    H254060   2.455   2.612  80.969  1.3986  0.5047 -0.0404
10857TIP3   OH254061   1.989   2.472  95.547  0.5475  0.1355  0.3247
10857TIP3    H154062   2.023   2.447  95.461  0.0160 -0.3761  0.2590
10857TIP3    H254063   1.917   2.412  95.563  0.3893  0.4787  0.9659
10858TIP3   OH254064   1.222   2.120  31.928 -0.0408 -0.2648  0.2100
10858TIP3    H154065   1.196   2.077  32.010 -0.3642 -2.2744 -0.8949
10858TIP3    H254066   1.178   2.070  31.859  0.9432  0.8264 -1.2797
10859TIP3   OH254067   1.239   0.072  20.817 -0.7486 -0.4001 -0.3675
10859TIP3    H154068   1.332   0.050  20.826 -0.7930 -0.3685  0.2058
10859TIP3    H254069   1.226   0.085  20.723 -0.1864 -0.4653 -0.4564
10860TIP3   OH254070   2.401   0.445  36.532 -0.2750  0.2832 -0.0167
10860TIP3    H154071   2.319   0.442  36.482 -0.9081 -0.0695  1.0041
10860TIP3    H254072   2.373   0.438  36.623  0.8756  0.5498  0.3703
10861TIP3   OH254073   1.124   0.281  87.386  0.0558 -0.0380  0.3745
10861TIP3    H154074   1.163   0.325  87.311 -0.6501 -0.3070 -0.1655
10861TIP3    H254075   1.188   0.215  87.412  0.4950  0.3505  0.2950
10862TIP3   OH254076   1.713   2.089   9.423 -0.0563 -0.4035 -0.6064
10862TIP3    H154077   1.674   2.033   9.491 -1.0956  1.2664  0.2523
10862TIP3    H254078   1.684   2.177   9.446  2.3504  0.6528 -1.3170
10863TIP3   OH254079   0.517   0.952  10.282  0.3206 -0.3877  0.1178
10863TIP3    H154080   0.539   1.042  10.307 -1.1944  0.0450 -0.0019
10863TIP3    H254081   0.555   0.898  10.351  0.9921  0.3592  0.3514
10864TIP3   OH254082   0.663   1.041   0.284 -0.1084  0.5088 -0.0195
10864TIP3    H154083   0.613   1.113   0.246  1.6604  0.4353 -2.7308
10864TIP3    H254084   0.749   1.078   0.302 -0.2279 -0.0674  1.9562
10865TIP3   OH254085   1.181   1.489  74.280 -0.2934 -0.0530 -0.2436
10865TIP3    H154086   1.159   1.535  74.199  1.0562 -0.6492 -0.9837
10865TIP3    H254087   1.247   1.544  74.322 -0.1868 -0.2850 -0.1024
10866TIP3   OH254088   1.164   1.676  24.338  0.2764 -0.3692 -0.6988
10866TIP3    H154089   1.107   1.750  24.318  1.6017  0.7459 -0.4834
10866TIP3    H254090   1.199   1.695  24.425  0.9569 -1.0388 -0.8107
10867TIP3   OH254091   0.096   2.242 109.513  0.0603 -0.1874  0.4103
10867TIP3    H154092   0.095   2.287 109.597 -0.9736 -0.8005  0.7404
10867TIP3    H254093   0.164   2.175 109.522  0.8519  0.5769  0.2852
10868TIP3   OH254094   1.507   2.397  92.048  0.2031 -0.0430 -0.2991
10868TIP3    H154095   1.462   2.338  91.988  2.5919 -0.6049 -1.6782
10868TIP3    H254096   1.500   2.355  92.134 -0.0816 -1.1483 -0.8448
10869TIP3   OH254097   0.659   0.063 104.954 -0.1966  0.2290  0.2302
10869TIP3    H154098   0.654   0.030 105.043  1.8214  0.9899  0.6776
10869TIP3    H254099   0.744   0.033 104.922 -1.2733 -0.8952 -1.8464
10870TIP3   OH254100   2.632   0.776   7.979 -0.5535 -0.7218 -0.0432
10870TIP3    H154101   2.607   0.684   7.980 -0.8384 -0.6805 -1.1136
10870TIP3    H254102   2.556   0.822   8.015  0.2918 -1.0164  2.2167
10871TIP3   OH254103   0.816   0.254  95.874 -0.0125  0.2218  0.3556
10871TIP3    H154104   0.895   0.214  95.836 -0.4337 -0.4103  0.1341
10871TIP3    H254105   0.838   0.266  95.967  0.0027 -0.8576  0.5010
10872TIP3   OH254106   1.300   1.289   2.792 -0.1581  0.5279  0.0091
10872TIP3    H154107   1.333   1.206   2.826  0.3316  0.7446  0.0715
10872TIP3    H254108   1.264   1.266   2.706 -0.3672  0.1879  0.1813
10873TIP3   OH254109   1.077   1.271  28.533  0.2485  0.0389  0.0276
10873TIP3    H154110   1.025   1.197  28.568 -0.3500 -0.2620 -1.4345
10873TIP3    H254111   1.149   1.229  28.486  1.6653  0.4556  1.7018
10874TIP3   OH254112   1.549   1.914  30.828  0.7079  0.1882  0.0352
10874TIP3    H154113   1.457   1.895  30.810  0.4401  1.9359 -0.6772
10874TIP3    H254114   1.592   1.828  30.827 -0.5704 -0.4921 -1.6413
10875TIP3   OH254115   1.694   2.107  92.067 -0.2926 -0.0753 -0.6693
10875TIP3    H154116   1.727   2.099  92.157  0.6636 -1.1661 -1.0902
10875TIP3    H254117   1.668   2.019  92.043 -0.5126  0.2042 -1.4798
10876TIP3   OH254118   2.271   0.516   4.249  0.0010  0.3045  0.6503
10876TIP3    H154119   2.267   0.544   4.158  0.0283 -0.6003  0.3540
10876TIP3    H254120   2.217   0.437   4.251 -1.5553  1.3455  1.8294
10877TIP3   OH254121   1.368   2.491  13.172  0.0932  0.4466  0.4936
10877TIP3    H154122   1.287   2.451  13.200  0.3146 -0.3590  0.0141
10877TIP3    H254123   1.344   2.581  13.150 -0.4713  0.4925  1.2679
10878TIP3   OH254124   2.669   0.914   2.728 -0.2863  0.2924 -0.0374
10878TIP3    H154125   2.758   0.914   2.690 -0.0925  1.7938  0.3390
10878TIP3    H254126   2.641   0.823   2.723  1.1802 -0.1735 -0.4060
10879TIP3   OH254127   2.346   0.640   8.567 -0.2400 -0.0951 -0.1145
10879TIP3    H154128   2.304   0.554   8.580 -0.5287  0.2586  1.5691
10879TIP3    H254129   2.321   0.666   8.479  0.8800 -2.2931 -1.1591
10880TIP3   OH254130   0.421   2.229 102.457  0.0153 -0.3418 -0.0809
10880TIP3    H154131   0.499   2.239 102.403 -0.3291 -1.8319 -0.9222
10880TIP3    H254132   0.394   2.319 102.477  2.0787  0.2093  0.4919
10881TIP3   OH254133   0.200   0.106  84.612 -0.1388 -0.4666  0.0846
10881TIP3    H154134   0.151   0.079  84.690 -2.0787  0.0855 -0.8902
10881TIP3    H254135   0.159   0.188  84.584 -0.8080 -1.5989 -2.5890
10882TIP3   OH254136   2.345   0.984  90.456 -0.1897 -0.1390 -0.0063
10882TIP3    H154137   2.403   0.946  90.522 -2.4169 -1.9147  1.0751
10882TIP3    H254138   2.363   1.078  90.460  1.1088 -0.4001  1.7466
10883TIP3   OH254139   2.154   0.276  24.026 -0.1407 -0.0401 -0.0136
10883TIP3    H154140   2.239   0.234  24.033 -0.9593 -2.1311 -1.5409
10883TIP3    H254141   2.122   0.282  24.116  0.9686 -0.6497  0.4345
10884TIP3   OH254142   0.086   1.723  89.374 -0.0183 -0.3335  0.3785
10884TIP3    H154143  -0.003   1.738  89.340 -0.0344  0.0873  0.6024
10884TIP3    H254144   0.138   1.795  89.338  0.1288 -0.3121  0.6315
10885TIP3   OH254145   0.552   0.194  97.249 -0.2947  0.2447 -0.3641
10885TIP3    H154146   0.591   0.143  97.178 -0.1339 -0.9554  0.5564
10885TIP3    H254147   0.535   0.130  97.318  0.6210  1.5351  1.1490
10886TIP3   OH254148   1.626   1.658 103.461 -0.1431  0.0332 -0.1116
10886TIP3    H154149   1.621   1.567 103.433  1.8402 -0.2181  0.1818
10886TIP3    H254150   1.559   1.704 103.410 -0.6463 -1.4367 -0.8102
10887TIP3   OH254151   1.430   1.382 104.365  0.3811 -0.3045  0.1161
10887TIP3    H154152   1.511   1.434 104.372  1.8949 -2.6102  0.6110
10887TIP3    H254153   1.402   1.368 104.455  0.3634 -0.9150  0.0179
10888TIP3   OH254154   2.471   1.674  95.852  0.0643 -0.6359 -0.3661
10888TIP3    H154155   2.441   1.710  95.769 -0.6475 -1.7053 -0.5944
10888TIP3    H254156   2.566   1.670  95.844  0.3728  2.6744  0.3037
10889TIP3   OH254157   2.448   0.528  77.933 -0.3771  0.1539  0.4070
10889TIP3    H154158   2.533   0.484  77.927 -1.2581 -1.7012  0.9406
10889TIP3    H254159   2.421   0.540  77.842 -0.1498 -0.5196  0.2429
10890TIP3   OH254160   0.295   1.163  87.224 -0.1138  0.2347  0.2856
10890TIP3    H154161   0.297   1.176  87.129 -0.0866  1.5706  0.4374
10890TIP3    H254162   0.338   1.241  87.259  1.2916 -0.9794  1.3510
10891TIP3   OH254163   2.112   0.132  22.089 -0.1918  0.3657  0.5054
10891TIP3    H154164   2.124   0.059  22.150 -1.4366  0.9580  1.5084
10891TIP3    H254165   2.160   0.204  22.130  1.2961  0.0921 -0.6320
10892TIP3   OH254166   0.823   0.124  78.769  0.0064  0.0829 -0.1015
10892TIP3    H154167   0.911   0.153  78.794  0.8285 -1.3514 -1.1737
10892TIP3    H254168   0.821   0.031  78.789 -1.2887  0.0930 -0.0951
10893TIP3   OH254169   2.011   0.380 105.016 -0.8583 -0.0692  0.0895
10893TIP3    H154170   1.939   0.326 104.986 -0.5353 -1.0780  1.0585
10893TIP3    H254171   2.074   0.318 105.054  0.6026  0.7538 -0.8714
10894TIP3   OH254172   2.653   0.332  24.779 -0.3645 -0.2535 -0.0564
10894TIP3    H154173   2.634   0.288  24.862  0.3721 -1.5779 -0.5539
10894TIP3    H254174   2.743   0.307  24.759 -0.1772  0.9065 -0.7414
10895TIP3   OH254175   2.319   0.712   7.835  0.5208  0.0496  0.0722
10895TIP3    H154176   2.281   0.633   7.795 -1.0722  0.3412  0.9278
10895TIP3    H254177   2.402   0.724   7.789  0.3239 -1.5384 -0.7895
10896TIP3   OH254178   1.932   1.357  90.520  0.5493 -0.5218  0.1520
10896TIP3    H154179   1.861   1.404  90.564  0.7126  0.2547 -0.3844
10896TIP3    H254180   1.964   1.294  90.585 -0.7169 -0.9830  0.3430
10897TIP3   OH254181   0.676   2.636  74.645 -0.5928 -0.6409 -0.1382
10897TIP3    H154182   0.676   2.731  74.660 -1.8143 -0.4545 -1.0968
10897TIP3    H254183   0.737   2.623  74.573 -0.0481 -0.6468  0.3213
10898TIP3   OH254184   2.393   1.364  27.745 -0.8721  0.0314 -0.0512
10898TIP3    H154185   2.450   1.439  27.759  0.6665 -1.1331  0.1469
10898TIP3    H254186   2.318   1.399  27.697 -0.7485  1.8905  1.0455
10899TIP3   OH254187   1.848   2.072  76.466 -0.0866  0.0839  0.3498
10899TIP3    H154188   1.897   2.148  76.496  1.1352 -0.3492 -0.4583
10899TIP3    H254189   1.878   2.000  76.520 -0.3856 -0.0537  0.3396
10900TIP3   OH254190   1.174   2.092 100.412  0.0544 -0.0661 -0.5064
10900TIP3    H154191   1.157   2.155 100.342  0.4483  0.5240 -0.0759
10900TIP3    H254192   1.122   2.015 100.388 -1.1624  0.7449 -0.5585
10901TIP3   OH254193   0.386   1.654  94.774  0.1411 -0.6742 -0.2174
10901TIP3    H154194   0.309   1.711  94.783 -0.5911 -1.8548  1.6466
10901TIP3    H254195   0.415   1.668  94.684 -1.6510  0.5601 -0.6852
10902TIP3   OH254196   0.093   2.273  36.231  0.1727  0.1341 -0.0459
10902TIP3    H154197   0.165   2.323  36.269  2.6560 -1.7221 -1.9964
10902TIP3    H254198   0.029   2.339  36.204  2.4363  2.1605 -0.7763
10903TIP3   OH254199   1.708   0.514 111.463 -0.2335  0.3124 -0.4714
10903TIP3    H154200   1.644   0.560 111.518 -0.0908  1.3716 -1.1717
10903TIP3    H254201   1.667   0.429 111.446 -1.1875  0.7358 -0.3827
10904TIP3   OH254202   1.337   2.526  95.266  0.0829  0.1730 -0.3379
10904TIP3    H154203   1.293   2.609  95.246  0.3752  0.3557 -0.2212
10904TIP3    H254204   1.427   2.550  95.287 -0.4868  0.1615  2.5225
10905TIP3   OH254205   1.132   1.330  80.866 -0.5471 -0.3888  0.0693
10905TIP3    H154206   1.189   1.291  80.933  2.8835  0.3247 -2.2105
10905TIP3    H254207   1.091   1.255  80.822  0.6686 -1.0747  0.0898
10906TIP3   OH254208   2.168   0.870  20.157  0.0856  0.0958  0.2659
10906TIP3    H154209   2.111   0.845  20.230  0.9352 -0.5620  0.7364
10906TIP3    H254210   2.109   0.901  20.089 -0.8591 -0.9401  0.5888
10907TIP3   OH254211   0.610   2.637  90.471 -0.3924 -0.0543  0.4132
10907TIP3    H154212   0.622   2.722  90.514 -0.0820 -0.0999  0.4235
10907TIP3    H254213   0.664   2.643  90.392 -2.1839  0.6154 -0.8243
10908TIP3   OH254214   2.208   2.609  35.607  0.6569 -0.3490  0.0747
10908TIP3    H154215   2.155   2.529  35.603 -0.2376  0.2179  0.4466
10908TIP3    H254216   2.165   2.663  35.673  1.5014  0.2753  0.1251
10909TIP3   OH254217   2.586   0.175  56.813  0.1642 -0.1873  0.8288
10909TIP3    H154218   2.550   0.197  56.899  0.1499 -0.8329  0.9946
10909TIP3    H254219   2.560   0.247  56.756  0.8097  0.6273  1.5353
10910TIP3   OH254220   2.492   0.888  33.671  0.0591  0.3289  0.0387
10910TIP3    H154221   2.576   0.927  33.695  2.2633 -2.3726 -2.5659
10910TIP3    H254222   2.485   0.900  33.576 -1.8521 -0.6671 -0.0137
10911TIP3   OH254223   1.975   0.239  15.584 -0.0084  0.0258  0.3145
10911TIP3    H154224   1.932   0.264  15.665 -3.6566  0.1471 -1.4271
10911TIP3    H254225   1.974   0.143  15.585 -0.3844  0.0294  0.2547
10912TIP3   OH254226   1.027   0.671  20.629 -0.4255 -0.0452 -0.6185
10912TIP3    H154227   0.990   0.758  20.644  0.2151  0.2289 -0.6016
10912TIP3    H254228   0.995   0.646  20.542 -0.4666  0.2843 -0.7000
10913TIP3   OH254229   2.119   1.712  20.339 -0.4355 -0.6667  0.2375
10913TIP3    H154230   2.161   1.798  20.338 -0.4281 -0.6737 -0.5139
10913TIP3    H254231   2.025   1.731  20.341 -0.4580 -0.6249 -0.7433
10914TIP3   OH254232   1.794   2.459  73.556  0.6680 -0.2976 -0.7351
10914TIP3    H154233   1.817   2.392  73.491 -2.1560  1.4059 -3.8238
10914TIP3    H254234   1.749   2.412  73.625  3.0635 -2.1060 -0.2750
10915TIP3   OH254235   1.592   0.660  35.403 -0.3410 -0.0934 -0.0383
10915TIP3    H154236   1.540   0.605  35.345  1.2636 -1.3706 -0.3491
10915TIP3    H254237   1.604   0.608  35.482  2.6063 -1.0330 -0.9706
10916TIP3   OH254238   2.149   2.204   4.654  0.0448 -0.2370  0.0914
10916TIP3    H154239   2.083   2.271   4.674 -1.5649 -1.9813  0.9542
10916TIP3    H254240   2.233   2.246   4.675 -0.8751  1.5808  0.3247
10917TIP3   OH254241   1.811   2.198  91.597  0.0717 -0.2394 -0.0021
10917TIP3    H154242   1.751   2.226  91.528  0.9061  0.1713 -0.5833
10917TIP3    H254243   1.759   2.202  91.677 -0.2435  1.7240 -0.2517
10918TIP3   OH254244   1.283   0.434  28.205 -0.4918  0.4396 -0.4139
10918TIP3    H154245   1.303   0.524  28.178 -2.0142  0.9367  0.0050
10918TIP3    H254246   1.223   0.402  28.138 -0.7022  0.0753 -0.0527
10919TIP3   OH254247   0.600   0.248  25.374  0.3571  0.6273  0.3261
10919TIP3    H154248   0.589   0.326  25.320 -0.8588  0.6778  0.6018
10919TIP3    H254249   0.683   0.261  25.419  1.7674  0.2678 -1.9918
10920TIP3   OH254250   0.082   1.417   8.277 -0.1529  0.2084 -0.0932
10920TIP3    H154251   0.166   1.400   8.322 -1.0608 -1.6701  1.0111
10920TIP3    H254252   0.029   1.462   8.343 -0.7274 -0.5470 -0.0263
10921TIP3   OH254253   0.715   1.318  27.470 -0.1006 -0.2691  0.1638
10921TIP3    H154254   0.764   1.290  27.393 -1.2329 -1.0790 -0.2928
10921TIP3    H254255   0.705   1.413  27.460  0.3458 -0.2757 -0.3374
10922TIP3   OH254256   1.404   1.355  92.815  0.2669 -0.1819 -0.2119
10922TIP3    H154257   1.443   1.269  92.800 -0.1475 -0.3893 -0.1014
10922TIP3    H254258   1.311   1.337  92.826  0.2459  0.2253  0.2923
10923TIP3   OH254259   2.387   1.632  22.352  0.0731  0.0705 -0.0940
10923TIP3    H154260   2.454   1.671  22.296 -1.4172  0.5047 -1.6789
10923TIP3    H254261   2.355   1.705  22.405  1.0568 -0.2070  0.8998
10924TIP3   OH254262   1.098   1.417  87.354 -0.4418  0.5501 -0.6786
10924TIP3    H154263   1.099   1.457  87.267 -0.6234 -1.0564 -1.4640
10924TIP3    H254264   1.103   1.323  87.337 -1.2191  0.1591  1.0237
10925TIP3   OH254265   1.488   1.219  37.811 -0.3367 -0.1247 -0.7220
10925TIP3    H154266   1.557   1.280  37.836 -0.0493 -0.7324  0.0104
10925TIP3    H254267   1.476   1.163  37.888 -0.9525 -0.6626 -1.1932
10926TIP3   OH254268   2.315   0.715  77.071  0.0243  1.0105 -0.8890
10926TIP3    H154269   2.232   0.690  77.114  1.5058  1.0889  2.2911
10926TIP3    H254270   2.333   0.642  77.011 -1.4271  0.0776 -0.2656
10927TIP3   OH254271   1.115   2.325  19.589  0.0962  0.3297 -0.2819
10927TIP3    H154272   1.109   2.279  19.673  0.0389  0.1486 -0.3824
10927TIP3    H254273   1.191   2.382  19.597  0.1111  0.2868 -0.1191
10928TIP3   OH254274   1.882   0.021  30.817  0.6556  0.1324  0.4370
10928TIP3    H154275   1.812   0.086  30.810  0.7488  0.1883 -0.0131
10928TIP3    H254276   1.853  -0.052  30.762 -0.6144 -1.2987  2.8238
10929TIP3   OH254277   0.105   0.159  89.467 -0.0268  0.2888  0.1434
10929TIP3    H154278   0.028   0.104  89.454 -0.1561 -0.0369  1.9144
10929TIP3    H254279   0.094   0.195  89.555  1.8407  0.1938  0.4675
10930TIP3   OH254280   0.646   1.327  29.445  0.3760  1.0519 -0.0872
10930TIP3    H154281   0.708   1.379  29.394  0.3364  0.7657 -0.4317
10930TIP3    H254282   0.569   1.319  29.389  1.0266 -0.8469 -0.7921
10931TIP3   OH254283   2.539   2.054  14.182 -0.2923  0.1473 -0.4900
10931TIP3    H154284   2.596   2.119  14.142 -0.6789  0.6343 -0.2527
10931TIP3    H254285   2.546   2.071  14.276 -0.0867 -0.4066 -0.4039
10932TIP3   OH254286   2.615   2.353 102.465 -0.0398 -0.2987  0.0427
10932TIP3    H154287   2.683   2.340 102.400 -0.1679  1.6369 -0.5437
10932TIP3    H254288   2.662   2.371 102.547  0.2186  1.4261 -0.4414
10933TIP3   OH254289   0.440   2.278  27.467  0.4720  0.1707  0.4615
10933TIP3    H154290   0.385   2.200  27.455 -1.2128  0.8704  2.8499
10933TIP3    H254291   0.388   2.335  27.523  1.6998  3.0190 -1.0939
10934TIP3   OH254292   2.522   2.596  89.759  0.2803 -0.5738 -0.2441
10934TIP3    H154293   2.542   2.690  89.758  3.2882 -1.0767  1.6001
10934TIP3    H254294   2.539   2.569  89.849  0.3427 -3.0758 -0.9556
10935TIP3   OH254295   0.071   1.353  13.455  0.1196 -0.4302  0.6368
10935TIP3    H154296   0.160   1.357  13.492  0.1546  1.7039  0.4451
10935TIP3    H254297   0.075   1.281  13.392  2.0928  0.3623 -0.2359
10936TIP3   OH254298   0.171   0.787  76.490  0.0877 -0.0746 -0.5973
10936TIP3    H154299   0.112   0.713  76.476 -0.1129 -0.3228  1.3290
10936TIP3    H254300   0.255   0.747  76.510 -0.0969  0.1976  0.7705
10937TIP3   OH254301   2.615   2.508  34.648  0.2546 -0.0732  0.0390
10937TIP3    H154302   2.554   2.443  34.613  0.8278 -0.3867 -0.3958
10937TIP3    H254303   2.685   2.455  34.687 -1.1265  0.1869  3.2105
10938TIP3   OH254304   0.415   0.532  28.581  0.0915  0.1266  0.1850
10938TIP3    H154305   0.386   0.616  28.545  0.8549  1.1244  1.7635
10938TIP3    H254306   0.353   0.513  28.651  0.8513  0.2193  0.9050
10939TIP3   OH254307   0.908   1.825  22.382 -0.0026  0.1229 -0.2504
10939TIP3    H154308   0.923   1.781  22.299 -0.9991  1.1385 -0.9845
10939TIP3    H254309   0.901   1.754  22.446  0.2434 -0.6857 -1.1066
10940TIP3   OH254310   0.730   1.553  17.771 -0.0229 -0.2924 -0.3550
10940TIP3    H154311   0.739   1.622  17.837 -1.5886 -1.2260  0.9066
10940TIP3    H254312   0.706   1.475  17.822 -1.7868 -0.9267 -2.0724
10941TIP3   OH254313   2.431   1.046  73.752 -1.0123 -0.5959 -0.2712
10941TIP3    H154314   2.416   0.963  73.705  1.3643 -2.4024  1.8747
10941TIP3    H254315   2.514   1.078  73.715 -1.9974  1.0022 -1.1952
10942TIP3   OH254316   1.283   0.953 110.319 -0.3854 -0.3366 -0.5644
10942TIP3    H154317   1.368   0.932 110.279 -0.4643 -0.3521 -0.7208
10942TIP3    H254318   1.305   0.977 110.409 -0.1121  0.5265 -0.8540
10943TIP3   OH254319   1.218   0.653 109.846  0.8086  0.7199  0.5500
10943TIP3    H154320   1.253   0.666 109.934  0.9207  2.3430  0.2867
10943TIP3    H254321   1.292   0.616 109.797  0.6194 -0.6141  1.2090
10944TIP3   OH254322   0.142   2.639   9.127 -0.1981  0.2918  0.2622
10944TIP3    H154323   0.131   2.574   9.058  0.7280  0.7274 -0.3212
10944TIP3    H254324   0.166   2.588   9.204 -0.6495 -0.1527  0.1137
10945TIP3   OH254325   2.454   2.160  96.274  0.0394  0.5656  0.1090
10945TIP3    H154326   2.548   2.164  96.255  0.0297 -1.0418 -0.3905
10945TIP3    H254327   2.427   2.073  96.245 -1.8298  1.3680 -0.7270
10946TIP3   OH254328   2.469   0.841  78.108  0.4588 -0.5676 -0.1177
10946TIP3    H154329   2.437   0.919  78.063 -1.2724 -1.5101 -0.6174
10946TIP3    H254330   2.449   0.769  78.048  0.3899 -1.5842  1.0886
10947TIP3   OH254331   2.085   2.052  17.811 -0.6567 -0.0213 -0.2042
10947TIP3    H154332   2.021   1.983  17.831  0.5765 -1.0718  0.2408
10947TIP3    H254333   2.032   2.124  17.777 -2.1083 -0.7369  0.4430
10948TIP3   OH254334   2.248   0.892  19.238  0.7311  0.2034 -0.5366
10948TIP3    H154335   2.294   0.947  19.302  0.5794 -0.3138  0.0286
10948TIP3    H254336   2.190   0.837  19.291 -1.2160  1.4328 -1.2816
10949TIP3   OH254337   1.618   1.330  72.968  0.2243 -0.6457 -0.2341
10949TIP3    H154338   1.648   1.377  72.890 -0.5713  1.1836  0.5215
10949TIP3    H254339   1.654   1.379  73.042 -2.2124 -0.0327  0.6284
10950TIP3   OH254340   1.506   0.503  63.433 -0.0657 -0.0476  0.3769
10950TIP3    H154341   1.498   0.452  63.513  1.0888  0.5286  0.8835
10950TIP3    H254342   1.523   0.438  63.364 -3.1567 -0.7763  0.1522
10951TIP3   OH254343   2.399   2.037  62.959  0.6183  0.6180 -0.1674
10951TIP3    H154344   2.470   2.083  63.005  0.0489 -0.0914  1.5296
10951TIP3    H254345   2.351   1.993  63.029 -0.4331 -0.3757 -1.4700
10952TIP3   OH254346   1.559   2.498 102.149  0.0476  0.6605  0.0579
10952TIP3    H154347   1.593   2.545 102.225  0.0887  1.4104 -0.4181
10952TIP3    H254348   1.616   2.524 102.077 -0.6539  0.8122 -0.4558
10953TIP3   OH254349   1.517   2.152  24.356 -0.2322  0.0235 -0.2350
10953TIP3    H154350   1.459   2.209  24.306 -0.3657  0.7724  0.7405
10953TIP3    H254351   1.532   2.077  24.299 -0.4922  0.7809 -1.3290
10954TIP3   OH254352   0.215   1.650  98.223 -0.0204  0.5761 -0.0311
10954TIP3    H154353   0.215   1.558  98.250 -0.7991  0.5964  0.0584
10954TIP3    H254354   0.123   1.673  98.218  0.1310  0.9859 -1.3195
10955TIP3   OH254355   2.058   0.433 105.428  0.0696 -0.0978 -0.3155
10955TIP3    H154356   2.093   0.347 105.404 -2.0399 -1.0193 -0.2823
10955TIP3    H254357   2.048   0.429 105.523  1.0699  0.6538 -0.1598
10956TIP3   OH254358   1.026   1.894  18.173 -0.2138  0.5532 -0.0541
10956TIP3    H154359   0.971   1.948  18.229 -0.7068 -0.7907  0.8300
10956TIP3    H254360   1.112   1.897  18.213 -0.2070  0.8096 -0.0908
10957TIP3   OH254361   0.653   1.728 105.654 -0.3890  0.2287 -0.4985
10957TIP3    H154362   0.616   1.798 105.600  0.2445  1.1205  0.1909
10957TIP3    H254363   0.701   1.774 105.723  0.8415 -0.8916 -0.5639
10958TIP3   OH254364   1.027   2.232  90.349  0.3291 -0.0847 -0.1239
10958TIP3    H154365   0.997   2.250  90.260 -0.2592  1.0207  0.2882
10958TIP3    H254366   1.105   2.286  90.360  0.4330 -0.2618  0.0068
10959TIP3   OH254367   0.079   2.570  99.946 -0.0950 -0.2583 -0.2525
10959TIP3    H154368  -0.008   2.543  99.918  0.0633 -0.6165 -0.4064
10959TIP3    H254369   0.074   2.572 100.041  0.1802 -1.8616 -0.1770
10960TIP3   OH254370   1.847   0.266  34.765 -0.2459 -0.6325 -0.0556
10960TIP3    H154371   1.902   0.189  34.781  0.4251 -0.0462  0.5274
10960TIP3    H254372   1.842   0.309  34.850  1.7106  1.4714 -0.9001
10961TIP3   OH254373   0.780   0.810  87.774 -0.0969  0.1288  0.2603
10961TIP3    H154374   0.685   0.805  87.778 -0.1524  0.4673 -0.4442
10961TIP3    H254375   0.805   0.737  87.716  0.2914 -1.6306  2.5004
10962TIP3   OH254376   0.322   1.662  98.641 -0.3417 -0.2972 -0.5247
10962TIP3    H154377   0.368   1.582  98.616  0.1623 -0.1111 -0.2059
10962TIP3    H254378   0.233   1.649  98.610 -0.7541 -1.7760  1.1687
10963TIP3   OH254379   1.274   0.244  80.240  0.0679 -0.4692  0.0440
10963TIP3    H154380   1.311   0.164  80.279 -1.7025 -0.6427  1.5041
10963TIP3    H254381   1.239   0.215  80.155 -0.0621 -1.1273  0.3190
10964TIP3   OH254382   1.815   0.488  11.419  0.0381 -0.5718 -0.0330
10964TIP3    H154383   1.903   0.502  11.384  0.0932 -0.2995  0.2132
10964TIP3    H254384   1.800   0.562  11.478 -0.4236 -0.5213 -0.2080
10965TIP3   OH254385   2.374   0.861  30.557  0.0270  0.0639  0.3087
10965TIP3    H154386   2.309   0.930  30.571 -0.0756 -0.0191  0.2408
10965TIP3    H254387   2.345   0.815  30.478 -1.4051 -1.7319  1.7777
10966TIP3   OH254388   2.570   0.472  84.230 -0.0390 -0.8043  0.4862
10966TIP3    H154389   2.603   0.518  84.154  0.7490 -0.5183  0.9892
10966TIP3    H254390   2.598   0.525  84.305 -2.9455  0.3008  0.9229
10967TIP3   OH254391   0.063   1.582  98.549  0.3703  0.3586 -0.7294
10967TIP3    H154392   0.004   1.630  98.491 -0.0626 -0.3335 -0.8695
10967TIP3    H254393   0.010   1.512  98.586  1.3704 -1.0298 -1.7798
10968TIP3   OH254394   2.498   1.548   8.266  0.1022 -0.4903 -0.2267
10968TIP3    H154395   2.458   1.633   8.289 -0.8063 -1.0618  0.3809
10968TIP3    H254396   2.499   1.500   8.349  0.1337 -1.2606 -0.6700
10969TIP3   OH254397   0.645   1.944  97.255  0.5600 -0.3472 -0.4897
10969TIP3    H154398   0.642   1.853  97.223  0.1665 -0.5877  0.2113
10969TIP3    H254399   0.611   1.939  97.344  0.7570  0.4616 -0.3648
10970TIP3   OH254400   2.586   0.186  90.160  0.2539  0.1620  0.3624
10970TIP3    H154401   2.610   0.255  90.222  2.2843  1.9556 -2.1783
10970TIP3    H254402   2.594   0.105  90.209  1.0068  1.5095  2.6246
10971TIP3   OH254403   2.646   0.127   4.664  0.2175 -0.1339 -0.2321
10971TIP3    H154404   2.700   0.159   4.736 -2.6209  0.5755  1.7305
10971TIP3    H254405   2.651   0.031   4.670  0.8311 -0.0754  0.2250
10972TIP3   OH254406   0.431   0.681  89.956  0.6865 -0.2843 -0.6323
10972TIP3    H154407   0.439   0.749  89.889  0.7075 -1.0534 -1.4199
10972TIP3    H254408   0.337   0.666  89.964  0.5160  1.3385  1.1063
10973TIP3   OH254409   1.363   1.866 111.646  0.0581 -0.2449 -0.4865
10973TIP3    H154410   1.421   1.807 111.694  1.1469  0.8448 -0.4200
10973TIP3    H254411   1.318   1.809 111.583  0.4894 -1.2663  0.1086
10974TIP3   OH254412   1.898   2.061  18.606 -0.2886 -0.0517 -0.2822
10974TIP3    H154413   1.840   2.121  18.560 -0.9500 -0.6940 -0.3162
10974TIP3    H254414   1.980   2.109  18.616 -1.0569  1.1673  0.4444
10975TIP3   OH254415   1.432   0.401 104.713 -0.4643 -0.0265  0.3150
10975TIP3    H154416   1.340   0.417 104.691 -0.3479 -0.5099 -0.5794
10975TIP3    H254417   1.449   0.313 104.681  0.6794  0.5649 -0.8290
10976TIP3   OH254418   2.194   0.319  13.346 -0.3145  0.2027 -0.2468
10976TIP3    H154419   2.257   0.306  13.417 -1.0813  1.0405  0.6104
10976TIP3    H254420   2.127   0.251  13.360 -0.2276  0.0704 -0.4567
10977TIP3   OH254421   0.385   1.665  52.712 -0.0424 -0.2862 -0.9144
10977TIP3    H154422   0.320   1.664  52.642 -1.0121  1.3557 -0.0855
10977TIP3    H254423   0.468   1.682  52.667 -0.1143 -2.3590 -1.9786
10978TIP3   OH254424   2.313   1.477   7.202  0.6543  0.1496  0.5107
10978TIP3    H154425   2.398   1.518   7.215  0.3715  0.8460  0.1723
10978TIP3    H254426   2.333   1.389   7.169  1.2730 -0.1553  1.6452
10979TIP3   OH254427   0.517   2.350 109.187  0.0565 -0.2550  0.1530
10979TIP3    H154428   0.495   2.435 109.225  1.4743  0.4972 -0.6266
10979TIP3    H254429   0.434   2.317 109.153 -0.5112  0.8702  0.3818
10980TIP3   OH254430   1.165   2.048   3.333  0.2008 -0.0703  0.3714
10980TIP3    H154431   1.092   2.108   3.350 -0.9925 -1.2368 -0.4087
10980TIP3    H254432   1.227   2.099   3.282 -0.9075  0.4445 -0.4994
10981TIP3   OH254433   2.226   1.185  15.328  0.2296 -0.2245 -0.1760
10981TIP3    H154434   2.252   1.179  15.420 -1.7396  0.0950  0.4524
10981TIP3    H254435   2.189   1.098  15.309 -1.0347  0.2767 -0.0882
10982TIP3   OH254436   2.490   1.325  32.464 -0.8348  0.7011  0.5702
10982TIP3    H154437   2.585   1.341  32.460 -0.7944  0.2955 -1.5941
10982TIP3    H254438   2.452   1.410  32.486 -0.1728  2.1213 -3.0451
10983TIP3   OH254439   2.254   2.162 109.319  0.1422 -0.0596  0.2580
10983TIP3    H154440   2.311   2.145 109.394  0.8423  0.4129 -0.1609
10983TIP3    H254441   2.206   2.079 109.307  0.1177 -0.1855  1.1292
10984TIP3   OH254442   0.160   1.336  92.822 -0.0568  0.4908  0.2464
10984TIP3    H154443   0.171   1.334  92.727  0.2884  0.9567  0.2746
10984TIP3    H254444   0.163   1.244  92.848 -1.3664  0.2619 -0.3157
10985TIP3   OH254445   0.588   0.063  28.476 -0.1180 -0.0248 -0.2141
10985TIP3    H154446   0.601   0.116  28.555 -1.0272 -0.7502  0.4488
10985TIP3    H254447   0.658   0.090  28.417  0.0705  1.1471  0.5115
10986TIP3   OH254448   2.193   1.591  24.579  0.2301  0.0934  0.1068
10986TIP3    H154449   2.274   1.621  24.539  0.4728 -0.5899  0.0615
10986TIP3    H254450   2.126   1.651  24.547  0.8727  1.3107  0.9682
10987TIP3   OH254451   0.816   0.850  86.739  0.0411 -0.2913  0.5288
10987TIP3    H154452   0.869   0.778  86.773  0.1420 -0.7655 -0.5846
10987TIP3    H254453   0.877   0.903  86.689 -0.4589 -0.6899 -0.5288
10988TIP3   OH254454   0.648   2.489  23.627 -0.5032 -0.1161  0.3518
10988TIP3    H154455   0.722   2.550  23.628  0.2550 -1.0159  0.8012
10988TIP3    H254456   0.626   2.478  23.534  0.3600 -0.3460  0.1717
10989TIP3   OH254457   2.663   0.387  88.631 -0.0269  0.0872  0.4283
10989TIP3    H154458   2.636   0.389  88.722 -0.7822 -0.3438  0.2261
10989TIP3    H254459   2.704   0.301  88.620 -0.7301 -0.2253  0.1576
10990TIP3   OH254460   2.581   2.619  12.403 -0.4681  0.4531  0.0081
10990TIP3    H154461   2.555   2.711  12.405 -2.1875 -0.0011 -0.0845
10990TIP3    H254462   2.565   2.588  12.492 -1.7234 -0.2067 -0.4232
10991TIP3   OH254463   0.488   2.588  35.338 -0.0746  0.1587  0.3041
10991TIP3    H154464   0.507   2.661  35.279  1.2450 -0.5648 -0.2097
10991TIP3    H254465   0.442   2.628  35.411  0.8205  1.5464  0.1464
10992TIP3   OH254466   1.269   0.851  58.625 -0.0487 -0.4006 -0.1891
10992TIP3    H154467   1.323   0.824  58.551 -0.3363 -0.7459 -0.2699
10992TIP3    H254468   1.187   0.804  58.614 -0.0672 -0.5101  0.3900
10993TIP3   OH254469   0.620   1.018  83.902  0.0367 -0.3602  0.4921
10993TIP3    H154470   0.642   1.090  83.960 -0.1276 -0.0545  0.1790
10993TIP3    H254471   0.700   0.967  83.895 -0.2628 -1.0841  1.9489
10994TIP3   OH254472   1.154   1.999 106.673 -0.5541  0.0711  0.3145
10994TIP3    H154473   1.215   2.070 106.689 -0.9490  1.0866 -2.2197
10994TIP3    H254474   1.067   2.040 106.674 -0.7496 -0.1321 -1.8237
10995TIP3   OH254475   1.394   1.464 103.613 -0.0226 -0.4109  0.1670
10995TIP3    H154476   1.467   1.419 103.571 -1.3017 -1.1141 -1.4033
10995TIP3    H254477   1.317   1.413 103.588 -1.3369  1.6421 -0.2362
10996TIP3   OH254478   0.350   1.819 101.370 -0.2050 -0.1142  0.1160
10996TIP3    H154479   0.270   1.782 101.407 -0.0952 -0.6701 -0.1805
10996TIP3    H254480   0.369   1.896 101.424 -2.0037  1.1875 -0.9708
10997TIP3   OH254481   1.209   0.512   9.879 -0.2456 -0.2510 -0.2520
10997TIP3    H154482   1.273   0.578   9.851 -0.3544  0.1576  0.4243
10997TIP3    H254483   1.181   0.542   9.966 -2.5397  0.4628 -1.1573
10998TIP3   OH254484   0.271   1.591  27.530  0.4465  0.2074 -0.0532
10998TIP3    H154485   0.302   1.536  27.458  0.0515  0.6697 -0.5908
10998TIP3    H254486   0.301   1.547  27.609  0.0756 -0.8053 -0.4671
10999TIP3   OH254487   1.925   2.076  29.179 -0.1131  0.7270 -0.4865
10999TIP3    H154488   1.988   2.149  29.178 -0.6861  1.2230 -1.2590
10999TIP3    H254489   1.867   2.093  29.105  0.1389 -0.8778 -1.0933
11000TIP3   OH254490   0.215   1.912  84.120 -0.3098  0.0015  0.5664
11000TIP3    H154491   0.280   1.856  84.078 -0.2994 -0.4513  1.1631
11000TIP3    H254492   0.131   1.874  84.094 -0.3167  0.1689  0.3509
11001TIP3   OH254493   1.561   0.942  37.583 -0.1759  0.0652  0.6495
11001TIP3    H154494   1.480   0.917  37.538  0.8058 -0.6302 -0.8144
11001TIP3    H254495   1.588   1.023  37.540  0.1857 -0.0099  0.7314
11002TIP3   OH254496   1.816   0.439  15.956  0.2275  0.3749 -0.4154
11002TIP3    H154497   1.737   0.385  15.952  0.1974  0.4616 -1.1769
11002TIP3    H254498   1.877   0.397  15.895  0.7744  0.3055  0.1701
11003TIP3   OH254499   1.788   2.594  98.703 -0.2586 -0.1363 -0.3342
11003TIP3    H154500   1.837   2.556  98.631 -1.4763 -1.5317 -0.4551
11003TIP3    H254501   1.754   2.677  98.668  0.0316 -0.3032 -1.0179
11004TIP3   OH254502   2.172   1.741  21.321 -0.2247  0.1303  0.0284
11004TIP3    H154503   2.156   1.831  21.293 -0.2963 -0.3824 -1.6486
11004TIP3    H254504   2.142   1.686  21.248  1.0318 -1.2070  0.4429
11005TIP3   OH254505   2.443   0.193  73.920 -0.0368 -0.1651  0.1736
11005TIP3    H154506   2.454   0.273  73.971  1.5463 -1.5715  2.1835
11005TIP3    H254507   2.458   0.220  73.830  0.9518  1.7115  0.8436
11006TIP3   OH254508   0.380   1.910  34.003  0.3627 -0.2373 -0.2479
11006TIP3    H154509   0.320   1.835  34.008  0.6172 -0.4979 -1.0651
11006TIP3    H254510   0.357   1.963  34.080 -1.0966 -0.2060 -0.6626
11007TIP3   OH254511   0.815   0.612  93.660  0.1568 -0.5368  0.3049
11007TIP3    H154512   0.806   0.631  93.567  0.9950 -0.8780  0.1553
11007TIP3    H254513   0.756   0.538  93.675 -0.8503  0.2394  0.2989
11008TIP3   OH254514   0.317   2.378   8.219  0.5992  1.0251  0.4132
11008TIP3    H154515   0.349   2.446   8.161  0.5570  1.1721  0.5608
11008TIP3    H254516   0.372   2.302   8.201  0.6551  1.1033  0.2585
11009TIP3   OH254517   1.406   1.326 105.688 -0.2218  0.3150 -0.1593
11009TIP3    H154518   1.447   1.397 105.738  1.0231 -1.7341  1.9542
11009TIP3    H254519   1.312   1.337 105.704 -0.0437  1.3640  0.2880
11010TIP3   OH254520   1.161   2.037  83.989 -0.1699 -0.8922  0.2494
11010TIP3    H154521   1.109   1.986  84.051 -1.4095  0.7119  0.5904
11010TIP3    H254522   1.149   2.128  84.016  0.2242 -0.2374 -1.6175
11011TIP3   OH254523   2.555   1.430  82.671 -0.2503  0.1991  0.5506
11011TIP3    H154524   2.547   1.343  82.711  2.1049 -0.3100  0.0510
11011TIP3    H254525   2.512   1.489  82.733 -2.7600 -1.3885  0.4590
11012TIP3   OH254526   0.335   2.001 104.157 -0.2029 -0.0773  0.2739
11012TIP3    H154527   0.380   2.075 104.198  1.7125 -0.6266 -0.6836
11012TIP3    H254528   0.256   2.039 104.118  0.9413  1.5897 -0.5504
11013TIP3   OH254529   2.656   1.829  12.210  0.5986  0.0073 -0.3420
11013TIP3    H154530   2.626   1.828  12.119  0.3852  2.6563 -0.3760
11013TIP3    H254531   2.728   1.892  12.211 -1.0146  1.9812  1.7065
11014TIP3   OH254532   1.597   1.499  35.054  0.8832 -0.8358 -0.6546
11014TIP3    H154533   1.644   1.427  35.096 -0.2714 -0.8563  0.6566
11014TIP3    H254534   1.511   1.463  35.033 -0.1938  0.4783  1.2292
11015TIP3   OH254535   2.138   0.173  29.324  0.5636 -0.1812  0.2001
11015TIP3    H154536   2.176   0.260  29.339 -1.1701  0.9438 -1.4186
11015TIP3    H254537   2.089   0.183  29.242 -1.7284 -1.9889  1.2550
11016TIP3   OH254538   0.258   0.783   5.663  0.1479  0.3371 -0.0870
11016TIP3    H154539   0.323   0.717   5.639  0.1867  0.4203 -0.2178
11016TIP3    H254540   0.179   0.734   5.684 -0.5936  0.3291 -2.5718
11017TIP3   OH254541   1.428   1.636  30.967 -0.7631 -0.2919  0.0431
11017TIP3    H154542   1.347   1.669  30.927  0.1970  1.0021 -0.9456
11017TIP3    H254543   1.435   1.546  30.935 -0.7764  0.2432 -1.5915
11018TIP3   OH254544   1.797   0.992  79.171 -0.5843  0.1188  0.4120
11018TIP3    H154545   1.727   1.021  79.113  0.2579  2.2976  0.4106
11018TIP3    H254546   1.877   1.003  79.120 -0.0859 -0.8219  0.9614
11019TIP3   OH254547   0.549   0.736  12.362 -0.2739 -0.1742 -0.4330
11019TIP3    H154548   0.533   0.700  12.275  0.1076 -0.7092 -0.2841
11019TIP3    H254549   0.503   0.820  12.362 -1.5222 -0.8426 -0.6406
11020TIP3   OH254550   2.116   0.255  10.284  0.2019 -0.2974 -0.5360
11020TIP3    H154551   2.116   0.159  10.286 -1.2715 -0.3526 -1.3947
11020TIP3    H254552   2.207   0.278  10.265  0.5521 -1.5284 -0.4739
11021TIP3   OH254553   1.721   0.811 111.539  0.0822 -0.5571  0.0915
11021TIP3    H154554   1.805   0.791 111.498  0.2088  0.8466 -0.4035
11021TIP3    H254555   1.712   0.746 111.609  1.2786 -1.1149 -0.2475
11022TIP3   OH254556   1.879   2.243 110.158  0.7821 -0.6789 -0.5819
11022TIP3    H154557   1.832   2.275 110.082  0.5988 -0.5261 -0.4065
11022TIP3    H254558   1.935   2.174 110.125  0.7517 -0.5661 -0.8661
11023TIP3   OH254559   1.425   0.208 102.298  0.0617 -0.0419 -0.3225
11023TIP3    H154560   1.353   0.271 102.302  0.0506 -0.0635 -0.1960
11023TIP3    H254561   1.382   0.124 102.279  0.1676  0.1643 -1.5627
11024TIP3   OH254562   2.151   0.180  26.062  0.1469 -0.1595 -0.3388
11024TIP3    H154563   2.104   0.229  26.129 -1.0636 -0.7215 -0.7493
11024TIP3    H254564   2.137   0.088  26.085  2.1069 -0.3512  0.2296
11025TIP3   OH254565   2.209   1.515  32.890 -0.2725  0.1121 -0.1080
11025TIP3    H154566   2.276   1.473  32.943  0.9712  2.6832  0.5424
11025TIP3    H254567   2.229   1.488  32.800  1.0417  0.0322  0.1856
11026TIP3   OH254568   0.612   1.989  13.103 -0.0243  0.3812  0.6424
11026TIP3    H154569   0.535   1.985  13.046 -0.1345  0.8044  0.7602
11026TIP3    H254570   0.638   1.898  13.114 -0.5557  0.2286  0.6596
11027TIP3   OH254571   0.572   1.630  12.447  0.4232  0.4552 -0.2560
11027TIP3    H154572   0.661   1.601  12.466  0.2009  0.3021  0.5561
11027TIP3    H254573   0.541   1.568  12.380  0.5198 -0.2013  0.3004
11028TIP3   OH254574   0.401   2.202   1.196 -0.0365  0.0232 -0.2364
11028TIP3    H154575   0.358   2.117   1.207  0.3731 -0.2107 -0.3886
11028TIP3    H254576   0.356   2.242   1.122 -0.0094 -0.2144 -0.3848
11029TIP3   OH254577   1.286   0.508   6.691  0.0056 -0.6715 -0.1393
11029TIP3    H154578   1.308   0.591   6.649 -0.6583  0.5599  1.8356
11029TIP3    H254579   1.369   0.460   6.693  0.6289  0.3564 -0.3932
11030TIP3   OH254580   1.004   2.079  11.174 -0.2944  0.0741  0.2515
11030TIP3    H154581   0.946   2.009  11.206 -0.3710  0.7672  1.6955
11030TIP3    H254582   0.947   2.156  11.167  0.1039  0.3564  0.0883
11031TIP3   OH254583   2.121   0.743   1.005  0.2874  0.3897 -0.3962
11031TIP3    H154584   2.097   0.679   1.073 -0.4376  0.6446 -0.4047
11031TIP3    H254585   2.059   0.815   1.017  1.5483  1.4393  0.0756
11032TIP3   OH254586   2.185   0.737   6.028 -0.1891 -0.0352  0.4880
11032TIP3    H154587   2.235   0.728   6.109 -0.9388 -2.2905  0.7643
11032TIP3    H254588   2.120   0.805   6.048  0.3175  0.2080  1.3977
11033TIP3   OH254589   2.504   1.013  27.016  0.3463  0.2554 -0.7490
11033TIP3    H154590   2.498   1.011  27.112  0.7487 -0.9874 -0.7411
11033TIP3    H254591   2.522   1.105  26.996  0.6121  0.4735  0.3918
11034TIP3   OH254592   2.423   1.749  92.991 -0.1010 -0.3374 -0.0711
11034TIP3    H154593   2.411   1.703  93.074  1.6199 -0.3583  0.2121
11034TIP3    H254594   2.471   1.829  93.014 -0.1897 -0.0050 -0.9689
11035TIP3   OH254595   2.424   2.541 111.917 -0.0264  0.5493  0.1061
11035TIP3    H154596   2.406   2.628 111.882  0.5020  1.2068  1.3912
11035TIP3    H254597   2.363   2.532 111.991  0.6790  0.2969  0.6739
11036TIP3   OH254598   0.083   2.274  22.756  0.7688 -0.8771  0.7051
11036TIP3    H154599   0.026   2.343  22.723  0.9151 -0.7775  0.6556
11036TIP3    H254600   0.143   2.257  22.684  0.4660 -1.3514  0.5659
11037TIP3   OH254601   0.106   0.098   0.714  0.1633 -0.2931  0.0219
11037TIP3    H154602   0.028   0.042   0.716  1.5975 -2.4294 -0.5631
11037TIP3    H254603   0.071   0.187   0.714 -2.2426 -1.1282  1.2750
11038TIP3   OH254604   0.783   0.421  85.184 -0.8577  0.1175 -0.6379
11038TIP3    H154605   0.827   0.336  85.180 -3.0481 -1.0238 -2.3361
11038TIP3    H254606   0.691   0.401  85.200 -1.6542  2.0532 -2.2929
11039TIP3   OH254607   0.367   2.021  30.972 -0.2153  0.1924 -0.1122
11039TIP3    H154608   0.285   1.997  31.016  0.6727  1.7373  2.5913
11039TIP3    H254609   0.357   2.114  30.953  0.5254  0.1541 -0.7112
11040TIP3   OH254610   2.272   1.346  33.896 -0.5004 -0.2756  0.3102
11040TIP3    H154611   2.230   1.387  33.972  2.1361  0.2383  1.5870
11040TIP3    H254612   2.321   1.272  33.933 -1.2209 -1.6241 -1.2988
11041TIP3   OH254613   1.225   0.864  21.446  0.4806  0.0361  0.3931
11041TIP3    H154614   1.209   0.824  21.360 -1.5558 -0.0053  0.7458
11041TIP3    H254615   1.277   0.943  21.426 -1.1580  0.8102 -1.0680
11042TIP3   OH254616   1.172   0.803  96.592 -0.0205 -0.5851 -0.2547
11042TIP3    H154617   1.192   0.847  96.674 -0.0749 -2.7304  1.0016
11042TIP3    H254618   1.255   0.802  96.544  0.4121 -0.6921  0.4910
11043TIP3   OH254619   0.467   0.021  31.822 -0.0717  0.0754  0.5842
11043TIP3    H154620   0.455  -0.073  31.836 -0.8427  0.2687  1.3104
11043TIP3    H254621   0.399   0.045  31.759 -1.0376  0.4551  1.7353
11044TIP3   OH254622   1.864   2.312  77.962  0.1254 -0.9411  0.4315
11044TIP3    H154623   1.845   2.221  77.982 -0.7097 -0.4037  2.2605
11044TIP3    H254624   1.938   2.334  78.018  0.5281 -0.5650 -0.2254
11045TIP3   OH254625   2.227   0.998 107.856 -0.2632  0.3025  0.3890
11045TIP3    H154626   2.237   1.077 107.803 -1.2962 -0.1361 -0.5004
11045TIP3    H254627   2.316   0.974 107.880  0.5032 -0.6486 -2.9134
11046TIP3   OH254628   1.411   2.239  84.239 -0.2983  0.0545  0.1001
11046TIP3    H154629   1.367   2.254  84.155 -0.0882  0.3907  0.0427
11046TIP3    H254630   1.355   2.177  84.285  0.6481 -1.8073 -1.1360
11047TIP3   OH254631   0.328   0.092  23.319  0.0974 -0.9579 -0.0834
11047TIP3    H154632   0.254   0.042  23.284 -1.5784 -0.2417  2.2526
11047TIP3    H254633   0.303   0.113  23.409  2.8143  0.0292  0.5319
11048TIP3   OH254634   2.329   1.089  78.044  0.3212  0.2780 -0.2511
11048TIP3    H154635   2.238   1.068  78.062 -0.1949  1.8263 -0.8998
11048TIP3    H254636   2.343   1.174  78.085  2.3096 -1.0968  2.2768
11049TIP3   OH254637   1.463   0.792  16.115 -0.2124  0.2721  0.5844
11049TIP3    H154638   1.435   0.868  16.167  1.9644  0.9164  0.9482
11049TIP3    H254639   1.391   0.730  16.121 -1.6347  1.8987  1.1381
11050TIP3   OH254640   1.627   2.301  94.323 -0.0459  0.0094 -0.4333
11050TIP3    H154641   1.693   2.242  94.285 -0.9508 -1.7311  0.5361
11050TIP3    H254642   1.546   2.278  94.277 -0.1386  1.6356 -1.1355
11051TIP3   OH254643   0.188   0.512  23.213  0.4213  0.2823  0.3080
11051TIP3    H154644   0.281   0.503  23.195  0.3321  0.5822 -0.3336
11051TIP3    H254645   0.152   0.425  23.197  0.6268  0.1040  0.7992
11052TIP3   OH254646   1.195   0.430  78.088  0.1523 -0.1202  0.1832
11052TIP3    H154647   1.136   0.356  78.104 -1.0889  0.7134 -0.4153
11052TIP3    H254648   1.280   0.400  78.122 -0.2416 -1.9280 -0.3097
11053TIP3   OH254649   1.483   0.347  30.700 -0.4760 -0.0861 -0.0304
11053TIP3    H154650   1.434   0.362  30.618 -0.6221 -0.7238 -0.0675
11053TIP3    H254651   1.518   0.259  30.690 -0.0137  0.0569  0.3580
11054TIP3   OH254652   1.109   2.336  78.896 -0.2174 -0.0033  0.4031
11054TIP3    H154653   1.191   2.341  78.944 -0.1790  2.3285  0.2361
11054TIP3    H254654   1.042   2.324  78.963  0.1560 -0.9278  0.6230
11055TIP3   OH254655   0.734   1.447  63.163  0.0238  0.7590 -0.2308
11055TIP3    H154656   0.767   1.422  63.076  0.9400 -0.2505  0.3800
11055TIP3    H254657   0.811   1.477  63.210 -0.3009  0.4116  0.5317
11056TIP3   OH254658   0.998   1.177  19.193  0.3919  0.4474 -0.0086
11056TIP3    H154659   0.938   1.202  19.264 -0.1748 -0.1888 -0.2460
11056TIP3    H254660   1.040   1.097  19.224  1.6750  1.2842  0.4582
11057TIP3   OH254661   1.129   2.241  37.747 -0.3334  0.4253 -0.5003
11057TIP3    H154662   1.215   2.269  37.778 -0.6545 -0.8568  1.8249
11057TIP3    H254663   1.138   2.147  37.733 -0.9731  0.5283 -1.7487
11058TIP3   OH254664   2.561   0.594   3.561  0.3617 -0.0804  0.2432
11058TIP3    H154665   2.523   0.606   3.474  1.4702  0.3131 -0.2042
11058TIP3    H254666   2.598   0.680   3.582  1.6707 -0.6528  0.3263
11059TIP3   OH254667   0.666   0.254  91.403  0.0184  0.3825 -0.0570
11059TIP3    H154668   0.720   0.176  91.394 -0.5194  0.0957 -0.8360
11059TIP3    H254669   0.655   0.265  91.497 -0.6218 -0.9822  0.0403
11060TIP3   OH254670   0.800   0.846  68.923  0.2892 -0.9962  0.2766
11060TIP3    H154671   0.884   0.879  68.955 -1.8712  4.1740  1.5246
11060TIP3    H254672   0.796   0.876  68.832 -0.7347  0.0271  0.6435
11061TIP3   OH254673   0.678   1.136  74.375  0.4106  1.1558 -0.3722
11061TIP3    H154674   0.593   1.137  74.418  0.4390 -1.3561 -0.1047
11061TIP3    H254675   0.732   1.195  74.427  0.0756 -0.7650  2.3123
11062TIP3   OH254676   0.412   0.944 106.937  0.7303  0.0696  0.3211
11062TIP3    H154677   0.455   0.888 106.873  0.2367 -1.1818  1.0324
11062TIP3    H254678   0.444   0.912 107.022 -0.1720  0.3362  0.7737
11063TIP3   OH254679   0.366   2.245  35.779  0.3637  0.0805 -0.7041
11063TIP3    H154680   0.323   2.160  35.766  0.6308 -0.2293  0.3239
11063TIP3    H254681   0.294   2.307  35.787  0.1702  0.1648 -2.6031
11064TIP3   OH254682   1.957   0.875  28.919 -0.2884 -0.6124 -0.3907
11064TIP3    H154683   2.042   0.914  28.901 -0.5903 -0.0110 -0.5448
11064TIP3    H254684   1.926   0.919  28.998 -0.6123 -0.5566 -0.5435
11065TIP3   OH254685   1.911   2.638 110.135 -0.2059  0.2681  0.1104
11065TIP3    H154686   1.829   2.602 110.101  0.0042  0.2158 -0.3394
11065TIP3    H254687   1.891   2.731 110.149 -0.1241  0.4197 -0.7213
11066TIP3   OH254688   0.746   1.341   3.679 -0.6768 -0.4245  0.2713
11066TIP3    H154689   0.833   1.311   3.707 -0.2720  1.0619  0.6893
11066TIP3    H254690   0.756   1.359   3.586 -0.3668  0.2882  0.4365
11067TIP3   OH254691   0.566   0.014  89.278  0.2585  0.1470  0.2155
11067TIP3    H154692   0.552   0.029  89.184 -0.9990  2.7007  0.7143
11067TIP3    H254693   0.478  -0.004  89.312  0.6299 -0.2177  1.0099
11068TIP3   OH254694   0.579   0.018  92.037 -0.4245 -0.6339  0.3374
11068TIP3    H154695   0.647   0.018  92.104 -1.0125 -1.2901  0.9407
11068TIP3    H254696   0.506   0.067  92.076 -0.5067 -0.3973 -0.1032
11069TIP3   OH254697   2.675   2.307  12.602 -0.2891 -0.2056  0.3878
11069TIP3    H154698   2.757   2.332  12.643 -0.7667  0.4303  0.9874
11069TIP3    H254699   2.615   2.378  12.624 -0.7695 -0.2201 -0.7806
11070TIP3   OH254700   1.512   0.316   6.266 -0.3932  0.3048 -0.2010
11070TIP3    H154701   1.587   0.280   6.219 -1.5425 -1.9246 -0.4668
11070TIP3    H254702   1.550   0.363   6.340  1.2672 -2.0160  0.5303
11071TIP3   OH254703   1.112   0.879  94.363  0.1935 -0.1427  0.0074
11071TIP3    H154704   1.053   0.953  94.346  2.7628  1.8979 -0.7871
11071TIP3    H254705   1.063   0.822  94.422 -2.2620  1.7569 -0.0181
11072TIP3   OH254706   0.120   0.023  68.527  0.0775  0.3381  0.0306
11072TIP3    H154707   0.107  -0.035  68.602 -0.0566 -1.0989 -1.0558
11072TIP3    H254708   0.215   0.034  68.522  0.0692  0.7031  0.5831
11073TIP3   OH254709   0.891   1.325   6.320 -0.1491 -0.2953 -0.0530
11073TIP3    H154710   0.954   1.254   6.306  0.1251 -0.1715  0.5104
11073TIP3    H254711   0.865   1.352   6.232 -1.3772 -2.0829 -0.2946
11074TIP3   OH254712   2.185   2.061  28.495 -0.3733 -0.3331  0.4716
11074TIP3    H154713   2.123   2.067  28.567 -0.4105  0.3151  0.3959
11074TIP3    H254714   2.185   2.149  28.456  0.9138 -0.1936  0.7429
11075TIP3   OH254715   1.522   0.831  86.237  0.1963  0.7983  0.0415
11075TIP3    H154716   1.526   0.736  86.223  1.0742  0.7599  0.4830
11075TIP3    H254717   1.514   0.868  86.150  0.3412  0.3385 -0.1696
11076TIP3   OH254718   0.226   0.296  95.023 -0.1198  0.1373 -0.1837
11076TIP3    H154719   0.242   0.381  94.982  0.7172 -0.5336 -1.3267
11076TIP3    H254720   0.132   0.282  95.014 -0.6775  1.8651  1.9644
11077TIP3   OH254721   0.454   2.426 111.693  0.1599 -0.3204 -0.1128
11077TIP3    H154722   0.378   2.475 111.663  0.3076 -0.5134 -0.8379
11077TIP3    H254723   0.470   2.457 111.782 -0.4233  0.1281 -0.1594
11078TIP3   OH254724   0.318   1.607 109.771 -0.4634  0.1536 -0.2463
11078TIP3    H154725   0.347   1.665 109.842  0.3918 -0.2905 -0.2111
11078TIP3    H254726   0.228   1.584 109.794 -0.1608 -0.0755  0.7632
11079TIP3   OH254727   0.814   0.323   9.594  0.5941 -0.2353  0.0637
11079TIP3    H154728   0.902   0.329   9.632  0.4664 -0.9843  0.4876
11079TIP3    H254729   0.827   0.278   9.511  0.6761  0.1153 -0.1159
11080TIP3   OH254730   0.245   0.668  93.394  0.3181 -0.2462 -0.2802
11080TIP3    H154731   0.251   0.662  93.490  1.8826  0.2789 -0.3036
11080TIP3    H254732   0.160   0.632  93.373 -1.4158  2.3953  1.5646
11081TIP3   OH254733   1.984   1.929  25.610 -0.4469 -0.7258 -0.0537
11081TIP3    H154734   1.952   1.942  25.699  0.3750 -0.9186  0.2829
11081TIP3    H254735   2.055   1.865  25.620  0.3898  0.0781 -0.6826
11082TIP3   OH254736   1.007   1.410  14.808 -0.3742 -0.4723  0.1499
11082TIP3    H154737   0.943   1.343  14.833 -0.9482 -0.1714 -0.4908
11082TIP3    H254738   1.065   1.367  14.745 -0.1523 -0.6412  0.4656
11083TIP3   OH254739   2.440   0.522  75.655 -0.1852 -0.1210 -0.0605
11083TIP3    H154740   2.375   0.472  75.703  0.0395  0.7305  1.1688
11083TIP3    H254741   2.430   0.612  75.687 -0.2567  0.5529 -1.8659
11084TIP3   OH254742   2.505   0.173  92.004 -0.1508  0.0152 -0.0464
11084TIP3    H154743   2.590   0.173  91.959 -0.2133  2.8529 -0.2895
11084TIP3    H254744   2.453   0.109  91.955  0.6410  1.0191 -2.3500
11085TIP3   OH254745   1.506   2.319  33.412  0.5922 -0.1812 -0.4765
11085TIP3    H154746   1.470   2.348  33.328 -0.5902 -1.2862 -0.3718
11085TIP3    H254747   1.433   2.323  33.473  1.1182 -0.6345  0.2016
11086TIP3   OH254748   1.072   1.840  17.893 -0.2995  0.0721  0.1544
11086TIP3    H154749   1.165   1.826  17.876  0.0396  1.3297  0.8528
11086TIP3    H254750   1.066   1.855  17.987 -0.9901  1.4585 -0.0697
11087TIP3   OH254751   1.590   0.183  15.146 -0.5313  0.1972 -0.6997
11087TIP3    H154752   1.540   0.251  15.192 -0.4646 -0.2235  0.0241
11087TIP3    H254753   1.679   0.192  15.179 -0.6394 -0.6037 -0.1478
11088TIP3   OH254754   1.326   1.747  36.125 -0.1702  0.0166  0.1317
11088TIP3    H154755   1.233   1.739  36.147  0.0659  0.8243  1.5745
11088TIP3    H254756   1.345   1.841  36.136  0.9058 -0.2035  0.2767
11089TIP3   OH254757   1.622   1.586  92.394  0.3302  0.0679  0.1744
11089TIP3    H154758   1.662   1.500  92.401  1.7189  0.5982 -0.9125
11089TIP3    H254759   1.529   1.571  92.414  0.7717 -1.4473  1.2137
11090TIP3   OH254760   1.722   1.251  29.749 -0.7135  0.3269 -0.2229
11090TIP3    H154761   1.772   1.234  29.829 -0.5414  1.0068 -0.1764
11090TIP3    H254762   1.669   1.328  29.770 -1.4024 -0.0785 -0.4460
11091TIP3   OH254763   0.842   2.530  11.840  0.1244  0.4351 -0.1152
11091TIP3    H154764   0.855   2.621  11.815 -2.1692  1.0677  0.6807
11091TIP3    H254765   0.800   2.490  11.763 -0.3610  0.4887  0.1199
11092TIP3   OH254766   0.163   0.304  80.246  0.0764  0.0967 -0.3165
11092TIP3    H154767   0.235   0.356  80.212 -0.1832  1.1258  0.6688
11092TIP3    H254768   0.194   0.272  80.330 -0.0811 -0.6799 -0.5429
11093TIP3   OH254769   1.393   1.517  79.062 -0.0187  0.0077 -0.5010
11093TIP3    H154770   1.411   1.610  79.076  0.4722  0.0895 -1.5964
11093TIP3    H254771   1.303   1.514  79.029 -0.0418  0.0892 -0.4425
11094TIP3   OH254772   1.879   0.565  27.406 -0.8131 -0.1657 -0.0060
11094TIP3    H154773   1.867   0.483  27.357 -1.4115  0.6392 -1.2718
11094TIP3    H254774   1.816   0.560  27.478 -1.5458 -0.4056 -0.6518
11095TIP3   OH254775   2.683   2.214  18.373 -0.1305 -0.5503 -0.1262
11095TIP3    H154776   2.746   2.215  18.446 -0.6190  0.0449  0.3019
11095TIP3    H254777   2.728   2.168  18.303  1.0129  0.3571 -0.0223
11096TIP3   OH254778   1.988   0.795   0.382 -0.0286  0.0431  0.1660
11096TIP3    H154779   2.007   0.855   0.309  0.8444  0.0317  0.3725
11096TIP3    H254780   2.036   0.832   0.456 -0.0864 -0.5099  0.4837
11097TIP3   OH254781   2.541   0.642   7.192  0.3683  0.7462  0.1468
11097TIP3    H154782   2.585   0.643   7.277  0.0098 -1.5929  0.4166
11097TIP3    H254783   2.452   0.614   7.211  0.6236 -1.0850 -1.0756
11098TIP3   OH254784   0.296   0.455  84.726 -0.2926  0.1433 -0.3401
11098TIP3    H154785   0.276   0.376  84.776 -1.2585 -0.1147 -1.0932
11098TIP3    H254786   0.385   0.479  84.752  0.3157 -1.6142 -0.6659
11099TIP3   OH254787   1.675   1.500  83.785 -0.2022 -0.0939  0.1375
11099TIP3    H154788   1.697   1.570  83.723  0.0474 -1.2046 -1.0834
11099TIP3    H254789   1.584   1.517  83.809 -0.6751 -0.2240 -1.4144
11100TIP3   OH254790   1.200   2.177  22.140  0.3652 -0.8474 -0.8554
11100TIP3    H154791   1.203   2.095  22.190 -0.7071 -0.9403 -0.9265
11100TIP3    H254792   1.109   2.205  22.145  0.7930  0.5769 -0.4822
11101TIP3   OH254793   1.676   1.183 101.317  0.4313  0.0107  0.0441
11101TIP3    H154794   1.586   1.188 101.287  0.7571  0.2258 -0.9286
11101TIP3    H254795   1.683   1.096 101.356 -0.0372 -0.2508 -0.4390
11102TIP3   OH254796   1.468   0.054  31.658 -0.5193 -0.1961  0.2069
11102TIP3    H154797   1.490   0.036  31.566  1.8911 -0.6719  0.8261
11102TIP3    H254798   1.392  -0.002  31.675  0.6032 -2.1112 -0.7709
11103TIP3   OH254799   2.542   0.868 102.248  0.6558  0.2229 -0.7115
11103TIP3    H154800   2.558   0.781 102.285  0.1341  0.8707  1.1571
11103TIP3    H254801   2.447   0.873 102.239  0.4827  1.2800  1.1306
11104TIP3   OH254802   1.211   0.853  84.008  0.2269  0.1937  0.3932
11104TIP3    H154803   1.277   0.817  84.067  0.2438 -1.1845 -0.4388
11104TIP3    H254804   1.128   0.841  84.056  0.4600  1.0881  1.0416
11105TIP3   OH254805   2.112   1.981  99.024 -0.1983 -0.1170 -0.1952
11105TIP3    H154806   2.071   1.975  99.110  0.2405  0.1833  0.0373
11105TIP3    H254807   2.105   2.074  99.001 -0.1489 -0.1644 -0.4067
11106TIP3   OH254808   1.919   2.312   3.363 -0.3478  0.2532  0.1245
11106TIP3    H154809   1.833   2.272   3.376 -0.2614 -0.1050 -0.3874
11106TIP3    H254810   1.919   2.339   3.271  0.9509 -1.8573 -0.5746
11107TIP3   OH254811   0.089   0.621  14.907  0.5112  0.3173  0.3172
11107TIP3    H154812   0.042   0.599  14.988 -0.2748  1.2475  0.1358
11107TIP3    H254813   0.021   0.655  14.848  1.3108  1.1187 -0.1799
11108TIP3   OH254814   1.078   1.459  99.412 -0.0008  0.0184 -0.4317
11108TIP3    H154815   1.073   1.367  99.436  1.1880  0.1282  0.3278
11108TIP3    H254816   1.066   1.506  99.494 -0.0093  0.5273 -0.7227
11109TIP3   OH254817   0.571   1.350  32.607  0.3224  0.3256 -0.0738
11109TIP3    H154818   0.526   1.414  32.662 -0.1947  0.3944 -0.5594
11109TIP3    H254819   0.544   1.373  32.518  2.7596  1.5313 -0.5814
11110TIP3   OH254820   1.710   1.806  94.442 -0.1300  0.0523  0.5939
11110TIP3    H154821   1.795   1.812  94.399  0.6072  0.5005  2.0321
11110TIP3    H254822   1.688   1.713  94.440  0.6033 -0.1265  0.5910
11111TIP3   OH254823   1.860   0.656  12.632  0.1472 -0.0280  0.2035
11111TIP3    H154824   1.894   0.745  12.640 -0.6000  0.4157 -1.2675
11111TIP3    H254825   1.765   0.667  12.637  0.0626 -0.7768  0.2656
11112TIP3   OH254826   0.672   1.917  22.496 -0.1653  0.3797  0.2108
11112TIP3    H154827   0.647   1.996  22.449 -1.7758 -0.1627  0.0913
11112TIP3    H254828   0.754   1.889  22.454  0.2818  1.8121  0.0839
11113TIP3   OH254829   1.697   1.446  84.680 -0.2973  0.1484 -0.2847
11113TIP3    H154830   1.695   1.532  84.638 -1.4016 -0.7134 -2.1144
11113TIP3    H254831   1.627   1.397  84.638 -1.2324 -0.9564  2.3407
11114TIP3   OH254832   0.727   0.263  33.519  0.2325 -0.0129 -0.3429
11114TIP3    H154833   0.726   0.349  33.477  2.3510  0.4609  0.4513
11114TIP3    H254834   0.806   0.221  33.486 -0.2127 -1.2329  0.1081
11115TIP3   OH254835   1.457   2.379   2.864 -0.5214  0.4027 -0.2685
11115TIP3    H154836   1.510   2.385   2.943 -0.7891  0.9050 -0.1237
11115TIP3    H254837   1.408   2.298   2.874  0.4505 -0.2378 -0.5551
11116TIP3   OH254838   0.706   0.897  88.368  0.2735  0.1433  0.1525
11116TIP3    H154839   0.730   0.815  88.412  0.2344 -0.3070 -0.6532
11116TIP3    H254840   0.639   0.935  88.424 -0.3519 -0.8242  0.0781
11117TIP3   OH254841   0.108   1.072   5.177 -0.1498 -0.2451  0.4480
11117TIP3    H154842   0.013   1.063   5.172 -0.1056 -0.3046 -0.3680
11117TIP3    H254843   0.133   1.019   5.253 -0.6883 -0.8279  0.2254
11118TIP3   OH254844   0.496   0.480  88.926  0.1073  0.0945  0.4211
11118TIP3    H154845   0.431   0.414  88.949 -1.8164  1.2023 -1.5568
11118TIP3    H254846   0.473   0.556  88.979 -0.2039  0.4782 -0.2528
11119TIP3   OH254847   1.393   0.488  32.100 -0.1134 -0.5621 -0.0612
11119TIP3    H154848   1.485   0.505  32.082 -0.1616 -1.2691 -1.1003
11119TIP3    H254849   1.378   0.526  32.186  1.0675 -0.1579 -0.0093
11120TIP3   OH254850   0.263   1.976   8.366  0.1488  0.3950 -0.1955
11120TIP3    H154851   0.235   2.066   8.381  0.1876  0.5245 -0.8710
11120TIP3    H254852   0.231   1.928   8.443  0.6971  1.0981  0.4893
11121TIP3   OH254853   2.324   1.935  33.463 -0.3662 -0.2079  0.2585
11121TIP3    H154854   2.254   1.974  33.515  0.8559  1.6649  0.5991
11121TIP3    H254855   2.316   1.841  33.480 -2.2867  0.0204  0.8867
11122TIP3   OH254856   0.131   1.746   9.694 -0.5179  0.0377  0.0265
11122TIP3    H154857   0.144   1.669   9.750  1.0041  0.3725  0.1784
11122TIP3    H254858   0.179   1.816   9.739 -0.5075  0.6750 -0.9544
11123TIP3   OH254859   1.905   0.568  93.653  0.0079 -0.1855  0.2774
11123TIP3    H154860   1.971   0.499  93.651 -0.0608 -0.2245 -0.8256
11123TIP3    H254861   1.945   0.638  93.703  0.2819 -0.8069  0.9464
11124TIP3   OH254862   2.587   1.571  68.460 -0.2040 -0.4968 -0.1871
11124TIP3    H154863   2.560   1.610  68.543  1.9091 -0.7769  0.6762
11124TIP3    H254864   2.548   1.628  68.393 -1.6259 -0.0551  0.9752
11125TIP3   OH254865   0.070   1.193  10.441 -0.0531 -0.0275 -0.4959
11125TIP3    H154866   0.149   1.141  10.430  0.2365  0.1735  0.6200
11125TIP3    H254867   0.099   1.275  10.479 -0.8958 -0.3376  0.8871
11126TIP3   OH254868   0.191   1.641  91.526 -0.0974 -0.3592  0.2876
11126TIP3    H154869   0.173   1.733  91.545  1.5399 -0.4190  2.5766
11126TIP3    H254870   0.127   1.592  91.577 -0.1264 -0.4986  0.1180
11127TIP3   OH254871   0.872   0.146   1.646 -0.3821  0.3301 -0.3964
11127TIP3    H154872   0.949   0.110   1.601  0.2361  1.0949  0.0121
11127TIP3    H254873   0.862   0.091   1.724 -0.2824  0.1894 -0.4819
11128TIP3   OH254874   0.166   1.835  27.520  0.1587  0.2158  0.2286
11128TIP3    H154875   0.210   1.750  27.517  1.3887  0.8314  0.2236
11128TIP3    H254876   0.082   1.820  27.477 -0.0884 -1.2387  1.1421
11129TIP3   OH254877   1.323   2.560  38.064  0.4622 -0.0511  0.3388
11129TIP3    H154878   1.298   2.480  38.110 -1.6378 -1.9129 -3.5509
11129TIP3    H254879   1.417   2.569  38.080  0.2723 -1.8212  2.9409
11130TIP3   OH254880   1.343   0.230 107.957 -0.4102 -0.3427  0.0371
11130TIP3    H154881   1.301   0.200 107.876 -1.1970  1.3087 -0.1993
11130TIP3    H254882   1.312   0.319 107.969  2.5428  0.7769  0.1945
11131TIP3   OH254883   0.530   0.786  66.951  0.2945  0.0258 -0.3341
11131TIP3    H154884   0.560   0.722  67.015 -4.3337 -2.4792 -0.2212
11131TIP3    H254885   0.524   0.737  66.869 -2.8003  0.2771 -0.3856
11132TIP3   OH254886   0.386   1.434   4.428 -0.3210  0.0655  0.7924
11132TIP3    H154887   0.474   1.457   4.456 -0.2742  1.3191 -0.3305
11132TIP3    H254888   0.389   1.437   4.333 -1.2996 -1.0204  0.6967
11133TIP3   OH254889   0.331   0.510  75.350 -0.0515  0.0716  0.0991
11133TIP3    H154890   0.379   0.428  75.357  0.4522  0.3345 -0.2360
11133TIP3    H254891   0.265   0.506  75.419  0.7511 -0.0916  0.8753
11134TIP3   OH254892   1.622   0.422  99.743  0.0017 -0.1675  0.0534
11134TIP3    H154893   1.708   0.389  99.771  1.1615  1.1028 -1.7682
11134TIP3    H254894   1.594   0.359  99.676 -1.1770 -1.3118  1.5450
11135TIP3   OH254895   0.190   0.645  75.645  0.1054  0.6696 -0.1708
11135TIP3    H154896   0.232   0.565  75.677 -0.0288  0.5851 -0.2052
11135TIP3    H254897   0.124   0.614  75.583  0.5397  0.8439 -0.7290
11136TIP3   OH254898   1.808   1.342 101.486 -0.2944  0.0890 -0.3366
11136TIP3    H154899   1.750   1.305 101.419 -0.5579 -0.4931  0.1998
11136TIP3    H254900   1.853   1.266 101.523  0.8792  0.5316 -0.7793
11137TIP3   OH254901   0.339   2.636  28.402  0.1727 -0.1395  0.4935
11137TIP3    H154902   0.307   2.555  28.443 -0.7179  0.4193  0.9419
11137TIP3    H254903   0.426   2.649  28.440  0.5748 -1.1877 -0.0239
11138TIP3   OH254904   1.717   0.189  23.395  0.2725  0.2804 -0.4901
11138TIP3    H154905   1.781   0.150  23.336  0.4869  0.8279 -0.6263
11138TIP3    H254906   1.676   0.259  23.344 -0.9140 -0.4947 -0.6261
11139TIP3   OH254907   0.243   1.743   6.170 -0.0908  0.1679 -0.0402
11139TIP3    H154908   0.289   1.814   6.216  0.2501 -0.2674  0.3041
11139TIP3    H254909   0.251   1.765   6.078  0.3490  0.3776  0.0459
11140TIP3   OH254910   2.055   0.731  30.440  0.6373  0.1548 -0.3804
11140TIP3    H154911   1.997   0.757  30.511  0.3718 -1.0069 -0.1573
11140TIP3    H254912   2.000   0.732  30.361  0.7249  0.6308 -0.4380
11141TIP3   OH254913   2.192   0.684  98.838  0.3179  0.0059  0.3590
11141TIP3    H154914   2.173   0.590  98.846 -1.1547  0.1518 -0.8285
11141TIP3    H254915   2.127   0.715  98.775  1.0743  1.7476  0.4024
11142TIP3   OH254916   0.771   1.972  28.366  0.3405  0.4264 -0.0841
11142TIP3    H154917   0.834   2.041  28.343  0.1924  0.2446 -1.0578
11142TIP3    H254918   0.703   1.977  28.299 -0.9816  0.9555  1.2229
11143TIP3   OH254919   2.338   1.293  26.307  0.4472  0.1945 -0.3580
11143TIP3    H154920   2.273   1.355  26.274 -0.3213  0.3990  1.4402
11143TIP3    H254921   2.352   1.232  26.234 -0.6149  1.0384 -1.3049
11144TIP3   OH254922   1.594   0.483  85.210  0.5422 -0.1821 -0.1076
11144TIP3    H154923   1.553   0.540  85.275  3.5880  2.1622  0.0063
11144TIP3    H254924   1.635   0.413  85.263  0.8093  0.2527  0.2712
11145TIP3   OH254925   0.616   0.387 105.691  0.3728 -0.1702 -0.4143
11145TIP3    H154926   0.536   0.420 105.733  0.2025 -0.2764 -0.6545
11145TIP3    H254927   0.683   0.450 105.716 -0.0486  0.6559 -1.2836
11146TIP3   OH254928   1.413   0.477  35.226  0.1080 -0.1526 -0.2392
11146TIP3    H154929   1.453   0.465  35.140  1.3259  0.4257  0.2306
11146TIP3    H254930   1.401   0.388  35.259 -2.1332 -0.4932 -1.7507
11147TIP3   OH254931   1.208   1.040  37.415  0.7131 -0.3171  0.1901
11147TIP3    H154932   1.172   0.972  37.472  0.7576 -0.4902  0.0135
11147TIP3    H254933   1.224   1.114  37.473  0.2016 -0.2859  0.2969
11148TIP3   OH254934   2.175   0.044  96.882 -0.2632  0.1705  0.3504
11148TIP3    H154935   2.087   0.008  96.866 -0.6101  0.3018  1.7652
11148TIP3    H254936   2.217  -0.022  96.938  0.3115  0.4069  0.1954
11149TIP3   OH254937   0.328   0.875  98.343 -0.0295 -0.0042 -0.0651
11149TIP3    H154938   0.331   0.838  98.431 -0.3089  1.3010  0.5167
11149TIP3    H254939   0.361   0.964  98.353  0.7203 -0.0999 -1.4422
11150TIP3   OH254940   0.239   1.257  31.734  0.0676 -0.4547 -0.0457
11150TIP3    H154941   0.280   1.272  31.648  2.3079 -0.5434  0.9476
11150TIP3    H254942   0.306   1.211  31.785 -1.1547 -0.2691  1.8126
11151TIP3   OH254943   0.775   0.812   1.816  0.4591  0.5769  0.1116
11151TIP3    H154944   0.787   0.871   1.741 -1.5855  3.1460  1.6330
11151TIP3    H254945   0.864   0.791   1.844  1.2532  1.5230 -1.5482
11152TIP3   OH254946   1.430   2.120  22.497  0.4557  0.2376  0.2941
11152TIP3    H154947   1.522   2.099  22.512  0.6289 -0.1791 -1.1913
11152TIP3    H254948   1.383   2.069  22.563  1.2914  0.7679  1.3310
11153TIP3   OH254949   1.797   1.455  28.951 -0.1393 -0.0742  0.2510
11153TIP3    H154950   1.765   1.442  28.862 -0.5694  0.1406  0.3712
11153TIP3    H254951   1.831   1.545  28.951  2.0331 -0.8113 -0.3419
11154TIP3   OH254952   1.435   1.890   5.523 -0.0822 -0.2227  0.4243
11154TIP3    H154953   1.409   1.821   5.461 -1.1760  0.4332  0.1316
11154TIP3    H254954   1.499   1.942   5.475 -0.1808 -0.3037  0.2025
11155TIP3   OH254955   0.381   2.394  23.076 -0.1348 -0.3484  0.4426
11155TIP3    H154956   0.341   2.313  23.108 -2.4697  0.9983  1.2142
11155TIP3    H254957   0.307   2.449  23.049  1.3727  1.3915 -0.4152
11156TIP3   OH254958   1.168   2.649  14.802  0.3266 -0.1792  0.2734
11156TIP3    H154959   1.212   2.734  14.803 -0.0656  0.0433 -0.2237
11156TIP3    H254960   1.093   2.663  14.743 -0.2977 -0.5909  0.9605
11157TIP3   OH254961   1.482   0.884  80.023  0.2788 -0.2609 -0.1860
11157TIP3    H154962   1.501   0.893  79.930 -2.4093  0.6547 -0.7337
11157TIP3    H254963   1.443   0.797  80.031 -0.9581  0.2721 -0.2408
11158TIP3   OH254964   2.039   0.366 110.777  0.0788 -0.2815 -0.4051
11158TIP3    H154965   2.006   0.354 110.866  1.4905 -0.3328  0.1398
11158TIP3    H254966   1.975   0.321 110.722 -0.1813 -1.3299  0.6853
11159TIP3   OH254967   2.194   0.365  58.861  0.1403  0.0938  0.1611
11159TIP3    H154968   2.133   0.431  58.894 -1.2435  0.9705 -3.7030
11159TIP3    H254969   2.277   0.412  58.852 -0.2643  0.7138 -0.4520
11160TIP3   OH254970   0.066   0.102  18.622 -0.0183  0.2985  0.0119
11160TIP3    H154971   0.109   0.078  18.540  0.9835  0.3151  0.5251
11160TIP3    H254972   0.137   0.131  18.679 -0.9352  2.3540  0.1844
11161TIP3   OH254973   1.263   0.206   8.568 -0.0653 -0.3235  0.4537
11161TIP3    H154974   1.304   0.177   8.650 -1.1495  2.7389  2.2645
11161TIP3    H254975   1.337   0.235   8.514  0.5538 -0.0556  1.4094
11162TIP3   OH254976   0.785   2.283  19.177  0.7527 -0.1430  0.3198
11162TIP3    H154977   0.810   2.315  19.264  0.2840  0.5173  0.2181
11162TIP3    H254978   0.863   2.294  19.124  0.7755  0.2782  0.4372
11163TIP3   OH254979   1.349   1.657  88.105  0.0732  0.3283 -0.1870
11163TIP3    H154980   1.402   1.733  88.082  0.8438 -0.1643 -0.0730
11163TIP3    H254981   1.381   1.631  88.192  0.4443 -0.6567 -0.6017
11164TIP3   OH254982   0.345   0.240  80.927  0.2004  0.6431  0.0776
11164TIP3    H154983   0.376   0.324  80.961 -0.2984  0.7038  0.3981
11164TIP3    H254984   0.325   0.189  81.005 -2.6125  1.3927 -0.0479
11165TIP3   OH254985   0.828   1.990  24.601  0.7005  0.3976  0.4067
11165TIP3    H154986   0.856   1.900  24.582  1.1482  0.5744  0.2038
11165TIP3    H254987   0.735   1.982  24.624  0.8839 -0.1967  0.9996
11166TIP3   OH254988   0.820   0.920   4.030  0.1479 -0.0318  0.3034
11166TIP3    H154989   0.760   0.888   4.097 -0.2145 -0.2881 -0.1391
11166TIP3    H254990   0.765   0.936   3.953  0.6580 -0.3602 -0.1404
11167TIP3   OH254991   1.484   2.064  30.320  0.2505 -0.1066  0.0831
11167TIP3    H154992   1.396   2.091  30.296  0.2431  0.7136  0.9955
11167TIP3    H254993   1.482   1.968  30.316 -0.1104 -0.0535 -1.8396
11168TIP3   OH254994   0.490   1.804 101.096  0.3387  0.6598  0.2505
11168TIP3    H154995   0.452   1.821 101.183  1.4504 -0.2542  0.9437
11168TIP3    H254996   0.538   1.722 101.107  0.7192  0.6698 -1.1814
11169TIP3   OH254997   0.265   1.314  27.946  0.3031 -0.8480 -0.1099
11169TIP3    H154998   0.337   1.251  27.950  2.1807  1.1913  0.3361
11169TIP3    H254999   0.303   1.396  27.980 -2.6509 -0.0135  1.5235
11170TIP3   OH255000   2.362   2.015  26.515 -0.1277 -0.3609 -0.1196
11170TIP3    H155001   2.302   1.953  26.557 -1.5378 -0.0624 -1.5697
11170TIP3    H255002   2.304   2.079  26.473  1.2734  1.2376  0.2784
11171TIP3   OH255003   2.045   0.419  97.388  0.1063 -0.0783  0.3394
11171TIP3    H155004   2.102   0.350  97.421  0.4958  0.4490  0.8019
11171TIP3    H255005   2.089   0.450  97.309  0.3168  0.1289  0.5323
11172TIP3   OH255006   1.289   0.478  74.604  0.1884 -0.1481 -0.0170
11172TIP3    H155007   1.225   0.420  74.563 -1.7440 -0.9484  3.6728
11172TIP3    H255008   1.373   0.453  74.566 -1.1252 -2.2907 -1.7162
11173TIP3   OH255009   1.195   1.504   9.684  0.3800  0.3454 -0.4450
11173TIP3    H155010   1.124   1.444   9.661  0.8505 -0.2065 -0.4973
11173TIP3    H255011   1.163   1.590   9.660 -1.4124  0.4995  2.1487
11174TIP3   OH255012   0.194   1.733   2.044  0.1486 -0.4223  0.1489
11174TIP3    H155013   0.115   1.724   1.990 -0.2115 -2.2694  0.9041
11174TIP3    H255014   0.253   1.666   2.009  1.6182  1.2624 -0.7242
11175TIP3   OH255015   1.029   0.984 105.272  0.3439  0.7027  0.2792
11175TIP3    H155016   0.960   0.918 105.260  0.7746 -0.4082  3.1695
11175TIP3    H255017   1.111   0.937 105.258  0.6100  1.0953  0.4810
11176TIP3   OH255018   2.374   0.671  20.914  0.2678 -0.0412 -0.8621
11176TIP3    H155019   2.457   0.718  20.921 -0.7335  1.8358 -0.9275
11176TIP3    H255020   2.375   0.609  20.987  1.7508 -0.1178 -0.9235
11177TIP3   OH255021   0.011   0.510  91.638  0.3101  0.4541 -0.1901
11177TIP3    H155022  -0.010   0.567  91.713  3.1142  1.2039  0.1618
11177TIP3    H255023   0.012   0.569  91.563 -1.1798 -0.0454 -0.6291
11178TIP3   OH255024   2.557   0.948  12.889  0.3176 -0.4466  0.0993
11178TIP3    H155025   2.464   0.931  12.872  0.3036 -0.8819  0.5861
11178TIP3    H255026   2.579   1.019  12.830 -0.3210 -0.3591 -0.0454
11179TIP3   OH255027   1.335   0.155  25.538  0.3779 -0.3870 -0.4609
11179TIP3    H155028   1.263   0.166  25.477  0.0925 -0.3152 -0.1130
11179TIP3    H255029   1.375   0.242  25.545  2.1834 -0.9384 -2.7005
11180TIP3   OH255030   0.574   1.030   8.661  0.1989  0.5061 -0.1395
11180TIP3    H155031   0.525   1.031   8.743  0.2061 -0.7809 -0.0864
11180TIP3    H255032   0.662   1.002   8.686  0.6959  1.8286 -0.3659
11181TIP3   OH255033   1.756   1.864  19.806 -0.4875  0.2348  0.1955
11181TIP3    H155034   1.729   1.827  19.722  0.1094  0.7434 -0.2353
11181TIP3    H255035   1.721   1.804  19.871 -1.2398  0.0062 -0.4039
11182TIP3   OH255036   1.850   1.520  94.861  0.2184  0.0008 -0.1783
11182TIP3    H155037   1.866   1.427  94.871  0.8710  0.3254  2.3481
11182TIP3    H255038   1.767   1.536  94.907  1.2314  0.9627  1.4285
11183TIP3   OH255039   0.541   1.053  13.002  0.5439  0.1757  0.0090
11183TIP3    H155040   0.627   1.043  12.961 -0.8100 -0.6389 -2.8712
11183TIP3    H255041   0.529   1.147  13.010  2.1021  0.3140  1.5729
11184TIP3   OH255042   0.496   1.936 111.476 -0.0495  0.6308 -0.1617
11184TIP3    H155043   0.474   1.964 111.565 -0.6475  0.2128 -0.1750
11184TIP3    H255044   0.589   1.958 111.467 -0.4593  2.5668 -0.1468
11185TIP3   OH255045   2.638   1.810  84.349  0.1755 -0.1483  0.0705
11185TIP3    H155046   2.597   1.789  84.433 -0.3520  0.3116 -0.0668
11185TIP3    H255047   2.677   1.896  84.362 -2.2659  1.2235 -0.9312
11186TIP3   OH255048   2.457   2.578  76.125  0.7823 -0.5054  0.1126
11186TIP3    H155049   2.395   2.563  76.196  0.1877  1.2044  0.0054
11186TIP3    H255050   2.422   2.528  76.051  1.7947 -2.8975  1.1473
11187TIP3   OH255051   0.878   1.649 108.176  0.1340  0.0237 -0.0935
11187TIP3    H155052   0.836   1.691 108.250 -0.2929 -0.1825 -0.2185
11187TIP3    H255053   0.846   1.559 108.177  0.8009 -0.2254 -0.0120
11188TIP3   OH255054   1.979   1.478  80.176 -0.3471 -0.0288  0.0440
11188TIP3    H155055   1.930   1.483  80.258  0.5683  0.2633  0.5998
11188TIP3    H255056   2.069   1.462  80.204  0.1568  1.0900 -0.8509
11189TIP3   OH255057   0.838   0.099  95.300  0.2650 -0.2087  0.1680
11189TIP3    H155058   0.816   0.062  95.214  0.8761  0.4365 -0.2814
11189TIP3    H255059   0.756   0.133  95.334  0.0112 -0.5050 -0.1416
11190TIP3   OH255060   0.392   1.409  77.488  0.3270  0.6056  0.2276
11190TIP3    H155061   0.416   1.501  77.491 -0.1039  0.7334 -0.1579
11190TIP3    H255062   0.299   1.407  77.509  0.8991 -0.0078  3.0618
11191TIP3   OH255063   0.229   0.133   2.813 -0.1886 -0.4311 -0.0666
11191TIP3    H155064   0.145   0.165   2.780 -0.3283 -1.0512 -0.3133
11191TIP3    H255065   0.277   0.108   2.734 -0.5913 -2.0914  0.1847
11192TIP3   OH255066   1.611   2.087   1.388 -0.3255 -0.1063  0.3921
11192TIP3    H155067   1.617   2.181   1.371 -3.0066  0.4988  2.2827
11192TIP3    H255068   1.702   2.059   1.393  0.5835  2.5752  0.7779
11193TIP3   OH255069   1.595   1.578   5.588  0.3922  0.2724 -0.9665
11193TIP3    H155070   1.603   1.499   5.535 -0.2190  0.0626 -0.7497
11193TIP3    H255071   1.642   1.645   5.537  0.2682 -0.0503 -1.5150
11194TIP3   OH255072   1.423   1.421 104.632 -0.1565 -0.2585 -0.2210
11194TIP3    H155073   1.368   1.499 104.623  0.4341  0.2817  0.7063
11194TIP3    H255074   1.396   1.382 104.715  0.1584 -0.5581 -0.2571
11195TIP3   OH255075   1.638   1.195  21.193 -0.2182 -0.3536 -0.1534
11195TIP3    H155076   1.641   1.211  21.287  1.8527 -0.9829 -0.0587
11195TIP3    H255077   1.687   1.113  21.180  0.2316  0.1299 -1.8383
11196TIP3   OH255078   0.900   2.097 106.725  0.4783 -0.1702 -0.4341
11196TIP3    H155079   0.883   2.014 106.679  0.2256  0.0464 -0.7366
11196TIP3    H255080   0.909   2.161 106.655  0.3408  0.1217 -0.1841
11197TIP3   OH255081   0.366   0.517  81.142 -0.7146  0.1427  0.1551
11197TIP3    H155082   0.364   0.431  81.184  0.1138  1.0913  2.2461
11197TIP3    H255083   0.388   0.578  81.212  0.1795  1.8983 -1.5630
11198TIP3   OH255084   2.035   2.200 101.830 -0.1070 -0.3019  0.4064
11198TIP3    H155085   1.971   2.245 101.886 -2.7899 -1.5223 -1.4418
11198TIP3    H255086   2.038   2.253 101.750  1.0334 -0.4153  0.3649
11199TIP3   OH255087   1.166   1.596  76.323  0.1688  0.1290  0.5039
11199TIP3    H155088   1.156   1.680  76.367  0.1477  0.0175  0.7142
11199TIP3    H255089   1.219   1.616  76.246  2.9250 -0.2043  2.1770
11200TIP3   OH255090   2.210   1.195  37.796  0.1930 -0.3376 -0.1572
11200TIP3    H155091   2.236   1.248  37.720  0.7757 -0.2692  0.0830
11200TIP3    H255092   2.176   1.258  37.859 -1.4907 -0.5277 -0.8455
11201TIP3   OH255093   1.377   0.017  79.053  0.1801 -0.1243 -0.6488
11201TIP3    H155094   1.465   0.006  79.015 -0.2713 -0.5023 -1.6156
11201TIP3    H255095   1.327   0.060  78.984 -0.4058  0.0974 -0.0991
11202TIP3   OH255096   1.511   1.433   7.556  0.3424  0.0648  0.3154
11202TIP3    H155097   1.514   1.486   7.636  0.5662  0.2475  0.1865
11202TIP3    H255098   1.533   1.344   7.585 -0.5934 -0.0745  0.6257
11203TIP3   OH255099   2.602   1.888  13.729 -0.4136 -0.0854 -0.4094
11203TIP3    H155100   2.618   1.802  13.767  0.6329  0.4058  0.3061
11203TIP3    H255101   2.514   1.912  13.759 -0.4348 -0.6061 -0.0488
11204TIP3   OH255102   1.122   1.447   6.128  0.5759 -0.2563  0.1134
11204TIP3    H155103   1.049   1.507   6.137  0.0204 -1.0920  1.5578
11204TIP3    H255104   1.149   1.455   6.037 -0.9006  0.5332 -0.2833
11205TIP3   OH255105   1.440   0.695  13.422 -0.4023 -0.4630  0.3896
11205TIP3    H155106   1.349   0.712  13.447 -0.3516  0.8106 -0.2097
11205TIP3    H255107   1.436   0.676  13.329  0.0017  0.1149  0.2507
11206TIP3   OH255108   0.823   1.524  15.063  0.2975 -0.6241 -0.0432
11206TIP3    H155109   0.903   1.474  15.076  1.3839  1.1194  0.4042
11206TIP3    H255110   0.796   1.549  15.151  0.0639 -0.0534 -0.2686
11207TIP3   OH255111   0.400   2.407  19.690 -0.2708  0.1430 -0.1093
11207TIP3    H155112   0.320   2.377  19.734 -2.0820  3.9557 -0.4404
11207TIP3    H255113   0.377   2.411  19.597  0.2414  1.4284 -0.1996
11208TIP3   OH255114   2.008   1.229  18.094  0.5549  0.3011 -0.3550
11208TIP3    H155115   2.075   1.160  18.102 -0.0174 -0.2244  0.0281
11208TIP3    H255116   1.929   1.182  18.069 -0.0936  0.6851  0.9113
11209TIP3   OH255117   0.701   2.603  15.534  0.3192  0.0039  0.2751
11209TIP3    H155118   0.661   2.682  15.569  1.3262  0.0302  1.4522
11209TIP3    H255119   0.709   2.544  15.609 -0.0949 -1.0850 -0.5125
11210TIP3   OH255120   0.043   0.892  77.456  0.0541  0.0905 -0.0515
11210TIP3    H155121  -0.034   0.866  77.404 -0.5668  0.1507  0.8139
11210TIP3    H255122   0.095   0.945  77.396 -0.8977  0.5656 -0.4794
11211TIP3   OH255123   2.070   2.393  19.117 -0.1006 -0.2722 -0.0162
11211TIP3    H155124   2.133   2.325  19.140 -0.9822 -0.8726  0.7084
11211TIP3    H255125   1.991   2.345  19.091 -0.5791  0.4678  0.0488
11212TIP3   OH255126   0.271   0.532  22.335  0.4695 -0.2010 -0.0345
11212TIP3    H155127   0.182   0.540  22.300  0.4483 -0.0503  0.0551
11212TIP3    H255128   0.311   0.462  22.283  1.2211  1.5710 -1.9719
11213TIP3   OH255129   0.315   0.907  59.614 -0.0182 -0.3532 -0.1836
11213TIP3    H155130   0.383   0.959  59.571  1.1006 -1.5250  0.0998
11213TIP3    H255131   0.320   0.933  59.706 -1.4658  1.1309 -0.4709
11214TIP3   OH255132   0.215   1.175  77.908  0.7873  0.4703  0.2706
11214TIP3    H155133   0.169   1.224  77.975  1.1112  1.2389 -0.0558
11214TIP3    H255134   0.248   1.097  77.953 -1.3577 -0.4369  0.3775
11215TIP3   OH255135   2.540   0.413  28.843  0.1022 -0.4446 -0.1424
11215TIP3    H155136   2.563   0.324  28.817 -0.3665 -0.1459 -1.6860
11215TIP3    H255137   2.613   0.442  28.897 -0.1373 -2.0490  1.1216
11216TIP3   OH255138   1.619   0.685  32.003  0.1074 -0.0663 -0.5955
11216TIP3    H155139   1.567   0.761  32.028 -0.6394 -0.7391 -0.0736
11216TIP3    H255140   1.703   0.698  32.048 -0.1725  0.2222 -0.1501
11217TIP3   OH255141   0.719   0.794  79.204 -0.2545  0.0816  0.3265
11217TIP3    H155142   0.637   0.753  79.232 -0.0208 -0.8965 -0.3595
11217TIP3    H255143   0.741   0.749  79.122  1.2778 -0.0943  0.8144
11218TIP3   OH255144   0.787   0.970   5.267  0.1716  0.2676 -0.4198
11218TIP3    H155145   0.717   0.962   5.333  0.5894 -1.6531 -0.1458
11218TIP3    H255146   0.772   1.055   5.227 -0.8163  0.9893  1.3478
11219TIP3   OH255147   0.007   1.579 106.703 -0.0380 -0.0554  0.1243
11219TIP3    H155148  -0.081   1.568 106.739 -0.2653 -0.9142 -0.6561
11219TIP3    H255149   0.060   1.516 106.750  0.0353  0.0538  0.1846
11220TIP3   OH255150   0.367   1.924  35.930 -0.2504  0.3440  0.5329
11220TIP3    H155151   0.331   1.839  35.907 -0.2758  0.4101  0.3317
11220TIP3    H255152   0.322   1.948  36.011 -1.4191  0.9023 -0.2606
11221TIP3   OH255153   2.359   0.967  18.997  0.2958 -0.1903  0.1092
11221TIP3    H155154   2.291   0.958  19.063 -2.7307  0.5709 -2.6452
11221TIP3    H255155   2.382   1.060  18.999  1.5409 -0.4874  1.1932
11222TIP3   OH255156   1.164   0.348  82.556  0.6339  0.4448  0.1424
11222TIP3    H155157   1.214   0.311  82.628  2.5161  1.4774 -0.5584
11222TIP3    H255158   1.147   0.274  82.498 -0.1018 -0.2185  1.1657
11223TIP3   OH255159   2.310   1.741  47.951  0.2821 -0.3977 -0.6257
11223TIP3    H155160   2.250   1.803  47.992 -0.3248  0.0207 -2.0780
11223TIP3    H255161   2.387   1.793  47.927 -0.2836 -0.1429 -1.9679
11224TIP3   OH255162   1.730   0.348  24.293 -0.1518 -0.1646  0.5178
11224TIP3    H155163   1.807   0.359  24.350  0.7568 -0.5833 -0.5920
11224TIP3    H255164   1.728   0.429  24.241 -0.7656  0.0570  0.8751
11225TIP3   OH255165   2.061   1.354   7.766  0.0962 -0.6382  0.0755
11225TIP3    H155166   2.075   1.437   7.811 -3.3207 -0.5814  1.3590
11225TIP3    H255167   2.107   1.289   7.819  0.6116  0.0913  0.5355
11226TIP3   OH255168   0.239   2.444  35.430  0.3503 -0.0878 -0.7188
11226TIP3    H155169   0.267   2.356  35.407  1.2579  0.0124 -0.0526
11226TIP3    H255170   0.301   2.473  35.497 -0.6365  0.6190 -0.0748
11227TIP3   OH255171   1.254   0.321  91.275  0.0843 -0.3783 -0.1020
11227TIP3    H155172   1.186   0.273  91.321  1.5673 -1.4268  1.0951
11227TIP3    H255173   1.263   0.275  91.191  1.4851 -2.3095  1.0279
11228TIP3   OH255174   1.562   0.282 111.438 -0.1605  0.6130 -0.1951
11228TIP3    H155175   1.490   0.338 111.409  0.1176  0.1151 -1.9839
11228TIP3    H255176   1.519   0.208 111.481 -0.5759  1.5679  1.0863
11229TIP3   OH255177   0.748   0.881  74.310 -0.3176 -0.3706  0.5420
11229TIP3    H155178   0.751   0.975  74.295  2.4539 -0.4389  0.1962
11229TIP3    H255179   0.658   0.864  74.337 -0.9779  2.3038  0.2898
11230TIP3   OH255180   0.746   0.453  59.629  0.1628 -0.0217  0.3062
11230TIP3    H155181   0.751   0.361  59.603 -2.2777 -0.1779  0.1752
11230TIP3    H255182   0.833   0.488  59.610  0.6876 -1.9274 -1.1232
11231TIP3   OH255183   0.325   1.161   7.821 -0.0779  0.1184  0.1402
11231TIP3    H155184   0.417   1.143   7.799  0.4707 -0.6781  2.7452
11231TIP3    H255185   0.320   1.256   7.828  0.9885  0.1122  1.4529
11232TIP3   OH255186   0.215   2.081 107.784  0.2030 -0.1194 -0.2776
11232TIP3    H155187   0.302   2.047 107.764  0.0574  0.1742 -1.4812
11232TIP3    H255188   0.227   2.176 107.787 -0.0177 -0.0966 -0.0950
11233TIP3   OH255189   1.952   2.126  21.494  0.0405  0.0285 -0.4690
11233TIP3    H155190   2.036   2.153  21.456  0.2340 -0.2255 -0.2318
11233TIP3    H255191   1.928   2.047  21.446  0.3437 -0.3586  0.0072
11234TIP3   OH255192   0.239   1.602  95.606  0.2949 -0.6934  0.3120
11234TIP3    H155193   0.294   1.661  95.554 -0.6935  0.2223  0.2499
11234TIP3    H255194   0.163   1.656  95.628 -1.4805 -2.4288 -1.1928
11235TIP3   OH255195   1.594   0.927   1.907 -0.6151  0.2577 -0.3019
11235TIP3    H155196   1.606   0.857   1.971 -2.6488  0.0826 -0.0477
11235TIP3    H255197   1.566   1.003   1.958  1.6730  1.3795 -0.5579
11236TIP3   OH255198   2.187   0.414  63.817  0.2875  0.1322 -0.9521
11236TIP3    H155199   2.095   0.406  63.845  0.0653  1.5570 -1.1892
11236TIP3    H255200   2.230   0.461  63.888  1.1467 -1.5520 -0.3016
11237TIP3   OH255201   2.340   2.447  83.543  0.2837 -0.1276 -0.4919
11237TIP3    H155202   2.371   2.365  83.580  1.6518  0.7730  0.4814
11237TIP3    H255203   2.419   2.487  83.506 -0.5161  0.3715 -1.6928
11238TIP3   OH255204   1.938   0.689 110.319  0.0965  0.0045  0.4670
11238TIP3    H155205   1.949   0.784 110.326 -1.5078  0.2626 -0.1612
11238TIP3    H255206   1.940   0.658 110.410  1.0769  0.5540  0.6508
11239TIP3   OH255207   1.713   2.389  36.518 -0.2984 -0.3268  0.4266
11239TIP3    H155208   1.677   2.311  36.476 -1.0552  0.4234 -0.3893
11239TIP3    H255209   1.807   2.373  36.524 -0.2548 -0.7340 -0.9952
11240TIP3   OH255210   1.754   1.962  22.062  0.2331  0.4448 -0.1686
11240TIP3    H155211   1.709   2.026  22.118  0.0933 -0.2122  0.4845
11240TIP3    H255212   1.766   2.008  21.979  0.2701  1.3781  0.3312
11241TIP3   OH255213   1.565   2.637  13.326 -0.1117  0.5862 -0.4693
11241TIP3    H155214   1.498   2.697  13.359  0.0540  0.3595  0.2942
11241TIP3    H255215   1.516   2.575  13.272 -0.6966 -0.2292  0.9605
11242TIP3   OH255216   2.156   0.963 109.911  0.1873 -0.6949 -0.2144
11242TIP3    H155217   2.226   0.921 109.961 -0.5795 -2.1697 -0.3499
11242TIP3    H255218   2.128   1.035 109.966 -0.2279 -1.9197  1.2318
11243TIP3   OH255219   0.169   2.244  15.590  0.3531 -0.2558 -0.2772
11243TIP3    H155220   0.240   2.261  15.528  0.9613 -0.1562  0.4263
11243TIP3    H255221   0.106   2.315  15.575  0.8604  0.2046 -0.2576
11244TIP3   OH255222   1.703   2.255  96.413 -0.2223 -0.1244  0.1497
11244TIP3    H155223   1.612   2.232  96.396 -0.4266  0.6038  0.2220
11244TIP3    H255224   1.700   2.346  96.445  0.6800  0.5994 -1.6568
11245TIP3   OH255225   1.867   0.993  16.092 -0.6435 -0.1605 -0.1953
11245TIP3    H155226   1.951   1.016  16.131  0.1276 -1.6055 -0.9300
11245TIP3    H255227   1.890   0.947  16.011 -2.0775 -1.9000  0.3118
11246TIP3   OH255228   1.157   2.090   0.111  0.3406  0.1616  0.6416
11246TIP3    H155229   1.147   2.185   0.112  0.2445  0.1670 -0.1932
11246TIP3    H255230   1.089   2.059   0.052  0.5954 -0.3947  0.6320
11247TIP3   OH255231   1.421   2.430  14.462  0.8673 -0.1467  0.0713
11247TIP3    H155232   1.438   2.516  14.499  1.3495  0.6158 -1.7936
11247TIP3    H255233   1.506   2.387  14.460  0.6600 -0.6154  0.8161
11248TIP3   OH255234   0.262   0.869  29.995 -0.0423 -0.4120  0.7232
11248TIP3    H155235   0.187   0.834  29.946  0.0315 -1.0332  1.0463
11248TIP3    H255236   0.335   0.812  29.972  0.3398  0.1947  0.4073
11249TIP3   OH255237   1.792   1.600 109.039 -0.0237 -0.0041  0.3621
11249TIP3    H155238   1.878   1.637 109.018 -0.4743  1.1661  0.5279
11249TIP3    H255239   1.764   1.647 109.118  0.9039 -3.1571  2.7614
11250TIP3   OH255240   1.448   0.756  22.260 -0.3898 -0.0518  0.6272
11250TIP3    H155241   1.413   0.724  22.177  0.1748 -0.6547  0.6077
11250TIP3    H255242   1.403   0.839  22.275 -0.0025  0.3999 -0.6131
11251TIP3   OH255243   1.257   0.149 105.410  0.3349  0.5026  0.0161
11251TIP3    H155244   1.179   0.095 105.396  1.5676 -1.0796 -1.2421
11251TIP3    H255245   1.247   0.222 105.349 -0.0728  0.2269 -0.2568
11252TIP3   OH255246   0.522   0.602  24.302 -0.2932 -0.5726  0.0265
11252TIP3    H155247   0.573   0.638  24.375 -0.2537 -0.8074  0.1158
11252TIP3    H255248   0.511   0.510  24.324 -1.0323 -0.4520  0.1593
11253TIP3   OH255249   0.857   0.810  98.953 -0.3364  0.0599  0.3199
11253TIP3    H155250   0.776   0.759  98.963 -0.1933 -0.2322 -0.0029
11253TIP3    H255251   0.926   0.745  98.947 -0.0809  0.3095  0.5318
11254TIP3   OH255252   1.880   1.231 105.656 -0.0863 -0.0546 -0.7639
11254TIP3    H155253   1.857   1.174 105.583  0.0250 -0.6036 -0.3757
11254TIP3    H255254   1.969   1.260 105.636 -0.3198  0.3810 -1.2016
11255TIP3   OH255255   1.578   2.510  27.928  0.1079  0.3175  0.1181
11255TIP3    H155256   1.540   2.422  27.925  0.5089  0.0969  1.0897
11255TIP3    H255257   1.594   2.526  28.021  1.0314  0.9820 -0.1388
11256TIP3   OH255258   1.508   1.840 108.444 -0.1735  0.4598 -0.0173
11256TIP3    H155259   1.542   1.862 108.531  0.4304  1.3519 -0.4638
11256TIP3    H255260   1.565   1.887 108.383  0.9353 -2.0628 -1.0256
11257TIP3   OH255261   1.649   1.683   5.856 -0.1994 -0.4915 -0.2122
11257TIP3    H155262   1.655   1.651   5.766 -0.9658 -1.2361 -0.0068
11257TIP3    H255263   1.727   1.737   5.867 -0.5091  0.2823 -1.5841
11258TIP3   OH255264   1.925   2.472  45.668  0.0836 -0.1555  0.1506
11258TIP3    H155265   1.867   2.545  45.648  0.6374  0.8970  2.1378
11258TIP3    H255266   1.892   2.400  45.614 -1.0333  1.2900 -1.1858
11259TIP3   OH255267   0.578   0.354  34.493  0.2067 -0.4942  0.2129
11259TIP3    H155268   0.591   0.436  34.540 -0.1078 -0.8588  0.9581
11259TIP3    H255269   0.486   0.355  34.467  0.3714 -0.3100 -0.3660
11260TIP3   OH255270   0.789   0.557  86.502  0.0841 -0.3174 -0.7694
11260TIP3    H155271   0.885   0.556  86.508  0.0753  0.1531 -0.5476
11260TIP3    H255272   0.771   0.598  86.417  0.0720  0.2263 -0.5098
11261TIP3   OH255273   2.031   0.085  80.456 -0.6833 -0.0054  0.2495
11261TIP3    H155274   2.091   0.097  80.384 -0.2268  0.2635  0.6695
11261TIP3    H255275   2.078   0.118  80.533 -0.4843 -1.8451  0.9693
11262TIP3   OH255276   0.841   0.534 111.835 -0.1500  0.5526 -0.0718
11262TIP3    H155277   0.885   0.478 111.770  0.5423 -0.1518  0.9721
11262TIP3    H255278   0.779   0.585 111.784 -0.5212 -0.8900 -1.1296
11263TIP3   OH255279   0.932   0.918 100.728 -0.6868  0.6419 -0.4756
11263TIP3    H155280   0.844   0.917 100.765 -0.1353 -0.0422  0.8927
11263TIP3    H255281   0.932   0.846 100.664  0.0632 -2.4767  2.6630
11264TIP3   OH255282   0.415   1.877  85.067 -0.1500  0.2789 -0.6991
11264TIP3    H155283   0.379   1.871  84.979  2.2530 -1.3893 -1.6866
11264TIP3    H255284   0.466   1.796  85.077  0.0966  0.6778  2.0239
11265TIP3   OH255285   0.700   1.046  77.963  0.4949 -0.2660  0.1840
11265TIP3    H155286   0.690   1.140  77.947  0.1081 -0.1668  0.9416
11265TIP3    H255287   0.787   1.025  77.930  0.2746  0.1965 -0.7005
11266TIP3   OH255288   2.293   1.767  10.764  0.4482  0.0064  0.3193
11266TIP3    H155289   2.234   1.694  10.781 -0.2379 -0.1139 -2.1139
11266TIP3    H255290   2.262   1.837  10.821 -1.9259 -0.1629 -0.6151
11267TIP3   OH255291   2.426   0.444 106.313  0.0803  0.1422  0.0293
11267TIP3    H155292   2.510   0.429 106.356  0.0762  0.7408  0.2715
11267TIP3    H255293   2.389   0.357 106.301 -0.0397 -0.0412  1.4903
11268TIP3   OH255294   1.417   2.193  96.421 -0.0882  0.0814  0.4430
11268TIP3    H155295   1.435   2.098  96.420 -0.7213 -0.0417 -0.3113
11268TIP3    H255296   1.355   2.204  96.493  0.8565  0.1077  1.2829
11269TIP3   OH255297   0.602   0.678   1.495 -0.2553  0.1742 -0.0732
11269TIP3    H155298   0.539   0.750   1.498 -1.0136 -0.4597 -0.4186
11269TIP3    H255299   0.566   0.617   1.430  0.3940 -0.4971  0.1827
11270TIP3   OH255300   1.918   2.108  26.290 -0.3262  0.1835  0.1199
11270TIP3    H155301   1.897   2.024  26.331  1.0482 -0.7925 -1.0325
11270TIP3    H255302   1.851   2.119  26.222  0.0111 -0.4772 -0.3407
11271TIP3   OH255303   1.028   0.713   1.904 -0.6379 -0.0427 -0.6305
11271TIP3    H155304   1.094   0.749   1.844 -0.3206 -0.1856 -0.3709
11271TIP3    H255305   1.071   0.715   1.990 -2.2443  3.4566  0.2903
11272TIP3   OH255306   2.252   1.156   9.303 -0.1377 -0.0917 -0.3253
11272TIP3    H155307   2.299   1.082   9.342  0.4765 -1.3989 -3.2801
11272TIP3    H255308   2.177   1.116   9.260 -1.1862  1.3779  0.0758
11273TIP3   OH255309   2.416   0.195  99.312 -0.1280 -0.4962  0.2033
11273TIP3    H155310   2.446   0.143  99.237 -0.2947  0.6616 -0.6859
11273TIP3    H255311   2.447   0.146  99.388 -0.5053 -2.0289 -0.5949
11274TIP3   OH255312   0.772   0.576  86.854 -0.2863  0.4061 -0.5205
11274TIP3    H155313   0.684   0.551  86.883 -0.2099 -0.5258 -1.0368
11274TIP3    H255314   0.758   0.613  86.766 -0.3713  2.0335  0.1464
11275TIP3   OH255315   0.895   0.592  94.483  0.6112  0.2663  0.3662
11275TIP3    H155316   0.969   0.554  94.436 -0.4202 -0.5038 -0.6990
11275TIP3    H255317   0.886   0.539  94.562  1.2600  0.4395  0.5652
11276TIP3   OH255318   1.232   1.444   3.410  0.0587  0.0063 -0.1070
11276TIP3    H155319   1.204   1.360   3.446 -0.6253  0.1552 -0.2685
11276TIP3    H255320   1.268   1.493   3.484  0.1142 -0.2854  0.0574
11277TIP3   OH255321   1.601   2.172   3.934  0.3212 -0.0470  0.4693
11277TIP3    H155322   1.663   2.101   3.946  1.6192  1.2836  2.1767
11277TIP3    H255323   1.592   2.212   4.021 -2.2928  0.3581  0.1039
11278TIP3   OH255324   1.163   0.140  78.032  0.2290  0.8381 -0.1516
11278TIP3    H155325   1.222   0.065  78.025  1.7466  1.9688  0.0349
11278TIP3    H255326   1.164   0.179  77.945 -0.4463  0.7397 -0.2079
11279TIP3   OH255327   1.538   1.393  51.527  0.4136 -0.1940 -0.1626
11279TIP3    H155328   1.625   1.403  51.490  1.3569 -1.7637  1.4758
11279TIP3    H255329   1.503   1.483  51.531  2.1081  0.5179 -0.4639
11280TIP3   OH255330   0.381   1.691   2.822 -0.0669 -0.3535  0.3797
11280TIP3    H155331   0.390   1.751   2.897  2.8578 -2.0618  1.5510
11280TIP3    H255332   0.454   1.713   2.765 -2.0171  0.6477 -1.9379
11281TIP3   OH255333   0.612   0.224  10.254 -0.3323  0.1056  0.1508
11281TIP3    H155334   0.614   0.262  10.166  1.6508 -1.9975 -0.8401
11281TIP3    H255335   0.704   0.226  10.282 -0.8691  0.3156  2.0155
11282TIP3   OH255336   1.726   1.282  27.410 -0.7272 -0.3103  0.4944
11282TIP3    H155337   1.799   1.236  27.369 -0.1534  0.8397  0.1674
11282TIP3    H255338   1.693   1.221  27.475  0.9711 -0.6184  1.1382
11283TIP3   OH255339   1.719   0.677   1.540  0.0430 -0.0574  0.6429
11283TIP3    H155340   1.635   0.723   1.536  0.1258  0.0127 -0.5078
11283TIP3    H255341   1.784   0.744   1.519  0.4375 -0.0317  1.8562
11284TIP3   OH255342   2.520   0.046 109.887 -0.4270  0.5802  0.1646
11284TIP3    H155343   2.521  -0.040 109.927 -0.5365  0.2716 -0.4743
11284TIP3    H255344   2.489   0.105 109.955  1.1195  0.3732  1.0867
11285TIP3   OH255345   1.346   2.548  84.943  0.0475 -0.5276  0.0287
11285TIP3    H155346   1.411   2.613  84.969  0.3337 -1.2422  1.1320
11285TIP3    H255347   1.397   2.469  84.926 -0.5374 -1.1772  1.1890
11286TIP3   OH255348   1.341   0.567  79.446  0.2969 -0.1823 -0.5221
11286TIP3    H155349   1.302   0.630  79.384 -1.8283 -1.2264 -0.3615
11286TIP3    H255350   1.296   0.484  79.427  0.7082 -0.8985  1.3887
11287TIP3   OH255351   1.178   0.025  88.774 -0.0716  0.3170 -0.1644
11287TIP3    H155352   1.181  -0.071  88.770 -1.1102  0.2648  0.0182
11287TIP3    H255353   1.228   0.054  88.698  0.3493 -0.3751 -0.1582
11288TIP3   OH255354   1.936   1.514  28.242 -0.3308  0.5176 -0.2921
11288TIP3    H155355   1.883   1.544  28.168 -0.8863  1.8518  0.6216
11288TIP3    H255356   1.971   1.594  28.281 -0.5680 -0.1112  1.2760
11289TIP3   OH255357   0.117   0.438  89.102  0.0929  0.7612  0.2313
11289TIP3    H155358   0.055   0.447  89.175 -1.4940 -2.2639 -0.5837
11289TIP3    H255359   0.075   0.483  89.029 -1.2661 -1.2114 -0.2954
11290TIP3   OH255360   2.307   1.722  22.952 -0.0136  0.4965 -0.2234
11290TIP3    H155361   2.228   1.713  23.005  0.8103  1.8402  1.3284
11290TIP3    H255362   2.374   1.671  22.998  0.6745  1.5667  0.0256
11291TIP3   OH255363   1.544   1.456  12.977  0.4407 -0.1589 -0.2068
11291TIP3    H155364   1.557   1.544  13.013  2.6878 -0.8768  0.8995
11291TIP3    H255365   1.456   1.459  12.939 -0.0019  2.2026  0.8075
11292TIP3   OH255366   0.072   2.491 105.987 -0.1162  0.4031  0.1658
11292TIP3    H155367  -0.020   2.510 105.968 -0.5298 -1.2064  0.3594
11292TIP3    H255368   0.074   2.396 106.001  1.4307  0.5314  1.0235
11293TIP3   OH255369   0.777   1.353 104.148 -0.1292 -0.5660 -0.2003
11293TIP3    H155370   0.712   1.322 104.212 -0.9072  1.6443  0.1430
11293TIP3    H255371   0.728   1.359 104.066 -0.2347  0.6409 -0.0481
11294TIP3   OH255372   1.794   0.020  77.619  0.0271 -0.4569  0.5066
11294TIP3    H155373   1.810  -0.069  77.652  1.2568 -0.3621  0.1825
11294TIP3    H255374   1.828   0.077  77.688 -1.1920 -0.2065  0.9259
11295TIP3   OH255375   2.381   2.084  29.356  0.0907  0.4267 -0.5438
11295TIP3    H155376   2.340   2.161  29.396  0.5945  0.1950  0.4506
11295TIP3    H255377   2.453   2.119  29.304  0.6395  0.6160  0.3111
11296TIP3   OH255378   0.166   2.049  93.806  0.6090  0.3430  0.1779
11296TIP3    H155379   0.079   2.089  93.813  1.5463  2.3882  1.1733
11296TIP3    H255380   0.219   2.097  93.869  2.6586 -0.3499 -0.9219
11297TIP3   OH255381   2.232   0.255  17.102  0.5719 -0.0623 -0.1205
11297TIP3    H155382   2.202   0.299  17.182  0.5465  0.8455 -0.6134
11297TIP3    H255383   2.262   0.169  17.132  0.1142  0.0774  0.7921
11298TIP3   OH255384   1.371   1.894  21.113 -0.0648  0.2557 -0.4769
11298TIP3    H155385   1.305   1.962  21.101  1.1411  1.5032 -0.3403
11298TIP3    H255386   1.455   1.940  21.104  0.8084 -1.3697 -1.2263
11299TIP3   OH255387   2.263   0.003 105.687  0.0485 -0.2387 -0.2728
11299TIP3    H155388   2.173  -0.029 105.694  0.3570 -1.2198 -0.6288
11299TIP3    H255389   2.297  -0.037 105.607  1.4068 -1.4883  0.8399
11300TIP3   OH255390   2.164   0.408  33.072  0.4685  0.5507 -0.1184
11300TIP3    H155391   2.093   0.357  33.111  0.2848  0.1595 -0.9460
11300TIP3    H255392   2.136   0.423  32.982 -0.0058  3.1176  0.3910
11301TIP3   OH255393   0.796   1.646  97.772  0.4740  0.2260  0.8722
11301TIP3    H155394   0.769   1.558  97.798  0.3345  0.1785  0.5700
11301TIP3    H255395   0.879   1.632  97.725  0.6240  0.2907  1.1185
11302TIP3   OH255396   1.584   2.614  52.803  0.2491 -0.0697 -0.4360
11302TIP3    H155397   1.580   2.659  52.719 -2.4702  2.0197  0.6726
11302TIP3    H255398   1.495   2.618  52.838  1.1769 -1.1309  2.4424
11303TIP3   OH255399   1.143   2.626 101.958  0.5240 -0.2612  0.3918
11303TIP3    H155400   1.113   2.686 101.890  2.0699 -1.1618 -1.1597
11303TIP3    H255401   1.238   2.623 101.948  0.5990 -2.0389  1.1918
11304TIP3   OH255402   2.274   1.816  95.329 -0.5204  0.0750  0.0419
11304TIP3    H155403   2.260   1.723  95.345 -0.9278  0.0154 -0.6473
11304TIP3    H255404   2.210   1.839  95.262 -1.1564  1.0946  0.9577
11305TIP3   OH255405   1.859   2.252  86.929 -0.4173 -0.0153 -0.3161
11305TIP3    H155406   1.813   2.236  86.847  0.4976 -0.7451 -0.6964
11305TIP3    H255407   1.928   2.185  86.933  0.8762  1.2686  0.0403
11306TIP3   OH255408   2.668   0.311  66.469  0.5267  0.2720  0.0006
11306TIP3    H155409   2.615   0.303  66.389 -0.2778 -1.3322  0.6552
11306TIP3    H255410   2.609   0.352  66.533  0.6384  0.0499  0.2403
11307TIP3   OH255411   1.402   1.738  84.603  0.2227 -0.2420  0.2398
11307TIP3    H155412   1.325   1.777  84.643 -0.6949 -2.3709  0.7107
11307TIP3    H255413   1.452   1.703  84.678  1.5735  0.9378 -0.0693
11308TIP3   OH255414   1.041   2.434  25.850 -0.4075  0.5012 -0.5631
11308TIP3    H155415   1.027   2.460  25.759  0.8491  1.4996 -0.4957
11308TIP3    H255416   0.953   2.419  25.884 -1.0419  2.2298 -1.3445
11309TIP3   OH255417   0.287   0.474  30.880 -0.8752  0.6344  0.6924
11309TIP3    H155418   0.301   0.561  30.917  0.2216  0.5633  0.4703
11309TIP3    H255419   0.357   0.421  30.917 -1.3170 -0.0771  0.5370
11310TIP3   OH255420   0.690   0.888  52.665  0.2601  0.4765  0.7786
11310TIP3    H155421   0.616   0.926  52.618 -2.2219 -2.7750  1.6575
11310TIP3    H255422   0.760   0.882  52.600 -0.5006  2.8145 -0.3551
11311TIP3   OH255423   0.637   0.885  21.725  0.0110 -0.0089  0.0503
11311TIP3    H155424   0.590   0.890  21.642  0.1783 -0.0516 -0.0476
11311TIP3    H255425   0.720   0.929  21.708  0.6390 -1.2611 -0.2099
11312TIP3   OH255426   1.082   0.758  88.209 -0.3306 -0.2763 -0.6781
11312TIP3    H155427   1.160   0.814  88.208 -0.2574 -0.3661 -0.3530
11312TIP3    H255428   1.009   0.818  88.197 -0.1866 -0.2350 -1.3483
11313TIP3   OH255429   0.040   0.274   3.412 -0.3447 -0.2962  0.1781
11313TIP3    H155430   0.108   0.240   3.354 -0.6855 -1.0036  0.1819
11313TIP3    H255431   0.026   0.204   3.476 -0.8350 -0.0204  0.3770
11314TIP3   OH255432   0.031   0.240  99.058 -0.5428  0.0923 -0.2287
11314TIP3    H155433   0.124   0.224  99.043 -0.1876  1.9511 -0.1841
11314TIP3    H255434  -0.011   0.213  98.977  0.1329  0.0089 -0.5605
11315TIP3   OH255435   1.632   2.086  10.480  0.4932 -0.3499  0.7547
11315TIP3    H155436   1.700   2.118  10.539 -0.1566  0.1819  1.2303
11315TIP3    H255437   1.655   1.994  10.464  0.5611 -0.5601  1.9962
11316TIP3   OH255438   1.223   1.000  86.123 -0.1383 -0.2253 -0.1134
11316TIP3    H155439   1.160   1.059  86.081 -0.3170 -0.9031 -0.8292
11316TIP3    H255440   1.287   1.058  86.164 -0.4568  0.4674 -0.5677
11317TIP3   OH255441   1.659   1.164  88.530  0.4149 -0.0966  0.5355
11317TIP3    H155442   1.749   1.131  88.518  0.8329  1.0380  0.3947
11317TIP3    H255443   1.669   1.236  88.593 -0.5014 -0.3700  1.0033
11318TIP3   OH255444   2.112   1.164  31.856  0.0486 -0.9121  0.2195
11318TIP3    H155445   2.187   1.129  31.904  1.1962 -0.2266 -1.0054
11318TIP3    H255446   2.099   1.103  31.784 -0.4860 -0.9369  0.3312
11319TIP3   OH255447   1.859   2.341  98.840  0.5881  0.0414 -0.2281
11319TIP3    H155448   1.823   2.429  98.846  0.6495  0.3425 -3.0218
11319TIP3    H255449   1.952   2.354  98.821  0.7544 -0.6515  0.0698
11320TIP3   OH255450   2.662   0.181  76.336 -0.4887 -0.8144  0.4180
11320TIP3    H155451   2.674   0.087  76.352  1.5772 -0.5488  0.7400
11320TIP3    H255452   2.734   0.205  76.279  0.8572  1.1142  2.7175
11321TIP3   OH255453   0.075   0.973  18.878  0.8083  0.2703 -0.5053
11321TIP3    H155454   0.030   0.967  18.963  0.1024  2.9813 -0.6006
11321TIP3    H255455   0.167   0.960  18.900  0.5399 -0.0555  0.5242
11322TIP3   OH255456   1.211   0.086  93.020  0.2040  0.1592  0.0194
11322TIP3    H155457   1.130   0.034  93.017  0.3915 -0.1043 -1.0553
11322TIP3    H255458   1.182   0.175  92.998  0.0678  0.2614  0.6025
11323TIP3   OH255459   1.481   2.463  25.492  0.3628  0.3629 -0.4990
11323TIP3    H155460   1.437   2.471  25.408  1.1267 -0.6596 -1.0221
11323TIP3    H255461   1.516   2.374  25.493 -0.5741 -0.0316  1.3778
11324TIP3   OH255462   0.394   2.217  21.446 -0.3078 -0.1985 -0.1465
11324TIP3    H155463   0.488   2.216  21.460 -0.0979 -2.7877 -1.1373
11324TIP3    H255464   0.383   2.229  21.352 -0.8530 -1.6240 -0.2931
11325TIP3   OH255465   0.997   1.570  84.440 -0.4072  0.1223  0.2250
11325TIP3    H155466   0.932   1.526  84.493 -0.7395  0.4490  0.0901
11325TIP3    H255467   1.056   1.500  84.410  1.9958  0.2593  3.9538
11326TIP3   OH255468   0.404   2.029   9.094  0.2852 -0.2151  0.2497
11326TIP3    H155469   0.496   2.003   9.104  0.8400  2.0383  1.6269
11326TIP3    H255470   0.407   2.115   9.052 -1.2474 -0.3945 -0.2948
11327TIP3   OH255471   2.167   2.013  47.864  0.0173 -0.2656 -0.2697
11327TIP3    H155472   2.164   1.983  47.955  1.3391 -1.7697 -0.6691
11327TIP3    H255473   2.082   1.986  47.828 -0.3131 -0.1119  0.3723
11328TIP3   OH255474   0.094   2.344  87.401  0.3850  0.3933 -0.6130
11328TIP3    H155475   0.084   2.291  87.480 -0.0578  1.6154  0.1828
11328TIP3    H255476   0.009   2.386  87.389  0.9357  1.4977 -0.7942
11329TIP3   OH255477   2.321   1.982  96.755  0.0860  0.0120 -0.5802
11329TIP3    H155478   2.328   1.890  96.731 -1.6871 -0.1450 -0.6196
11329TIP3    H255479   2.292   2.026  96.675 -2.2711  0.0527  0.2328
11330TIP3   OH255480   1.595   0.462   6.470 -0.2128 -0.3978 -0.3783
11330TIP3    H155481   1.677   0.505   6.445 -0.0512 -1.0901 -1.0785
11330TIP3    H255482   1.607   0.439   6.562  1.2553 -2.4100 -1.0217
11331TIP3   OH255483   1.457   1.765  76.323  0.6154 -0.7708  0.2881
11331TIP3    H155484   1.498   1.818  76.390  0.5358 -0.3412  0.0016
11331TIP3    H255485   1.509   1.685  76.320  1.4061 -0.2528 -0.0437
11332TIP3   OH255486   1.692   2.226  78.993 -0.5893 -0.2804  0.6563
11332TIP3    H155487   1.746   2.159  79.036  2.2029  0.4410 -1.4810
11332TIP3    H255488   1.749   2.302  78.985 -1.3539  0.0791 -3.0364
11333TIP3   OH255489   2.405   1.881  81.781  0.8305 -0.4691 -0.2128
11333TIP3    H155490   2.427   1.973  81.769 -0.2614 -0.4283 -2.2516
11333TIP3    H255491   2.485   1.834  81.759  1.2399 -0.0408  0.3328
11334TIP3   OH255492   0.324   1.374 101.030  0.1863  0.2370  0.5870
11334TIP3    H155493   0.359   1.443 101.086  1.4143  0.8062 -0.8173
11334TIP3    H255494   0.314   1.415 100.944 -0.3246 -0.9816  0.0334
11335TIP3   OH255495   0.663   0.454  67.020  0.0524  0.0268  0.3018
11335TIP3    H155496   0.649   0.460  66.925  0.7691  1.4758  0.2628
11335TIP3    H255497   0.718   0.376  67.031 -1.2016 -0.9907 -0.3065
11336TIP3   OH255498   0.063   1.466  88.336  0.6219  0.4144  0.0580
11336TIP3    H155499   0.088   1.439  88.424  0.1881  2.4414  0.8768
11336TIP3    H255500  -0.009   1.528  88.350 -0.9960 -0.9165 -1.8839
11337TIP3   OH255501   1.038   0.274  28.468 -0.2275 -0.1171 -0.3305
11337TIP3    H155502   1.118   0.326  28.456  1.3832 -2.6819 -1.8352
11337TIP3    H255503   0.968   0.330  28.438  1.3196  1.3884 -1.3191
11338TIP3   OH255504   0.924   1.897  52.813 -0.1156 -0.0655  0.4434
11338TIP3    H155505   0.966   1.812  52.820 -2.7512 -1.5814 -0.5293
11338TIP3    H255506   0.943   1.941  52.896  1.4134 -1.5233  0.9111
11339TIP3   OH255507   2.523   1.920  80.129 -0.1625  0.1262 -0.1347
11339TIP3    H155508   2.467   1.990  80.161 -0.1139  0.0054  0.2085
11339TIP3    H255509   2.554   1.952  80.044 -1.8447 -0.3957 -0.9791
11340TIP3   OH255510   1.140   1.849  24.757 -0.4663 -0.1658  0.1054
11340TIP3    H155511   1.147   1.862  24.663 -2.0811  1.3097  0.1251
11340TIP3    H255512   1.049   1.825  24.772 -0.0665 -1.0872  1.2388
11341TIP3   OH255513   1.779   0.954  87.673 -0.1196 -0.1388 -0.3328
11341TIP3    H155514   1.861   0.952  87.722 -0.7373  1.2508  0.8215
11341TIP3    H255515   1.728   1.024  87.714 -1.0579  0.4345 -2.3494
11342TIP3   OH255516   0.095   0.789  39.856  0.5765  0.2205  0.0274
11342TIP3    H155517   0.189   0.774  39.862  0.4916 -0.3235  0.0547
11342TIP3    H255518   0.063   0.780  39.946  0.6546  1.5008  0.1897
11343TIP3   OH255519   1.078   1.563  97.685 -0.3498  0.4036  0.1677
11343TIP3    H155520   1.125   1.500  97.740 -1.5024  0.0747  0.7930
11343TIP3    H255521   1.115   1.550  97.598 -0.0442 -0.6118  0.4352
11344TIP3   OH255522   0.099   2.588 109.192  0.3283  1.0312  0.4209
11344TIP3    H155523   0.035   2.655 109.168 -0.2737 -0.0891 -1.3043
11344TIP3    H255524   0.046   2.516 109.225  0.6922  0.2528 -0.6316
11345TIP3   OH255525   2.196   0.688  75.874 -0.3341 -0.4192 -0.3092
11345TIP3    H155526   2.154   0.727  75.798  0.6593  0.9854 -0.1670
11345TIP3    H255527   2.286   0.721  75.872 -0.4888  0.2907  1.9056
11346TIP3   OH255528   1.494   0.478  34.691 -0.6062 -0.0039  0.0250
11346TIP3    H155529   1.581   0.515  34.675 -0.6020  0.3823  0.9063
11346TIP3    H255530   1.467   0.443  34.606  1.2010 -1.8347  0.1224
11347TIP3   OH255531   0.897   2.024  82.706 -0.0173  0.1564  0.1694
11347TIP3    H155532   0.958   2.030  82.632  0.6019  0.7708  0.7180
11347TIP3    H255533   0.896   1.931  82.729  0.3733  0.0755 -0.1265
11348TIP3   OH255534   0.494   0.544  30.626 -0.1815  0.2588 -0.3323
11348TIP3    H155535   0.431   0.515  30.560  0.4332  0.0038 -0.8135
11348TIP3    H255536   0.534   0.463  30.659 -0.6283  0.3673  0.5116
11349TIP3   OH255537   0.601   2.667  15.073  0.4701  0.0977 -0.3883
11349TIP3    H155538   0.662   2.708  15.011 -0.0210  1.9478  0.2997
11349TIP3    H255539   0.519   2.713  15.060 -0.1802 -0.8393  0.2759
11350TIP3   OH255540   2.569   0.946  31.559  0.4014 -0.5202 -0.1302
11350TIP3    H155541   2.636   1.015  31.557 -1.5820  1.7194  2.5410
11350TIP3    H255542   2.521   0.958  31.477  2.2634 -1.1881 -1.3856
11351TIP3   OH255543   1.908   2.296  82.420 -0.2055 -0.6195  0.6225
11351TIP3    H155544   1.912   2.391  82.425  0.9022 -0.6651  0.8370
11351TIP3    H255545   1.841   2.271  82.484  0.5404 -0.0727  1.6436
11352TIP3   OH255546   0.271   1.287  13.882 -0.1754  0.6286 -0.4083
11352TIP3    H155547   0.193   1.326  13.842 -1.2053 -0.5864  0.2944
11352TIP3    H255548   0.238   1.251  13.965  1.2211  0.3782  0.0526
11353TIP3   OH255549   0.147   0.068  70.171 -0.5130  0.3188  0.8150
11353TIP3    H155550   0.106   0.044  70.088  2.1710  0.9082 -0.8180
11353TIP3    H255551   0.202   0.143  70.149 -0.3840  1.0492  3.3531
11354TIP3   OH255552   2.262   2.291  82.374  0.3604 -0.0481  0.1324
11354TIP3    H155553   2.236   2.287  82.282 -1.1115 -0.0296  0.5279
11354TIP3    H255554   2.353   2.319  82.371  0.7171 -1.2182 -1.3571
11355TIP3   OH255555   2.373   2.505  23.722 -0.0621 -0.3468 -0.1636
11355TIP3    H155556   2.418   2.429  23.685 -0.4569  0.1463 -1.7590
11355TIP3    H255557   2.282   2.479  23.729 -0.1599 -0.1105 -0.5061
11356TIP3   OH255558   0.622   1.843  73.510  0.2365  1.3368  0.4651
11356TIP3    H155559   0.648   1.759  73.549 -2.9221 -0.5214 -0.9906
11356TIP3    H255560   0.625   1.826  73.415 -0.8165  2.7186  0.1568
11357TIP3   OH255561   0.367   1.273  31.227  0.0581  0.1132  0.4546
11357TIP3    H155562   0.321   1.323  31.294 -1.6627 -0.8529  0.0671
11357TIP3    H255563   0.322   1.188  31.226  0.6292 -0.2065 -1.2987
11358TIP3   OH255564   1.965   0.527  18.384  0.2134  0.0133 -0.2385
11358TIP3    H155565   1.899   0.594  18.363 -0.1931 -0.7700 -1.5244
11358TIP3    H255566   1.929   0.446  18.349  0.6402 -0.9327  1.4266
11359TIP3   OH255567   1.653   1.344  38.187  0.6794  0.1808  0.3551
11359TIP3    H155568   1.601   1.419  38.212  0.0319 -0.4351  0.8802
11359TIP3    H255569   1.717   1.379  38.124 -0.8521  0.8013 -0.9153
11360TIP3   OH255570   1.259   2.292   3.188  0.0727 -0.0848 -0.8239
11360TIP3    H155571   1.341   2.245   3.176  0.0687 -0.3629  0.1744
11360TIP3    H255572   1.272   2.342   3.268 -0.9544 -0.6178 -0.3094
11361TIP3   OH255573   2.451   0.081  26.168  0.5734 -0.2570  0.2983
11361TIP3    H155574   2.413   0.002  26.128  1.7648 -0.1560 -1.0761
11361TIP3    H255575   2.541   0.084  26.136 -0.0266  2.8365 -1.5090
11362TIP3   OH255576   1.997   0.001 102.359  0.1477  0.5067 -0.1575
11362TIP3    H155577   1.938   0.002 102.284  1.3796 -0.2767 -1.1793
11362TIP3    H255578   1.958   0.062 102.421 -1.9293 -0.2557 -0.6203
11363TIP3   OH255579   0.737   1.759   1.763  0.0661  0.1855  0.3951
11363TIP3    H155580   0.643   1.743   1.756 -0.0543  0.2950  1.5382
11363TIP3    H255581   0.760   1.805   1.682 -0.9094  0.3680  0.2107
11364TIP3   OH255582   2.332   0.571  93.592 -0.6403 -0.4433 -0.5524
11364TIP3    H155583   2.259   0.508  93.592  0.7931 -2.1743  0.0858
11364TIP3    H255584   2.340   0.599  93.683  0.2362 -1.1728 -0.3966
11365TIP3   OH255585   0.683   1.047  89.595  0.2316 -0.1280  0.1048
11365TIP3    H155586   0.697   1.062  89.501  0.6927 -0.4487  0.1194
11365TIP3    H255587   0.588   1.042  89.605  0.1703  0.2114 -0.3011
11366TIP3   OH255588   1.103   0.413  36.225  0.2591 -0.4962  0.0543
11366TIP3    H155589   1.019   0.423  36.270  1.0434  2.3784  1.1447
11366TIP3    H255590   1.082   0.421  36.132 -0.7665 -0.4628  0.2807
11367TIP3   OH255591   0.207   0.617 104.533 -0.5528  0.0591  0.4801
11367TIP3    H155592   0.173   0.576 104.454 -0.9501 -0.0504  0.7018
11367TIP3    H255593   0.157   0.698 104.542 -1.5257 -0.6079  1.3784
11368TIP3   OH255594   0.375   2.284  21.171 -0.9414  0.4472 -0.3123
11368TIP3    H155595   0.307   2.325  21.118 -0.6330  0.4283 -0.7323
11368TIP3    H255596   0.431   2.357  21.199 -1.2922  0.4957  0.2684
11369TIP3   OH255597   2.031   2.135 104.252  0.3077  0.4580 -0.4572
11369TIP3    H155598   1.973   2.191 104.199 -1.0194 -1.9698 -1.7134
11369TIP3    H255599   1.972   2.076 104.299  1.6718 -2.0291 -1.6628
11370TIP3   OH255600   1.921   1.594  21.473  0.0019 -0.1352 -0.1164
11370TIP3    H155601   2.010   1.613  21.501 -0.4490  2.0875 -0.0004
11370TIP3    H255602   1.877   1.564  21.553  0.4348 -0.4995 -0.0105
11371TIP3   OH255603   0.222   2.600  30.975 -0.1786 -0.0847 -0.1905
11371TIP3    H155604   0.164   2.598  30.900 -1.6781  1.7192  0.8458
11371TIP3    H255605   0.259   2.689  30.975  3.1712 -1.2928 -1.1533
11372TIP3   OH255606   0.658   1.790  73.238 -0.2394 -0.0812 -0.7081
11372TIP3    H155607   0.643   1.750  73.152  0.1887  0.4323 -1.0351
11372TIP3    H255608   0.677   1.882  73.218  1.0462 -0.2084 -0.1553
11373TIP3   OH255609   0.926   0.576 110.501  0.2325  0.0687 -0.1737
11373TIP3    H155610   0.962   0.568 110.413 -0.0238 -0.8887 -0.2062
11373TIP3    H255611   0.996   0.544 110.558  0.1099 -0.0727 -0.1020
11374TIP3   OH255612   0.893   1.191   0.281  0.3149  0.3248  0.2926
11374TIP3    H155613   0.916   1.278   0.247  1.6363 -0.3265 -0.6036
11374TIP3    H255614   0.921   1.194   0.373  1.9125  0.3437 -0.1571
11375TIP3   OH255615   2.132   0.738   9.420 -0.5006  0.0293  0.5021
11375TIP3    H155616   2.154   0.690   9.340 -1.1547 -1.1233  0.9852
11375TIP3    H255617   2.217   0.763   9.456 -0.2091  0.9312 -0.7453
11376TIP3   OH255618   0.401   0.590  93.040  0.4527 -0.2117  0.0757
11376TIP3    H155619   0.413   0.636  93.123 -0.9006 -0.0403  0.1977
11376TIP3    H255620   0.331   0.638  92.996 -0.0591 -1.3440 -0.3818
11377TIP3   OH255621   0.748   2.185  89.679 -0.3451 -0.0208 -0.4068
11377TIP3    H155622   0.744   2.128  89.603  0.3549 -0.3466 -0.2132
11377TIP3    H255623   0.836   2.173  89.714 -1.0013 -0.7086  1.0910
11378TIP3   OH255624   0.226   2.548  64.007  0.1582  1.1025 -0.2826
11378TIP3    H155625   0.263   2.483  63.948 -0.3042 -1.0624  1.6661
11378TIP3    H255626   0.154   2.588  63.958 -1.2308 -1.7303 -0.6954
11379TIP3   OH255627   0.335   0.888  37.621 -0.6694 -0.3377  0.1896
11379TIP3    H155628   0.330   0.922  37.710 -0.0613  1.0165 -0.2740
11379TIP3    H255629   0.244   0.872  37.596 -0.9630  0.7851  0.4968
11380TIP3   OH255630   0.640   1.212  86.840  0.3119  0.0068 -0.0430
11380TIP3    H155631   0.576   1.191  86.771 -0.3016 -0.6729  0.7119
11380TIP3    H255632   0.665   1.127  86.876  1.3123  0.2983 -0.0235
11381TIP3   OH255633   1.897   0.975  73.283 -0.4548 -0.1142 -0.2463
11381TIP3    H155634   1.925   0.892  73.243  0.2186  0.6277 -1.3583
11381TIP3    H255635   1.803   0.980  73.265 -0.6603 -0.9887  0.5108
11382TIP3   OH255636   1.139   2.233 108.432 -0.4710  0.4257  0.4522
11382TIP3    H155637   1.180   2.184 108.360 -0.4399  0.4089  0.4801
11382TIP3    H255638   1.203   2.229 108.503 -0.9866 -0.5639  0.8853
11383TIP3   OH255639   0.979   1.974   8.023 -0.4620 -0.5578 -0.1134
11383TIP3    H155640   1.012   2.002   7.937  1.0288 -1.0594  0.2544
11383TIP3    H255641   1.019   2.035   8.085 -2.1176  0.2677  0.2028
11384TIP3   OH255642   2.320   1.371  25.705 -0.2635 -0.4196  0.0297
11384TIP3    H155643   2.263   1.432  25.659  1.1663  1.0833  0.1719
11384TIP3    H255644   2.400   1.368  25.652  0.6976 -0.0964  1.3931
11385TIP3   OH255645   2.307   0.688  91.931  0.4792 -0.5179 -0.2696
11385TIP3    H155646   2.303   0.773  91.888 -0.5410 -0.4077  0.0078
11385TIP3    H255647   2.280   0.625  91.864 -1.1990 -0.3368  0.1821
11386TIP3   OH255648   1.810   1.828  28.493 -0.4660 -0.6555  0.8097
11386TIP3    H155649   1.885   1.792  28.446 -0.5553 -1.7678  1.4702
11386TIP3    H255650   1.848   1.864  28.573 -0.5575 -0.6119  0.8333
11387TIP3   OH255651   2.162   1.233  20.213  0.1071 -0.4946 -0.6989
11387TIP3    H155652   2.157   1.147  20.253 -1.6499 -0.7342 -1.3086
11387TIP3    H255653   2.079   1.242  20.165  0.7730  1.0271 -1.6720
11388TIP3   OH255654   0.578   0.107 110.357 -0.5255 -0.2175 -0.2683
11388TIP3    H155655   0.598   0.060 110.275  1.0341 -0.7397  0.3756
11388TIP3    H255656   0.534   0.187 110.328  0.3527 -0.1982 -1.6568
11389TIP3   OH255657   1.278   1.092   1.536  0.1093  0.2042  0.0448
11389TIP3    H155658   1.342   1.037   1.491 -0.1614  0.4424 -0.6400
11389TIP3    H255659   1.213   1.031   1.570  1.7733 -0.2965  2.6596
11390TIP3   OH255660   1.998   0.075  44.630  0.9034  0.4649 -0.1131
11390TIP3    H155661   2.031  -0.014  44.617  2.5254  0.7945  1.2774
11390TIP3    H255662   1.922   0.081  44.573 -0.2657 -2.3600  0.9194
11391TIP3   OH255663   0.668   0.383   4.250  0.1536 -0.5834 -0.0092
11391TIP3    H155664   0.581   0.383   4.290  0.7858 -1.0858  1.4107
11391TIP3    H255665   0.664   0.455   4.186 -0.6128  0.8916  1.5908
11392TIP3   OH255666   0.564   0.696  77.352 -0.0425 -0.1747 -0.4040
11392TIP3    H155667   0.500   0.681  77.422 -0.9050 -1.3342 -1.3982
11392TIP3    H255668   0.572   0.791  77.346  0.3479 -0.0521  1.5170
11393TIP3   OH255669   0.770   0.263  37.801 -0.2404 -0.4563  0.4517
11393TIP3    H155670   0.751   0.228  37.888  0.7361 -1.3633  0.3273
11393TIP3    H255671   0.865   0.256  37.793 -0.4165 -1.5967 -1.1670
11394TIP3   OH255672   0.054   1.437   3.965 -0.3813 -1.0182  0.1412
11394TIP3    H155673   0.103   1.367   4.009 -1.0948 -1.5958  0.0326
11394TIP3    H255674   0.043   1.405   3.875 -0.7770 -0.8031  0.1121
11395TIP3   OH255675   1.476   0.763 101.734  0.5530 -0.0622  0.6463
11395TIP3    H155676   1.452   0.696 101.799 -0.2355 -0.7987 -0.3798
11395TIP3    H255677   1.548   0.724 101.685  0.3358  0.0005  0.2801
11396TIP3   OH255678   0.610   1.099  35.800  0.2721 -1.2493 -0.8938
11396TIP3    H155679   0.621   1.038  35.872  1.1498 -0.1684 -0.0616
11396TIP3    H255680   0.516   1.098  35.781  0.2089 -2.4447 -0.5459
11397TIP3   OH255681   1.456   2.115  92.701 -0.0203  0.0422 -0.1680
11397TIP3    H155682   1.452   2.084  92.791 -1.8354 -0.6963 -0.4690
11397TIP3    H255683   1.440   2.209  92.707  0.4372  0.0971  0.3132
11398TIP3   OH255684   1.657   1.840  91.249 -0.1636 -0.1116 -0.2899
11398TIP3    H155685   1.746   1.808  91.258  0.1788  1.1850  1.3846
11398TIP3    H255686   1.658   1.891  91.168  0.5205 -0.4265 -0.4856
11399TIP3   OH255687   1.997   2.501  18.272  0.1179 -0.0900 -0.3738
11399TIP3    H155688   2.039   2.447  18.339 -0.4939 -0.1865 -0.0559
11399TIP3    H255689   1.947   2.566  18.321 -0.1922 -0.0488 -0.7363
11400TIP3   OH255690   0.243   1.694  15.426  0.5289 -0.1630 -0.1889
11400TIP3    H155691   0.247   1.737  15.341  0.0342  1.1175  0.4205
11400TIP3    H255692   0.257   1.764  15.489  1.6023 -1.2142  0.7740
11401TIP3   OH255693   1.538   2.353   1.325  0.1109  0.1587  0.3071
11401TIP3    H155694   1.568   2.401   1.248  0.0097 -0.7240 -0.2958
11401TIP3    H255695   1.459   2.398   1.353  0.6737  1.0713  0.4872
11402TIP3   OH255696   1.381   0.342   5.401  0.0925 -0.0555  0.0187
11402TIP3    H155697   1.314   0.323   5.336  1.5933  0.3108 -1.6936
11402TIP3    H255698   1.351   0.297   5.480 -2.2321  0.2456 -0.6225
11403TIP3   OH255699   1.057   1.656  14.885 -0.2467 -0.3951 -0.6032
11403TIP3    H155700   1.091   1.682  14.971 -1.0101  1.5824 -0.8462
11403TIP3    H255701   1.045   1.561  14.892  0.6839 -0.4281  1.1078
11404TIP3   OH255702   1.823   0.010  11.484  0.2246 -0.0945  0.8256
11404TIP3    H155703   1.832   0.093  11.530 -0.3111 -0.9015  2.4748
11404TIP3    H255704   1.851   0.028  11.395 -0.2893  1.9429  1.0436
11405TIP3   OH255705   2.439   0.182  93.234 -0.0717 -0.2874  0.5150
11405TIP3    H155706   2.464   0.207  93.145  0.9332  0.5543  1.0095
11405TIP3    H255707   2.459   0.260  93.287  0.2673 -1.0980  1.6277
11406TIP3   OH255708   0.264   2.248  20.832 -0.1430 -0.3708  0.1646
11406TIP3    H155709   0.253   2.162  20.792 -1.3301 -0.6047  0.9391
11406TIP3    H255710   0.358   2.265  20.828 -0.1284 -0.7856 -1.8367
11407TIP3   OH255711   2.143   1.803  99.501  0.1878 -0.0582  0.7473
11407TIP3    H155712   2.196   1.860  99.557 -0.2132 -0.8301  1.9385
11407TIP3    H255713   2.205   1.737  99.469  0.5104  0.6320 -0.1085
11408TIP3   OH255714   1.299   2.593  77.529 -0.2931  0.4410 -0.0757
11408TIP3    H155715   1.373   2.650  77.551  1.2923 -0.8049 -1.8596
11408TIP3    H255716   1.280   2.545  77.609  0.2488  1.3987  0.6454
11409TIP3   OH255717   1.861   1.751  35.300  0.3429 -0.3544  0.5346
11409TIP3    H155718   1.794   1.792  35.355  0.0848  0.4522 -0.3482
11409TIP3    H255719   1.944   1.787  35.331  0.0144  2.1938 -1.2641
11410TIP3   OH255720   2.488   2.418  26.293  0.4532  0.0584 -0.5774
11410TIP3    H155721   2.412   2.424  26.236 -0.2570  1.9533  0.4976
11410TIP3    H255722   2.538   2.498  26.276 -0.1425  1.0501  1.8892
11411TIP3   OH255723   2.311   0.556  83.406 -0.4471 -0.0346 -0.1121
11411TIP3    H155724   2.299   0.507  83.324 -0.9866  0.3471 -0.2761
11411TIP3    H255725   2.244   0.625  83.402  0.9077  1.3111 -0.3315
11412TIP3   OH255726   1.958   2.118  19.146 -0.1243 -0.2149 -0.1711
11412TIP3    H155727   1.993   2.048  19.201  0.9875  0.5128  0.0889
11412TIP3    H255728   1.981   2.092  19.057  2.7642  1.0606  0.0877
11413TIP3   OH255729   0.594   1.602  78.852 -0.4485 -0.0397  0.3290
11413TIP3    H155730   0.552   1.518  78.869 -2.1622  0.1880 -2.3033
11413TIP3    H255731   0.687   1.580  78.841 -0.8116 -1.5450  0.0162
11414TIP3   OH255732   1.161   1.967 110.641 -0.4640  0.5492 -0.5524
11414TIP3    H155733   1.196   1.942 110.727  0.6217 -0.4908 -1.2634
11414TIP3    H255734   1.068   1.945 110.646 -0.2653 -0.1873  0.1103
11415TIP3   OH255735   0.688   2.492   8.467  0.2960 -0.1058  0.1638
11415TIP3    H155736   0.596   2.518   8.469 -0.2295 -1.8597  0.2863
11415TIP3    H255737   0.692   2.422   8.402  1.1049 -1.5707  1.7123
11416TIP3   OH255738   1.246   1.546  25.879  0.2122 -0.0583 -0.2307
11416TIP3    H155739   1.268   1.471  25.823 -1.1910 -0.1572 -0.6825
11416TIP3    H255740   1.204   1.506  25.955 -0.8756  0.2875 -0.6447
11417TIP3   OH255741   2.150   0.900  90.729  0.1133 -0.2784  0.1205
11417TIP3    H155742   2.239   0.927  90.706 -0.1446  0.3590 -0.1775
11417TIP3    H255743   2.153   0.887  90.824 -0.2405  3.0313  0.7374
11418TIP3   OH255744   0.527   0.070 102.001  0.2297 -0.2944 -0.2626
11418TIP3    H155745   0.518  -0.024 102.013  0.8588 -0.4065 -0.6543
11418TIP3    H255746   0.565   0.081 101.914 -0.8708  0.3712 -0.6795
11419TIP3   OH255747   2.561   2.357  13.081 -0.0439  0.0727  0.0515
11419TIP3    H155748   2.614   2.288  13.042  0.6096  0.9159 -0.5803
11419TIP3    H255749   2.622   2.409  13.132 -0.6063 -0.0436  0.8666
11420TIP3   OH255750   0.328   0.890  27.693  0.0583  0.1791 -0.3572
11420TIP3    H155751   0.251   0.887  27.636  0.0753  0.3911 -0.3916
11420TIP3    H255752   0.301   0.843  27.772 -1.0833  2.6490  0.8234
11421TIP3   OH255753   2.608   0.627  88.505  0.8174  0.2364 -0.4160
11421TIP3    H155754   2.558   0.583  88.436 -0.4270  1.4049 -0.3146
11421TIP3    H255755   2.643   0.557  88.559 -0.0580 -0.6521 -0.9718
11422TIP3   OH255756   0.530   0.230  23.647  0.3463 -0.4851 -0.0066
11422TIP3    H155757   0.450   0.281  23.661  0.4915 -0.3067  0.1857
11422TIP3    H255758   0.500   0.139  23.642  0.1987 -0.4730  0.6540
11423TIP3   OH255759   0.897   1.506  98.669 -0.1550 -0.6536  0.4426
11423TIP3    H155760   0.861   1.464  98.591  2.1543  0.7282 -1.4928
11423TIP3    H255761   0.967   1.447  98.698  0.4974 -0.0862  0.0567
11424TIP3   OH255762   0.227   2.669  51.611 -0.4803 -0.1669  0.3759
11424TIP3    H155763   0.148   2.719  51.593  0.5457  1.2322 -0.4351
11424TIP3    H255764   0.268   2.658  51.525  1.9056  2.1168  1.1003
11425TIP3   OH255765   0.550   0.600   0.845  0.0418  0.2619 -0.1402
11425TIP3    H155766   0.552   0.575   0.937 -0.2937 -0.2327 -0.2654
11425TIP3    H255767   0.463   0.639   0.833 -0.0088  0.1002 -0.3050
11426TIP3   OH255768   1.407   2.495  14.178  0.0220  0.2729 -0.2843
11426TIP3    H155769   1.437   2.586  14.182  1.5193 -0.2175  0.1912
11426TIP3    H255770   1.415   2.463  14.267  1.5343 -0.9312 -0.8267
11427TIP3   OH255771   2.568   1.655   5.767  0.3195  0.3941 -0.5314
11427TIP3    H155772   2.585   1.732   5.713 -1.5486  1.4059  0.2152
11427TIP3    H255773   2.492   1.613   5.727 -1.6432  1.6323  1.6422
11428TIP3   OH255774   1.617   2.077 108.178  0.2739 -0.1969  0.0928
11428TIP3    H155775   1.672   2.001 108.194  2.5677  1.2433 -0.4724
11428TIP3    H255776   1.607   2.118 108.264  0.4261 -0.2587  0.1403
11429TIP3   OH255777   0.198   0.154  90.354 -0.1787 -0.0580  0.1514
11429TIP3    H155778   0.215   0.223  90.290 -0.6896  0.8477  0.9679
11429TIP3    H255779   0.272   0.158  90.414 -0.6123  0.3379  0.6689
11430TIP3   OH255780   1.456   0.642 100.230 -0.0467 -0.0171  0.0345
11430TIP3    H155781   1.540   0.596 100.238 -0.7500 -1.2510  0.5983
11430TIP3    H255782   1.456   0.677 100.141  0.9820 -0.1844 -0.0420
11431TIP3   OH255783   2.273   0.814  47.129 -0.0684  0.2755  0.4034
11431TIP3    H155784   2.217   0.843  47.057  1.4974 -0.8549 -1.3554
11431TIP3    H255785   2.320   0.893  47.156 -3.0409  1.5020  2.6125
11432TIP3   OH255786   2.452   0.772  75.777  0.9044 -0.1600  0.0299
11432TIP3    H155787   2.517   0.795  75.844 -0.0720  0.2837  0.8637
11432TIP3    H255788   2.481   0.818  75.698  0.6272  1.5676  0.8666
11433TIP3   OH255789   2.335   2.114  14.546 -0.1394  0.1880  0.0253
11433TIP3    H155790   2.349   2.204  14.519 -0.4206  0.3905  0.5449
11433TIP3    H255791   2.412   2.093  14.599 -0.3511  0.3071  0.3762
11434TIP3   OH255792   0.781   0.359  18.334  0.6210 -0.1353  0.0434
11434TIP3    H155793   0.860   0.397  18.371  0.0920  0.6707  0.3746
11434TIP3    H255794   0.734   0.433  18.296 -0.1918 -0.5266  0.2569
11435TIP3   OH255795   0.942   1.284  34.165 -0.1617  0.1862  0.5433
11435TIP3    H155796   0.893   1.333  34.231  0.5130 -0.7548  1.7594
11435TIP3    H255797   0.916   1.193  34.177 -1.1573  0.1304 -1.4873
11436TIP3   OH255798   0.446   1.657  20.893 -0.1849 -0.3501  0.3119
11436TIP3    H155799   0.438   1.580  20.949  3.3865 -1.0515  0.0923
11436TIP3    H255800   0.446   1.622  20.804 -2.2016  0.3963 -0.0501
11437TIP3   OH255801   0.157   2.458  90.135  0.5728  0.0010 -0.0218
11437TIP3    H155802   0.212   2.403  90.079  0.6556 -1.8155  1.6942
11437TIP3    H255803   0.099   2.396  90.179  0.7005  1.2645  2.0723
11438TIP3   OH255804   2.377   2.314  88.327  0.1662 -0.3857 -0.6255
11438TIP3    H155805   2.285   2.308  88.299 -0.7047 -0.2911  1.8938
11438TIP3    H255806   2.381   2.398  88.374  1.2827 -0.8587  0.1480
11439TIP3   OH255807   0.742   1.687  69.793 -1.0449  0.0188 -0.4236
11439TIP3    H155808   0.831   1.686  69.757 -2.0269  0.1907 -3.0478
11439TIP3    H255809   0.745   1.625  69.866  1.0815 -0.3708 -0.7742
11440TIP3   OH255810   2.621   1.688  19.889 -0.3488 -0.3209 -0.7280
11440TIP3    H155811   2.616   1.775  19.928 -0.9235 -0.0388 -1.4035
11440TIP3    H255812   2.530   1.668  19.865 -0.6115 -2.0039  1.3060
11441TIP3   OH255813   2.303   0.237  95.408 -0.1795  0.7350  0.4490
11441TIP3    H155814   2.362   0.301  95.447  0.4526  0.7352 -0.4873
11441TIP3    H255815   2.346   0.153  95.422  0.3060  0.7818 -0.6782
11442TIP3   OH255816   0.589   0.049  21.924 -0.7019  0.0537 -0.5334
11442TIP3    H155817   0.528   0.027  21.994 -0.8836  2.4442  0.1744
11442TIP3    H255818   0.561   0.137  21.896  1.3936  0.5175 -1.3332
11443TIP3   OH255819   0.377   0.629  81.434 -0.0371  0.2136  0.5835
11443TIP3    H155820   0.392   0.544  81.475 -1.2772  0.5269  1.7500
11443TIP3    H255821   0.293   0.658  81.469 -0.5651  1.0721 -1.2596
11444TIP3   OH255822   2.509   1.275 106.917 -0.4063 -0.5253 -0.6471
11444TIP3    H155823   2.426   1.247 106.880 -0.7438 -0.8762  0.3675
11444TIP3    H255824   2.563   1.196 106.919 -0.6213 -0.6565  0.2247
11445TIP3   OH255825   1.775   2.236  17.881  0.1937 -0.2240 -0.6278
11445TIP3    H155826   1.828   2.301  17.928 -1.1101  0.1507  0.3706
11445TIP3    H255827   1.780   2.263  17.790 -0.6007  1.5314 -0.2009
11446TIP3   OH255828   2.593   1.273  12.311 -0.0059  0.2442  0.1047
11446TIP3    H155829   2.553   1.187  12.300 -0.1552  0.1594  1.1894
11446TIP3    H255830   2.577   1.295  12.403  0.2751  1.3071 -0.0892
11447TIP3   OH255831   0.038   2.553  35.593  0.2703 -0.4900  0.3229
11447TIP3    H155832  -0.040   2.600  35.563  0.6548  0.7844  1.2187
11447TIP3    H255833   0.099   2.560  35.520  0.3976  0.6323  0.5152
11448TIP3   OH255834   1.769   0.609  58.132  0.0731 -0.4758 -0.3167
11448TIP3    H155835   1.723   0.538  58.177  0.4156 -0.2221  0.4532
11448TIP3    H255836   1.850   0.569  58.101 -0.1858 -0.6639 -0.7581
11449TIP3   OH255837   0.286   2.194  30.196  0.0780 -0.3755 -0.0825
11449TIP3    H155838   0.346   2.266  30.219 -0.7986  1.0896 -2.0474
11449TIP3    H255839   0.343   2.117  30.190  1.4194  0.5486  0.1679
11450TIP3   OH255840   1.732   2.247  17.595 -0.2806 -0.5311  0.3641
11450TIP3    H155841   1.758   2.155  17.592  0.1011 -0.4332  0.5888
11450TIP3    H255842   1.637   2.245  17.599 -0.5468 -0.8718 -3.1849
11451TIP3   OH255843   0.879   1.434  76.594  0.3313 -0.0786 -0.1315
11451TIP3    H155844   0.791   1.397  76.599 -1.2152  3.1143 -0.9665
11451TIP3    H255845   0.932   1.366  76.553 -1.4841 -2.4268  1.1962
11452TIP3   OH255846   0.287   0.871  93.923  0.7333  0.0056  0.0319
11452TIP3    H155847   0.265   0.833  93.838 -1.7898  0.3539  0.4281
11452TIP3    H255848   0.267   0.802  93.986  2.7594 -0.3130  0.3869
11453TIP3   OH255849   0.997   1.072  23.895 -0.2253 -0.0474  0.3744
11453TIP3    H155850   0.912   1.055  23.936 -2.1853  0.0866 -3.2267
11453TIP3    H255851   0.989   1.161  23.859  0.5606 -0.7840 -1.7900
11454TIP3   OH255852   0.604   0.710 104.679  0.3073  0.7807 -0.4318
11454TIP3    H155853   0.538   0.704 104.748 -1.0502  0.8634 -1.6595
11454TIP3    H255854   0.683   0.742 104.723 -0.4477  0.6411  1.0964
11455TIP3   OH255855   0.518   1.193  85.652  0.0120  0.6016 -0.4707
11455TIP3    H155856   0.489   1.102  85.647  1.9838 -0.1711  1.0900
11455TIP3    H255857   0.450   1.237  85.703 -0.9145  0.0244 -1.1705
11456TIP3   OH255858   1.355   1.091  23.417 -0.3505 -0.2917 -0.0209
11456TIP3    H155859   1.341   0.997  23.405 -0.5428 -0.2231 -0.3602
11456TIP3    H255860   1.438   1.108  23.372 -0.3826 -0.2783 -0.0751
11457TIP3   OH255861   1.743   0.839  84.632  0.1735  0.5044 -0.0545
11457TIP3    H155862   1.667   0.806  84.678  0.1790  0.4820 -0.0610
11457TIP3    H255863   1.721   0.929  84.609  0.1902  0.5318  0.0387
11458TIP3   OH255864   1.972   2.371  11.607  0.9146  0.1209 -0.2100
11458TIP3    H155865   1.939   2.461  11.599  0.2695 -0.2008 -1.3043
11458TIP3    H255866   1.994   2.362  11.700 -1.3341  0.6254  0.4192
11459TIP3   OH255867   1.829   0.877  86.625  0.6184 -0.0365 -0.1494
11459TIP3    H155868   1.858   0.912  86.709  1.4614 -1.6297  0.2729
11459TIP3    H255869   1.894   0.909  86.562  0.4843  0.4433 -0.0497
11460TIP3   OH255870   1.273   0.336 106.558 -0.1028  0.0455 -0.0468
11460TIP3    H155871   1.307   0.317 106.646  0.5571  0.2185 -0.2583
11460TIP3    H255872   1.178   0.335 106.568 -0.0470 -0.7202  0.5065
11461TIP3   OH255873   2.217   0.325  74.514 -0.1524  0.1867  0.5411
11461TIP3    H155874   2.189   0.312  74.423  2.2070  0.3306 -0.2786
11461TIP3    H255875   2.205   0.418  74.530 -2.5885 -0.1559  1.1875
11462TIP3   OH255876   0.716   1.640 100.916 -0.1636  0.3305 -0.0207
11462TIP3    H155877   0.736   1.557 100.874  0.9754  0.7662 -0.3934
11462TIP3    H255878   0.800   1.668 100.953 -1.0744 -0.0013  2.5226
11463TIP3   OH255879   2.563   2.460  84.917  0.2728 -0.0106  0.0403
11463TIP3    H155880   2.609   2.435  84.837  0.4268  2.0593 -0.5517
11463TIP3    H255881   2.623   2.436  84.987  0.9569 -0.1165 -0.5616
11464TIP3   OH255882   1.372   1.719  18.904  0.6138  0.3213 -0.0590
11464TIP3    H155883   1.372   1.759  18.817 -0.9553 -0.3411 -0.4066
11464TIP3    H255884   1.329   1.783  18.960  2.3525  1.0945  0.4343
11465TIP3   OH255885   1.081   1.520  96.908  0.3834  0.5710  0.1041
11465TIP3    H155886   1.087   1.426  96.891 -0.2012  0.4824  0.3483
11465TIP3    H255887   1.170   1.553  96.893  0.5034  0.0499 -0.3881
11466TIP3   OH255888   0.565   1.320 102.539 -0.2798 -0.1638 -0.2748
11466TIP3    H155889   0.587   1.382 102.470  1.1033 -1.1157 -0.7190
11466TIP3    H255890   0.557   1.374 102.618 -0.9574  0.8080 -0.9755
11467TIP3   OH255891   2.402   0.044  28.828  0.0424 -0.3037 -0.0873
11467TIP3    H155892   2.408   0.014  28.919 -0.8630  0.6187  0.2954
11467TIP3    H255893   2.484   0.092  28.814  0.6826 -1.3875 -0.1271
11468TIP3   OH255894   2.330   1.881  16.746  0.0147 -0.3374  0.4171
11468TIP3    H155895   2.417   1.859  16.780 -0.0851 -0.4910  0.5759
11468TIP3    H255896   2.292   1.796  16.724 -0.2148 -0.2893  0.6366
11469TIP3   OH255897   0.212   1.345   9.595  0.3053  0.0874  0.0198
11469TIP3    H155898   0.288   1.293   9.568 -0.7543 -1.3416 -0.3710
11469TIP3    H255899   0.164   1.360   9.513 -1.0415 -1.1008  0.5476
11470TIP3   OH255900   1.826   0.768  47.728  0.4137 -0.6254  0.0163
11470TIP3    H155901   1.811   0.787  47.821 -3.3609  1.1559 -0.7337
11470TIP3    H255902   1.794   0.679  47.716 -1.1119 -0.1319  0.1523
11471TIP3   OH255903   0.467   0.628  90.269  0.4649  0.3463  0.2498
11471TIP3    H155904   0.478   0.600  90.360  1.2897 -0.8234 -0.1847
11471TIP3    H255905   0.497   0.553  90.218  0.1155  1.0370 -0.9925
11472TIP3   OH255906   0.189   0.232 110.210 -0.4595 -0.0679 -0.3544
11472TIP3    H155907   0.103   0.197 110.234 -1.8180  2.8892 -0.4446
11472TIP3    H255908   0.225   0.265 110.293 -1.6123  2.9696 -0.9571
11473TIP3   OH255909   0.152   0.057   8.128  0.4781  0.6455  0.1514
11473TIP3    H155910   0.209   0.128   8.159 -0.2846  0.6513  1.6151
11473TIP3    H255911   0.212  -0.015   8.109  0.9597  0.3791  2.4465
11474TIP3   OH255912   0.315   1.180  21.551  0.2166  0.0519 -0.2380
11474TIP3    H155913   0.220   1.164  21.554  0.1046  0.2931 -1.7458
11474TIP3    H255914   0.332   1.239  21.624 -0.6075 -0.8721  0.7267
11475TIP3   OH255915   0.475   1.929  26.179 -0.3887 -0.3462  0.1295
11475TIP3    H155916   0.432   1.852  26.142 -0.3757 -0.1507 -0.3084
11475TIP3    H255917   0.403   1.982  26.214 -0.5023 -0.0815 -0.4836
11476TIP3   OH255918   2.390   0.058   3.526  0.1854 -0.1270  0.1827
11476TIP3    H155919   2.306   0.097   3.500  0.8881 -0.1224 -2.2758
11476TIP3    H255920   2.368  -0.030   3.554 -0.5682 -0.4742 -1.3931
11477TIP3   OH255921   2.429   0.946  95.886 -0.3880 -0.6644  0.3765
11477TIP3    H155922   2.381   1.002  95.824  0.3716 -0.2994  0.1144
11477TIP3    H255923   2.467   0.878  95.831 -0.0314 -0.5579  0.4867
11478TIP3   OH255924   0.876   0.405  10.087  0.4725  0.9815  0.3955
11478TIP3    H155925   0.915   0.492  10.091  0.8885  0.8081  0.1423
11478TIP3    H255926   0.792   0.418  10.042  1.0869  1.0653 -0.7706
11479TIP3   OH255927   0.304   0.076  24.716 -0.1628 -0.1543  0.1077
11479TIP3    H155928   0.254   0.036  24.787  1.3645 -0.2480  1.1834
11479TIP3    H255929   0.382   0.022  24.708  0.4548  0.7923 -0.5417
11480TIP3   OH255930   0.491   0.403  95.122  0.1525 -0.0855 -0.0807
11480TIP3    H155931   0.470   0.453  95.201  0.4076  1.2646 -0.8494
11480TIP3    H255932   0.409   0.358  95.099 -1.5870  3.6314 -1.9786
11481TIP3   OH255933   0.046   1.650  15.617 -0.1057 -0.3688 -0.3168
11481TIP3    H155934  -0.034   1.598  15.626  0.5020 -1.6419 -1.8917
11481TIP3    H255935   0.084   1.622  15.534  1.7357  0.5635  0.1616
11482TIP3   OH255936   1.034   1.850  73.472  0.0579 -0.0389 -0.6713
11482TIP3    H155937   1.124   1.839  73.502 -0.0062 -0.8808 -0.7913
11482TIP3    H255938   1.005   1.763  73.447 -0.1674  0.5111 -2.4379
11483TIP3   OH255939   0.604   2.572  27.323  0.3352  0.0181 -0.2628
11483TIP3    H155940   0.534   2.616  27.372 -0.0267 -0.4331 -0.3653
11483TIP3    H255941   0.665   2.543  27.390 -0.6821 -1.5315  0.0475
11484TIP3   OH255942   1.085   2.110  36.992 -0.0462 -0.4417  0.0849
11484TIP3    H155943   1.072   2.142  37.081  2.7575  0.0408  0.4260
11484TIP3    H255944   1.089   2.014  37.001  2.1292 -0.3366  0.8823
11485TIP3   OH255945   1.254   2.588 100.408  0.0530  0.0473  0.0963
11485TIP3    H155946   1.220   2.566 100.321 -0.5453  0.1568  0.2962
11485TIP3    H255947   1.229   2.679 100.422  3.2332  1.2145 -1.0675
11486TIP3   OH255948   1.343   1.087   8.371 -0.1625  0.0243 -0.0040
11486TIP3    H155949   1.321   1.172   8.333 -0.1142  0.1339  0.2134
11486TIP3    H255950   1.340   1.101   8.466  1.8699  0.3331  0.0581
11487TIP3   OH255951   1.601   1.071  36.523 -0.0174 -0.3705 -0.6468
11487TIP3    H155952   1.691   1.038  36.521 -0.1388 -0.7222 -0.4769
11487TIP3    H255953   1.567   1.043  36.608  0.2139  1.1371 -0.0267
11488TIP3   OH255954   2.468   2.657  19.924  0.7247 -0.1941  0.1055
11488TIP3    H155955   2.535   2.718  19.892  0.3947 -0.3414 -0.8946
11488TIP3    H255956   2.456   2.594  19.853  0.2637 -0.7798  0.6892
11489TIP3   OH255957   1.996   1.362  97.210  0.6527  0.5350  0.4282
11489TIP3    H155958   1.991   1.296  97.279 -0.8462  1.8788  1.7058
11489TIP3    H255959   2.063   1.423  97.240  1.4119  0.0937 -0.3167
11490TIP3   OH255960   2.314   1.438 107.947  0.0479 -0.9230 -0.0534
11490TIP3    H155961   2.350   1.359 107.907  1.5446 -0.6421  0.6762
11490TIP3    H255962   2.391   1.488 107.975 -0.8762  0.5233  0.0285
11491TIP3   OH255963   0.074   2.040  92.078 -0.2957  0.3536 -0.1155
11491TIP3    H155964   0.024   2.074  92.003 -0.0585 -0.7837 -0.8052
11491TIP3    H255965   0.141   1.984  92.039 -0.4357 -0.6000  0.9691
11492TIP3   OH255966   0.982   0.716  85.246  0.0405  0.2891 -0.2340
11492TIP3    H155967   0.895   0.738  85.214 -0.2432 -1.0241 -0.4114
11492TIP3    H255968   1.018   0.799  85.278 -1.1190  0.9124 -0.5145
11493TIP3   OH255969   0.016   2.589  10.358 -0.1351 -0.3797 -0.4008
11493TIP3    H155970  -0.017   2.636  10.434 -0.9661 -0.7872 -0.4978
11493TIP3    H255971   0.056   2.510  10.394  1.1664  0.3228 -0.2471
11494TIP3   OH255972   1.667   0.811  78.424 -0.2039 -0.1219 -0.1516
11494TIP3    H155973   1.590   0.846  78.468  0.4683 -0.3235  1.2324
11494TIP3    H255974   1.683   0.726  78.465  2.7067  1.3113  2.1045
11495TIP3   OH255975   1.268   1.586  18.461 -0.5836  0.1636  0.2351
11495TIP3    H155976   1.318   1.509  18.487 -0.1251  0.5055  0.3765
11495TIP3    H255977   1.313   1.659  18.503 -1.3233  0.4552  0.5276
11496TIP3   OH255978   0.606   1.240  90.585  0.4510 -0.2317  0.2924
11496TIP3    H155979   0.696   1.236  90.551 -0.6557 -2.3373 -2.8793
11496TIP3    H255980   0.600   1.327  90.625  3.7360  0.1688  0.2333
11497TIP3   OH255981   1.775   0.424  94.349  0.5834  0.0079 -0.0149
11497TIP3    H155982   1.853   0.412  94.295  0.5917 -1.4846  0.2800
11497TIP3    H255983   1.760   0.338  94.389  1.0169  1.2076  2.9702
11498TIP3   OH255984   1.703   1.206  13.562 -0.2302 -0.7975  0.1487
11498TIP3    H155985   1.698   1.296  13.529 -0.8347 -0.2302  1.6895
11498TIP3    H255986   1.673   1.152  13.489  1.4712  0.1050 -1.3021
11499TIP3   OH255987   0.383   1.640  12.645 -0.1951 -0.0801  0.6821
11499TIP3    H155988   0.452   1.638  12.579 -0.5384 -2.2095  0.3166
11499TIP3    H255989   0.421   1.688  12.719  0.7799  0.8798 -0.4153
11500TIP3   OH255990   0.461   1.095  20.852  0.4834  0.5958  0.0118
11500TIP3    H155991   0.556   1.108  20.849  0.2954  2.4019  0.9559
11500TIP3    H255992   0.446   1.052  20.936  0.3952  0.9161  0.1585
11501TIP3   OH255993   0.007   0.541  40.323  0.0783 -0.1052 -0.2574
11501TIP3    H155994   0.062   0.580  40.391  0.2195  0.9423 -0.9493
11501TIP3    H255995  -0.081   0.543  40.360  0.1365  0.5596 -0.1453
11502TIP3   OH255996   0.734   1.150  20.278  0.1024 -0.2343  0.8975
11502TIP3    H155997   0.648   1.172  20.314 -0.0253 -1.6160  1.5343
11502TIP3    H255998   0.792   1.148  20.354  0.5024 -0.1631  0.5943
11503TIP3   OH255999   0.171   2.571  84.828  0.0297  0.4549  0.3282
11503TIP3    H156000   0.135   2.606  84.910  0.6518  0.3497  0.6524
11503TIP3    H256001   0.249   2.522  84.855  1.8754  2.7228 -0.5710
11504TIP3   OH256002   0.947   2.300   6.728 -0.3429 -0.2948 -0.1295
11504TIP3    H156003   0.905   2.385   6.744 -0.5466 -0.2372 -0.9484
11504TIP3    H256004   0.875   2.237   6.727 -0.2011 -0.4721  0.3796
11505TIP3   OH256005   2.669   0.400  99.988  0.4231  0.3644 -0.0806
11505TIP3    H156006   2.714   0.317 100.002  0.7542  0.6467  0.5820
11505TIP3    H256007   2.581   0.375  99.960  0.0437 -0.2674  1.5249
11506TIP3   OH256008   2.591   0.063   3.741 -0.4874 -0.0788 -0.4532
11506TIP3    H156009   2.669   0.109   3.709 -0.6394 -0.4627 -1.4192
11506TIP3    H256010   2.531   0.064   3.666 -2.3103  2.0938  0.8895
11507TIP3   OH256011   0.239   0.846  81.155 -0.1024  0.2103  0.5389
11507TIP3    H156012   0.288   0.870  81.234 -2.2637  1.4694  1.6125
11507TIP3    H256013   0.185   0.771  81.183 -1.1736  0.9161  0.4242
11508TIP3   OH256014   0.843   0.748  18.089  0.3689  0.0483 -0.0428
11508TIP3    H156015   0.936   0.727  18.079  0.7118  0.8725  1.2544
11508TIP3    H256016   0.842   0.837  18.124 -0.8787 -0.3236  0.9406
11509TIP3   OH256017   2.051   2.028  38.077 -0.0220 -0.9399  0.2481
11509TIP3    H156018   2.136   2.025  38.033  0.2455 -0.5427  0.7279
11509TIP3    H256019   2.035   1.937  38.104 -0.9524 -1.5260 -2.0590
11510TIP3   OH256020   1.854   1.749  78.572  0.4714  0.4027 -0.0801
11510TIP3    H156021   1.876   1.660  78.545  0.5475 -0.0519  1.4162
11510TIP3    H256022   1.916   1.804  78.524  1.0058 -0.4129 -0.3432
11511TIP3   OH256023   0.014   0.312  31.821  0.5505 -0.0076  0.0946
11511TIP3    H156024   0.019   0.219  31.842  0.6044 -0.0822 -0.2464
11511TIP3    H256025   0.093   0.350  31.859 -0.3212  0.2107  1.7816
11512TIP3   OH256026   1.584   2.452  47.132  0.1039 -0.0676 -0.1960
11512TIP3    H156027   1.677   2.431  47.126  0.3067  0.6784  0.2854
11512TIP3    H256028   1.540   2.367  47.123  0.8570 -0.5387  0.4251
11513TIP3   OH256029   1.671   2.429   5.312 -0.4344 -0.0393 -0.1129
11513TIP3    H156030   1.648   2.429   5.405  0.3915 -0.1953  0.1001
11513TIP3    H256031   1.589   2.409   5.267 -1.0497  0.9905  0.5239
11514TIP3   OH256032   0.136   1.196  91.961  0.2253 -0.0398  0.0640
11514TIP3    H156033   0.149   1.153  91.876 -1.2479 -0.2295 -0.0778
11514TIP3    H256034   0.050   1.167  91.990  0.6158  0.2006  1.5357
11515TIP3   OH256035   1.185   0.108  27.280  0.1320 -0.3456 -0.0134
11515TIP3    H156036   1.277   0.097  27.256  0.1192 -0.0096 -0.2233
11515TIP3    H256037   1.187   0.126  27.374  0.1941 -1.4582  0.2134
11516TIP3   OH256038   0.969   2.452  34.873  0.0075  0.1557 -0.2625
11516TIP3    H156039   0.914   2.398  34.816 -0.2834 -0.5094  0.6304
11516TIP3    H256040   0.926   2.537  34.873  0.0298  0.1752 -1.0578
11517TIP3   OH256041   1.888   2.547  78.260  0.0468 -0.0164  0.1393
11517TIP3    H156042   1.849   2.635  78.259  4.7320  2.3731  0.7891
11517TIP3    H256043   1.879   2.519  78.351 -1.1116 -0.0757  0.0216
11518TIP3   OH256044   1.496   1.624  98.620  0.0659  0.4428 -0.3122
11518TIP3    H156045   1.425   1.687  98.631  0.5130  1.0149 -0.6344
11518TIP3    H256046   1.541   1.623  98.705 -0.8180 -0.5553  0.1683
11519TIP3   OH256047   2.546   1.449  35.118  0.1164  0.4796 -0.0601
11519TIP3    H156048   2.476   1.474  35.058  1.1319 -0.0822 -1.5406
11519TIP3    H256049   2.509   1.378  35.171 -0.3869  0.0827 -0.9237
11520TIP3   OH256050   0.437   2.232  82.011 -0.2920  0.2402  0.1504
11520TIP3    H156051   0.370   2.172  81.978 -0.9835  0.9303  0.2730
11520TIP3    H256052   0.441   2.216  82.105 -0.8449  0.7286  0.2649
11521TIP3   OH256053   2.513   1.047  32.357  0.0811 -0.1320  0.1427
11521TIP3    H156054   2.496   1.139  32.376  0.4242  0.1386 -0.8031
11521TIP3    H256055   2.570   1.018  32.428 -0.1485  0.3439  0.5223
11522TIP3   OH256056   1.676   1.288  34.288  0.2495  0.2388 -0.0237
11522TIP3    H156057   1.683   1.192  34.282  1.9517  0.3923 -0.9851
11522TIP3    H256058   1.582   1.304  34.295 -0.1345 -1.4591 -0.7043
11523TIP3   OH256059   1.096   1.500  63.867 -0.4264  0.0704 -0.1681
11523TIP3    H156060   1.087   1.591  63.893 -1.9706 -0.0276 -0.2497
11523TIP3    H256061   1.142   1.458  63.939 -0.4383  0.7475  0.2371
11524TIP3   OH256062   0.888   1.831  83.731  0.1199  0.0081  0.1006
11524TIP3    H156063   0.799   1.865  83.745  0.6048  1.2265  0.2562
11524TIP3    H256064   0.881   1.776  83.653 -0.7168  0.2925 -0.0318
11525TIP3   OH256065   2.111   0.525  17.552  0.1344  0.5440 -0.3999
11525TIP3    H156066   2.194   0.478  17.550  0.5457  1.2731 -0.8878
11525TIP3    H256067   2.134   0.616  17.533 -0.9801  0.4667 -2.3246
11526TIP3   OH256068   1.396   0.542  20.827  0.3039  0.8725 -0.2781
11526TIP3    H156069   1.399   0.612  20.892  1.2738 -0.0424  0.6989
11526TIP3    H256070   1.487   0.510  20.822 -0.1062 -0.2592 -0.7623
11527TIP3   OH256071   1.127   0.461  79.817 -0.3544  0.5045 -0.4226
11527TIP3    H156072   1.197   0.400  79.792 -0.8297 -1.0481  1.8051
11527TIP3    H256073   1.068   0.461  79.742  1.6881  1.4736 -2.1577
11528TIP3   OH256074   0.389   1.370   5.261  0.1411 -0.3604 -0.2720
11528TIP3    H156075   0.404   1.297   5.321  0.7833 -0.3770 -0.4459
11528TIP3    H256076   0.421   1.338   5.176  2.1826  0.7702  0.0227
11529TIP3   OH256077   0.818   0.526   4.776 -0.2419 -0.3956  0.0585
11529TIP3    H156078   0.775   0.528   4.862 -1.7759  0.5990 -0.6866
11529TIP3    H256079   0.873   0.605   4.776  1.4638 -1.5275  0.9094
11530TIP3   OH256080   0.224   2.590  33.464 -0.8590  0.4626  0.2992
11530TIP3    H156081   0.229   2.509  33.514  0.7493  1.0112  1.1139
11530TIP3    H256082   0.304   2.592  33.412 -1.8849  0.5403 -1.3404
11531TIP3   OH256083   2.039   2.647   5.365 -0.2102  0.2724  0.1934
11531TIP3    H156084   2.063   2.687   5.282  0.6241  1.2129  0.8598
11531TIP3    H256085   1.946   2.667   5.376 -0.1798  0.6652 -0.2405
11532TIP3   OH256086   0.378   1.156  90.447  0.2549 -0.0727 -0.5400
11532TIP3    H156087   0.449   1.204  90.489 -0.7128  0.1183  0.9613
11532TIP3    H256088   0.383   1.182  90.355  1.6526  0.5059 -0.3341
11533TIP3   OH256089   1.362   2.473  84.414  0.4964 -0.2337  0.3779
11533TIP3    H156090   1.369   2.439  84.503  1.2589  0.9446  0.7898
11533TIP3    H256091   1.375   2.397  84.358  3.2468 -0.5068  1.2489
11534TIP3   OH256092   2.486   1.327 110.583 -0.1406  0.1340  0.0515
11534TIP3    H156093   2.458   1.236 110.594 -0.3230  0.0029 -1.3307
11534TIP3    H256094   2.581   1.323 110.583 -0.1410 -0.1818 -0.7784
11535TIP3   OH256095   0.497   2.404  84.037 -0.7394  0.3634  0.1341
11535TIP3    H156096   0.417   2.457  84.043 -0.8001  0.9921 -3.7649
11535TIP3    H256097   0.568   2.467  84.034 -0.2655 -0.0965  1.2544
11536TIP3   OH256098   1.924   1.989  91.448 -0.5706  0.2797  0.2301
11536TIP3    H156099   1.896   2.071  91.488  0.3279  1.1744 -0.8857
11536TIP3    H256100   1.989   2.015  91.382 -0.3773 -1.3121 -0.2710
11537TIP3   OH256101   2.363   1.667  87.219  0.4364  0.0995  0.3868
11537TIP3    H156102   2.443   1.669  87.166 -0.6744 -0.1764 -1.3679
11537TIP3    H256103   2.380   1.728  87.291  2.4263 -0.3837  0.3823
11538TIP3   OH256104   2.195   0.125 107.734 -0.1732  0.1386  0.0997
11538TIP3    H156105   2.129   0.145 107.668  0.1209  0.8840  0.0201
11538TIP3    H256106   2.152   0.062 107.793 -0.7503  0.1814 -0.2695
11539TIP3   OH256107   1.650   0.598  33.083  0.1468 -0.1764 -0.4924
11539TIP3    H156108   1.669   0.516  33.037  1.3857  0.1355 -0.5709
11539TIP3    H256109   1.650   0.573  33.176  0.0827 -0.3502 -0.5379
11540TIP3   OH256110   0.766   0.600  12.094  0.2059 -0.2635 -0.3172
11540TIP3    H156111   0.773   0.645  12.010 -0.8226 -0.6577 -0.6255
11540TIP3    H256112   0.798   0.512  12.077 -0.1327 -0.3853 -0.3393
11541TIP3   OH256113   0.067   2.133  33.552  0.2900 -0.1160  0.4314
11541TIP3    H156114  -0.023   2.121  33.521  0.4757  0.0186 -0.1701
11541TIP3    H256115   0.081   2.061  33.614  0.1132 -0.7453 -0.2555
11542TIP3   OH256116   1.574   2.071  45.124 -0.1495  0.1193  0.2571
11542TIP3    H156117   1.559   1.985  45.162 -0.2064  0.8793  2.0436
11542TIP3    H256118   1.633   2.114  45.186  0.0148  1.3089 -0.6907
11543TIP3   OH256119   0.512   0.993 106.416  0.2164 -0.2198 -0.6371
11543TIP3    H156120   0.540   1.082 106.394 -0.0516 -0.1865 -0.8399
11543TIP3    H256121   0.524   0.943 106.336 -1.1016 -0.0141 -0.9785
11544TIP3   OH256122   0.134   2.029  79.407 -0.2765  0.2742  0.1142
11544TIP3    H156123   0.048   2.029  79.450  0.0318  0.9511  0.7587
11544TIP3    H256124   0.170   2.115  79.426  1.0548 -0.4300  0.8988
11545TIP3   OH256125   0.736   1.854  37.406  0.3060 -0.0958  0.4540
11545TIP3    H156126   0.764   1.889  37.491 -1.1718 -1.7927  1.7218
11545TIP3    H256127   0.736   1.930  37.348 -2.4067  2.1139  2.9615
11546TIP3   OH256128   1.114   1.142  73.582 -0.2831 -0.2488  0.0550
11546TIP3    H156129   1.191   1.136  73.525  0.9662  0.6471  1.5905
11546TIP3    H256130   1.076   1.227  73.561  0.0437 -0.0178  0.4053
11547TIP3   OH256131   0.702   1.907 110.467 -0.0927 -0.3182 -0.4773
11547TIP3    H156132   0.610   1.934 110.477 -0.1406 -0.8961  0.9401
11547TIP3    H256133   0.698   1.818 110.433 -0.0308 -0.0472 -1.2011
11548TIP3   OH256134   0.331   2.070 100.653  0.1848  0.2978 -0.1469
11548TIP3    H156135   0.396   2.011 100.691 -0.3092 -0.4355 -0.4155
11548TIP3    H256136   0.357   2.078 100.561 -0.7181 -0.8845 -0.5240
11549TIP3   OH256137   1.037   2.586  92.728 -0.5888 -0.2624 -0.4318
11549TIP3    H156138   1.119   2.542  92.751 -0.2052  1.1919  1.2464
11549TIP3    H256139   1.009   2.628  92.809 -1.0777  2.3059 -1.8260
11550TIP3   OH256140   2.578   0.111  81.971  0.2712 -1.0254  0.3279
11550TIP3    H156141   2.616   0.030  82.004 -0.0359 -2.1021 -1.7984
11550TIP3    H256142   2.503   0.083  81.918  1.2787  0.4339 -2.0773
11551TIP3   OH256143   2.311   0.898  12.346  0.1216  0.0170 -0.1655
11551TIP3    H156144   2.229   0.888  12.297  0.5357 -0.9579 -0.7010
11551TIP3    H256145   2.306   0.832  12.415  0.0344  0.6241  0.4127
11552TIP3   OH256146   0.086   1.270  23.575 -0.0874 -0.2026 -0.1779
11552TIP3    H156147   0.067   1.329  23.503  0.1548  0.3716  0.2288
11552TIP3    H256148   0.123   1.192  23.533  1.9316  0.8976 -0.5398
11553TIP3   OH256149   2.152   1.251 108.720 -0.4639 -0.1791  0.1769
11553TIP3    H156150   2.243   1.232 108.744 -0.5106 -0.9268 -0.2127
11553TIP3    H256151   2.106   1.169 108.734 -1.0696  0.1850  0.3145
11554TIP3   OH256152   0.426   0.022  10.196 -0.1127 -0.3490  0.5800
11554TIP3    H156153   0.496   0.084  10.217 -0.2577  0.1658 -0.3876
11554TIP3    H256154   0.417  -0.032  10.275  0.8114  0.1050  1.0132
11555TIP3   OH256155   2.172   0.581 108.655  0.1352 -0.4281 -0.0492
11555TIP3    H156156   2.192   0.596 108.562 -0.7738  0.8192 -0.0765
11555TIP3    H256157   2.242   0.626 108.702  0.0892 -0.2643 -0.1331
11556TIP3   OH256158   1.877   0.452  76.693 -0.2813  0.0246 -0.0115
11556TIP3    H156159   1.904   0.501  76.771  0.6544 -0.6582  0.1089
11556TIP3    H256160   1.825   0.380  76.727 -1.0870  0.5382 -0.1324
11557TIP3   OH256161   2.273   1.776  13.459  0.0536 -0.4123  0.2665
11557TIP3    H156162   2.286   1.725  13.539  0.4020 -0.9982 -0.1621
11557TIP3    H256163   2.215   1.723  13.405 -0.6790  0.2546  0.3729
11558TIP3   OH256164   0.521   1.904  84.217 -0.0954  0.4628  0.4043
11558TIP3    H156165   0.592   1.841  84.228 -1.1398 -1.1684 -1.4235
11558TIP3    H256166   0.461   1.861  84.156 -2.7858  1.6437  2.0247
11559TIP3   OH256167   2.552   2.378   3.542  0.1215 -0.1165 -0.0363
11559TIP3    H156168   2.543   2.351   3.451  0.6939  1.1622 -0.4916
11559TIP3    H256169   2.474   2.344   3.585 -0.5847  0.0083 -1.1855
11560TIP3   OH256170   1.230   2.505  15.406  0.4110 -0.6529 -0.7456
11560TIP3    H156171   1.192   2.532  15.322 -1.2956 -1.5859 -0.3274
11560TIP3    H256172   1.213   2.578  15.465 -0.4202 -0.8840 -0.6769
11561TIP3   OH256173   1.216   0.148  15.978  0.7413 -0.7398  0.0634
11561TIP3    H156174   1.200   0.156  16.072 -1.2500  1.3959 -0.3666
11561TIP3    H256175   1.166   0.071  15.952  1.1063 -1.2030  0.6906
11562TIP3   OH256176   1.798   1.671  92.906  0.2788  0.4526  0.4505
11562TIP3    H156177   1.774   1.763  92.918  0.9837  1.0746 -2.1992
11562TIP3    H256178   1.782   1.654  92.813  0.1532 -2.1328  0.8755
11563TIP3   OH256179   1.667   1.004  73.563  1.1242  0.1834 -0.1533
11563TIP3    H156180   1.677   1.075  73.500  0.7567  1.0217  0.7181
11563TIP3    H256181   1.573   0.983  73.560  0.9901  0.6372  0.5266
11564TIP3   OH256182   2.468   1.268  75.873  0.0513 -0.7060 -0.1452
11564TIP3    H156183   2.533   1.265  75.803  0.9630  0.7011  0.5833
11564TIP3    H256184   2.394   1.314  75.835 -0.4644 -2.1003 -0.9071
11565TIP3   OH256185   0.957   2.493   7.615 -0.0617 -0.2914  0.3227
11565TIP3    H156186   0.911   2.569   7.580 -1.4789 -1.6259 -0.8981
11565TIP3    H256187   0.987   2.445   7.537 -0.4618 -1.6958  0.9905
11566TIP3   OH256188   0.429   0.152  10.572  0.2269 -0.0698  0.0374
11566TIP3    H156189   0.523   0.162  10.558  0.3234 -0.7240  0.1690
11566TIP3    H256190   0.408   0.067  10.533 -0.5990  0.7285 -1.3502
11567TIP3   OH256191   2.602   2.602  20.890  0.4135 -0.1114 -0.1279
11567TIP3    H156192   2.658   2.564  20.823  0.0248  0.0400 -0.5395
11567TIP3    H256193   2.548   2.665  20.843  0.5656  0.4442  0.4322
11568TIP3   OH256194   0.673   1.441  85.800  0.7600 -0.4239 -0.4641
11568TIP3    H156195   0.584   1.458  85.770  0.2194 -1.3396  0.5759
11568TIP3    H256196   0.726   1.508  85.756 -0.6416  1.0949  0.0393
11569TIP3   OH256197   0.379   2.676 104.245  0.1952 -0.1771 -0.4128
11569TIP3    H156198   0.418   2.753 104.204 -2.3198  1.0342 -0.7565
11569TIP3    H256199   0.314   2.712 104.306 -0.4188 -2.0305  0.1102
11570TIP3   OH256200   0.036   2.159 101.749 -0.2546 -0.0666 -0.3732
11570TIP3    H156201   0.071   2.153 101.660 -1.2729 -0.2041 -0.7701
11570TIP3    H256202  -0.046   2.112 101.747 -0.3937  0.1019  0.5999
11571TIP3   OH256203   0.179   0.604  22.867  0.1247 -0.1713  0.3746
11571TIP3    H156204   0.259   0.567  22.829  0.0136 -0.8325  0.7529
11571TIP3    H256205   0.131   0.527  22.898 -0.2300  0.2853  0.9680
11572TIP3   OH256206   0.131   1.048  30.947 -0.5076 -0.5363 -0.2488
11572TIP3    H156207   0.044   1.011  30.959 -1.5408  1.8435  0.1433
11572TIP3    H256208   0.158   1.074  31.035  1.0176 -1.9927 -0.2295
11573TIP3   OH256209   1.340   0.684 110.067  0.1400  0.3922  0.1640
11573TIP3    H156210   1.383   0.769 110.078  0.0733  0.6369 -1.2915
11573TIP3    H256211   1.348   0.642 110.153  3.3746  0.3788  0.0026
11574TIP3   OH256212   0.218   2.376  93.919 -0.1905  0.7995 -0.4630
11574TIP3    H156213   0.232   2.448  93.980  1.5530  0.2667 -0.1843
11574TIP3    H256214   0.285   2.388  93.852  0.2231 -0.6400 -0.3298
11575TIP3   OH256215   0.885   1.856  94.442  0.1736 -0.4177 -0.1162
11575TIP3    H156216   0.828   1.827  94.371 -0.4581  1.1122 -0.2835
11575TIP3    H256217   0.971   1.865  94.400  0.2442 -1.4194 -0.1939
11576TIP3   OH256218   1.210   2.220  99.031 -0.2956  0.2861 -0.4668
11576TIP3    H156219   1.168   2.267  98.959  0.0234  1.0690 -0.1532
11576TIP3    H256220   1.268   2.284  99.071  2.4262 -1.1092 -1.8535
11577TIP3   OH256221   1.878   2.630  88.032 -0.4532 -0.3399 -0.1112
11577TIP3    H156222   1.786   2.619  88.007 -0.4601  0.2084 -0.3423
11577TIP3    H256223   1.894   2.724  88.025  0.0331 -0.3896  0.2602
11578TIP3   OH256224   1.751   2.184  19.293 -0.7664  0.5778  0.0970
11578TIP3    H156225   1.716   2.109  19.342 -0.0711  0.4470  0.3951
11578TIP3    H256226   1.826   2.149  19.246 -1.0991  0.8359 -0.6326
11579TIP3   OH256227   2.100   1.948  89.116  0.0566 -0.1120  0.0733
11579TIP3    H156228   2.023   1.920  89.066 -0.2535  0.9184 -0.0690
11579TIP3    H256229   2.109   2.041  89.094  0.6913  0.0433  0.9395
11580TIP3   OH256230   0.613   1.907   3.395  0.1734 -0.0708 -0.2549
11580TIP3    H156231   0.584   1.994   3.366  1.4112  0.6469  0.5825
11580TIP3    H256232   0.701   1.921   3.428 -0.3708 -1.2596  1.8593
11581TIP3   OH256233   1.675   1.588  27.055  0.2147  0.3569 -0.2599
11581TIP3    H156234   1.593   1.633  27.036 -1.4861 -2.5311 -0.3332
11581TIP3    H256235   1.659   1.541  27.137  2.2913  0.7542  0.4534
11582TIP3   OH256236   1.235   2.130  75.736 -0.1172  0.3670 -0.3656
11582TIP3    H156237   1.193   2.131  75.822 -0.5702 -1.0592 -0.5297
11582TIP3    H256238   1.305   2.065  75.745 -0.8680 -0.6156 -1.3566
11583TIP3   OH256239   0.950   0.376  80.196 -0.5339 -0.8957 -0.1716
11583TIP3    H156240   0.942   0.459  80.149  2.3188 -0.6585 -0.4240
11583TIP3    H256241   0.913   0.311  80.136  0.8288 -0.2841 -1.7633
11584TIP3   OH256242   0.536   1.316  12.596 -0.1395 -0.1368  0.0731
11584TIP3    H156243   0.462   1.256  12.608  1.6267 -2.1820  1.3979
11584TIP3    H256244   0.541   1.330  12.501 -0.0953 -2.8332 -0.3830
11585TIP3   OH256245   1.745   0.180  74.975 -0.4091  0.2589  0.5095
11585TIP3    H156246   1.702   0.213  74.896 -0.5501 -1.9041 -0.3937
11585TIP3    H256247   1.818   0.240  74.990 -0.2479  0.5939 -1.3957
11586TIP3   OH256248   0.127   0.016  24.956 -0.2509  0.2208 -0.4352
11586TIP3    H156249   0.061  -0.019  24.897  0.1120 -1.3268  0.0268
11586TIP3    H256250   0.161  -0.061  25.003  1.0278  1.1216  0.1929
11587TIP3   OH256251   1.079   1.760   9.644  0.4782  0.3964  0.0014
11587TIP3    H156252   1.065   1.828   9.709 -0.6022 -0.1873  0.3985
11587TIP3    H256253   1.168   1.776   9.611  1.1101  0.6277  1.6999
11588TIP3   OH256254   1.254   1.572  34.115  0.0680  0.0160 -0.2316
11588TIP3    H156255   1.272   1.558  34.208 -0.2665 -1.1334 -0.3236
11588TIP3    H256256   1.249   1.484  34.079 -1.1649  0.4142 -1.0795
11589TIP3   OH256257   1.110   1.389  84.201 -0.2841 -0.3505 -0.1022
11589TIP3    H156258   1.200   1.413  84.222 -0.6981  2.4730 -1.1123
11589TIP3    H256259   1.083   1.452  84.134 -3.1549 -0.7752  0.5038
11590TIP3   OH256260   1.166   0.597  59.793 -0.1674 -0.3435  0.5756
11590TIP3    H156261   1.179   0.506  59.820 -1.6300 -1.5197 -2.2811
11590TIP3    H256262   1.226   0.608  59.719 -1.1397  0.4688 -0.1202
11591TIP3   OH256263   0.811   0.856   6.082 -0.0206 -0.5122  0.4317
11591TIP3    H156264   0.731   0.821   6.042  0.4560  0.1707 -1.2112
11591TIP3    H256265   0.854   0.779   6.120 -0.6780 -1.1428 -0.0665
11592TIP3   OH256266   1.432   2.077  21.616  0.0841  0.4829 -0.3960
11592TIP3    H156267   1.372   2.119  21.677  0.1298 -0.2076  0.1371
11592TIP3    H256268   1.377   2.014  21.569  0.5243 -0.6879  0.6178
11593TIP3   OH256269   0.843   0.588  35.422  0.0998  0.1400 -0.9005
11593TIP3    H156270   0.771   0.528  35.404  0.8761 -0.7398 -1.1100
11593TIP3    H256271   0.897   0.585  35.343  1.1607 -0.3498 -0.1758
11594TIP3   OH256272   2.630   0.163   8.253  0.1054 -0.1356 -0.3908
11594TIP3    H156273   2.697   0.147   8.186  1.4162  1.4684  0.4782
11594TIP3    H256274   2.555   0.195   8.204  0.2502 -1.0994 -1.2950
11595TIP3   OH256275   1.155   2.537  93.511 -0.4535  0.2607  0.0252
11595TIP3    H156276   1.189   2.621  93.481  0.6501 -0.9821 -2.5311
11595TIP3    H256277   1.213   2.512  93.583  0.5032  0.7253 -0.5746
11596TIP3   OH256278   0.434   0.323  24.389  0.4364  0.0375  0.6836
11596TIP3    H156279   0.500   0.313  24.321 -0.6636 -0.2800 -0.3764
11596TIP3    H256280   0.475   0.288  24.468  1.2071 -1.0413 -0.1632
11597TIP3   OH256281   2.046   1.478  79.081  0.0594  0.0112 -0.0154
11597TIP3    H156282   2.018   1.539  79.012 -1.5613  0.1976  0.7669
11597TIP3    H256283   2.102   1.415  79.035 -1.5116 -0.2687 -1.6657
11598TIP3   OH256284   1.034   1.195  24.348 -0.0011 -0.8550 -0.2405
11598TIP3    H156285   1.087   1.212  24.270 -0.4199  0.4243 -0.2627
11598TIP3    H256286   1.097   1.196  24.420 -0.0221  1.1602 -0.2100
11599TIP3   OH256287   2.057   1.809  17.175 -0.3239 -0.0628  0.3439
11599TIP3    H156288   1.998   1.829  17.102  0.7931 -0.3269 -0.6594
11599TIP3    H256289   2.001   1.814  17.252 -1.7778 -0.7436 -0.6080
11600TIP3   OH256290   1.730   1.828  30.310 -0.2575 -0.3564  0.4681
11600TIP3    H156291   1.740   1.897  30.245  1.4391 -1.2465 -0.2948
11600TIP3    H256292   1.814   1.824  30.355 -0.7131 -1.1481  1.3105
11601TIP3   OH256293   1.522   1.678   9.065 -0.1585  0.6952 -0.2938
11601TIP3    H156294   1.576   1.732   9.123  0.2527  0.8729 -0.8324
11601TIP3    H256295   1.454   1.737   9.033  1.1238  1.3067 -2.0044
11602TIP3   OH256296   1.793   0.125  37.277  0.3667 -0.2556  0.2564
11602TIP3    H156297   1.698   0.118  37.289  0.4628 -0.3387  0.9990
11602TIP3    H256298   1.829   0.050  37.322  0.7677 -0.5068 -0.4591
11603TIP3   OH256299   0.054   0.201  74.896 -0.2848  0.4092  0.1737
11603TIP3    H156300   0.051   0.250  74.814 -0.3329  2.7997  1.5332
11603TIP3    H256301   0.123   0.242  74.947 -1.0578 -0.2153  1.8051
11604TIP3   OH256302   0.208   0.777  17.169  0.0693  0.0631  0.8301
11604TIP3    H156303   0.144   0.841  17.140  0.8179  0.9090  0.9944
11604TIP3    H256304   0.165   0.732  17.243 -0.7369 -0.1432  0.2482
11605TIP3   OH256305   1.154   2.297  20.420  0.2257  0.1800  0.1670
11605TIP3    H156306   1.062   2.314  20.398  0.2239  0.7761  0.6233
11605TIP3    H256307   1.204   2.346  20.355  0.2211  1.9974  1.4641
11606TIP3   OH256308   0.248   2.636  13.382 -0.3306  0.3812 -0.5346
11606TIP3    H156309   0.335   2.659  13.351 -0.1299  0.7133  0.2710
11606TIP3    H256310   0.214   2.716  13.422 -0.8477  0.1453 -0.4929
11607TIP3   OH256311   1.151   0.251  74.449  0.5145  0.2372  0.0810
11607TIP3    H156312   1.138   0.191  74.523  1.1174 -0.9068 -0.7287
11607TIP3    H256313   1.177   0.195  74.376 -1.8496  1.0871 -1.5484
11608TIP3   OH256314   1.108   1.418  36.604 -0.3773  0.8812 -0.0723
11608TIP3    H156315   1.132   1.504  36.571  0.2068  0.7066 -0.1120
11608TIP3    H256316   1.189   1.367  36.600 -0.2263  0.9102  1.8587
11609TIP3   OH256317   1.362   2.138  74.005  0.7200 -0.4456  0.0492
11609TIP3    H156318   1.300   2.117  73.936  0.9439  0.7026 -0.5255
11609TIP3    H256319   1.447   2.112  73.970  0.9320  0.8423 -0.4540
11610TIP3   OH256320   2.300   2.370  88.963  0.0590  0.3426  0.7784
11610TIP3    H156321   2.368   2.330  88.908 -0.2585 -0.8497  1.2101
11610TIP3    H256322   2.232   2.302  88.968 -0.6684  1.1019  1.2483
11611TIP3   OH256323   2.185   0.392  92.054  0.0167  0.2201  0.8160
11611TIP3    H156324   2.192   0.323  92.120 -0.1292 -1.1103 -0.5087
11611TIP3    H256325   2.146   0.349  91.978  1.9271  1.2043 -0.8161
11612TIP3   OH256326   0.606   1.698  16.922 -0.1041  0.5158 -0.6321
11612TIP3    H156327   0.578   1.779  16.879 -0.4388  0.1011 -1.2197
11612TIP3    H256328   0.568   1.703  17.009 -0.5907  0.7380 -0.8510
11613TIP3   OH256329   0.928   1.918  85.421 -0.0032 -0.2431 -0.2871
11613TIP3    H156330   0.955   2.010  85.418  0.2628 -0.3570 -1.7218
11613TIP3    H256331   0.987   1.879  85.485  1.9065 -0.0319 -1.8316
11614TIP3   OH256332   0.446   2.027  29.846  0.4864  0.3827 -0.4698
11614TIP3    H156333   0.520   1.972  29.820  0.2294 -0.3561  0.3348
11614TIP3    H256334   0.386   1.967  29.889  0.2333  1.3126  0.4951
11615TIP3   OH256335   1.911   1.731  12.800 -0.4530  0.0998 -0.3482
11615TIP3    H156336   1.977   1.798  12.812  0.3529 -0.5404 -1.0526
11615TIP3    H256337   1.960   1.652  12.780 -1.4239 -0.4228 -0.7564
11616TIP3   OH256338   0.490   2.502  16.809 -0.0729  0.0943 -0.2386
11616TIP3    H156339   0.492   2.441  16.736  2.7041 -0.8559  0.4971
11616TIP3    H256340   0.463   2.585  16.771 -1.5886 -1.0073 -1.7260
11617TIP3   OH256341   1.862   1.387  10.962 -0.3665 -0.1069 -0.1009
11617TIP3    H156342   1.822   1.333  11.030 -0.6390 -0.0917 -0.2480
11617TIP3    H256343   1.951   1.354  10.954 -0.5187 -0.5003 -0.1598
11618TIP3   OH256344   1.424   0.642  78.881 -0.2556 -0.4945 -0.1220
11618TIP3    H156345   1.358   0.601  78.937  1.0604 -1.6248  0.6698
11618TIP3    H256346   1.496   0.579  78.879  0.9204  0.8174 -0.7213
11619TIP3   OH256347   1.281   1.233  32.114 -0.2203  0.3333 -0.2837
11619TIP3    H156348   1.230   1.223  32.194 -0.4229  0.2238 -0.4272
11619TIP3    H256349   1.370   1.251  32.145 -0.2887  0.2519 -0.0338
11620TIP3   OH256350   0.039   1.189  76.934 -0.1382 -0.1677  0.1123
11620TIP3    H156351   0.122   1.227  76.907 -0.2721 -0.0809 -0.1840
11620TIP3    H256352   0.052   1.095  76.929 -0.4491 -0.1504 -1.1551
11621TIP3   OH256353   2.240   0.451  90.638  0.2213  0.6801  0.2740
11621TIP3    H156354   2.324   0.458  90.684 -0.0104 -0.2858  0.8701
11621TIP3    H256355   2.245   0.369  90.590  0.3190  1.5047 -1.1951
11622TIP3   OH256356   2.378   2.478 103.690 -0.1409 -0.3214  0.3042
11622TIP3    H156357   2.403   2.411 103.753 -0.4390  0.6105  1.4594
11622TIP3    H256358   2.460   2.502 103.647  0.6769  1.1259  2.4768
11623TIP3   OH256359   1.432   1.323  63.296  0.2053  0.4133 -0.4133
11623TIP3    H156360   1.371   1.252  63.317  0.6177 -0.1578 -1.0881
11623TIP3    H256361   1.384   1.403  63.316  0.8093 -0.0144  3.4511
11624TIP3   OH256362   1.824   0.725  93.266  0.8466  0.1972  0.0180
11624TIP3    H156363   1.896   0.776  93.227  1.4485  0.0232  0.8794
11624TIP3    H256364   1.832   0.741  93.360 -0.9666  1.1140  0.0648
11625TIP3   OH256365   1.306   0.747  88.874  0.3289  0.7226  0.3153
11625TIP3    H156366   1.261   0.740  88.789  1.1112 -0.5484 -0.0273
11625TIP3    H256367   1.250   0.698  88.934  0.4814  0.4086  0.2085
11626TIP3   OH256368   1.179   2.328 101.918 -0.5906 -0.4224 -0.6580
11626TIP3    H156369   1.131   2.410 101.929  0.6460  0.3948 -1.1218
11626TIP3    H256370   1.222   2.314 102.002  0.6020  0.3773 -1.0935
11627TIP3   OH256371   1.427   0.275  10.080 -0.3764  0.3975 -0.2619
11627TIP3    H156372   1.387   0.244  10.161 -0.1243 -0.2901 -0.3948
11627TIP3    H256373   1.444   0.368  10.096 -0.7621  0.3761  0.2957
11628TIP3   OH256374   1.512   0.600  62.439 -0.7856 -0.4031 -0.0736
11628TIP3    H156375   1.568   0.584  62.515 -0.3919 -0.5742 -0.3936
11628TIP3    H256376   1.472   0.685  62.457  0.3559  0.2125 -0.2937
11629TIP3   OH256377   1.127   0.236   1.903  0.2325 -0.4059  0.0510
11629TIP3    H156378   1.037   0.217   1.929  0.1478 -0.5944 -0.3705
11629TIP3    H256379   1.179   0.170   1.949 -0.0250 -1.4520 -1.1177
11630TIP3   OH256380   1.461   1.841  92.289  0.1566  0.0037  0.0975
11630TIP3    H156381   1.488   1.792  92.212  1.6275  1.5191 -0.4181
11630TIP3    H256382   1.512   1.804  92.361  1.7058  1.0901 -0.3928
11631TIP3   OH256383   1.061   1.231  32.833  0.0417  0.0121  0.5611
11631TIP3    H156384   0.979   1.244  32.787  0.2747  0.6371  0.3106
11631TIP3    H256385   1.038   1.176  32.908 -0.7716  0.8759  0.9755
11632TIP3   OH256386   2.662   2.440  86.011 -0.7337  0.3627 -1.0721
11632TIP3    H156387   2.573   2.432  86.046 -0.0167 -0.5684  0.7189
11632TIP3    H256388   2.703   2.508  86.065 -0.2535  0.5223 -1.6277
11633TIP3   OH256389   2.097   0.977  41.297 -0.1231  0.0581  0.4509
11633TIP3    H156390   2.090   1.007  41.388 -0.3443  1.3216  0.0335
11633TIP3    H256391   2.012   0.935  41.279 -0.0763 -0.2000  0.8254
11634TIP3   OH256392   0.784   1.301  96.883  0.2499  0.1911  0.3220
11634TIP3    H156393   0.766   1.381  96.834  1.9266  0.0567 -0.5976
11634TIP3    H256394   0.758   1.322  96.973  1.4886  2.1226  0.2944
11635TIP3   OH256395   0.985   1.356  26.582  0.7833 -0.2224  0.5093
11635TIP3    H156396   1.078   1.350  26.603  0.5528 -0.0834  1.5835
11635TIP3    H256397   0.970   1.450  26.568  0.9141 -0.3023 -0.2522
11636TIP3   OH256398   1.933   2.463  81.175  0.2366 -0.3455  0.0932
11636TIP3    H156399   1.898   2.547  81.204 -1.2926 -1.0527  0.4095
11636TIP3    H256400   1.919   2.462  81.081 -1.7752 -1.0837  0.3429
11637TIP3   OH256401   2.002   1.637  77.731  0.8526  0.1032  0.2406
11637TIP3    H156402   1.913   1.671  77.742  0.5013 -1.4749  3.0157
11637TIP3    H256403   2.004   1.606  77.640 -0.6563  2.1017 -0.5673
11638TIP3   OH256404   2.509   1.079 101.235  0.3919 -0.5789 -0.2662
11638TIP3    H156405   2.502   1.095 101.329  0.4119 -0.8605 -0.2177
11638TIP3    H256406   2.603   1.063 101.220  0.0790 -2.9780  0.0589
11639TIP3   OH256407   0.773   0.675  93.380 -0.2434  0.2664 -0.0354
11639TIP3    H156408   0.694   0.622  93.390 -0.2242  0.0564 -0.8633
11639TIP3    H256409   0.741   0.761  93.351 -0.2152  0.4145  0.3720
11640TIP3   OH256410   2.081   0.519  99.765 -0.1114 -0.0160 -0.0198
11640TIP3    H156411   2.013   0.579  99.735  0.1492  0.5131  0.4203
11640TIP3    H256412   2.163   0.557  99.732  0.1425  0.3765  1.0229
11641TIP3   OH256413   1.888   1.685  24.320 -0.0769  0.0575 -0.8334
11641TIP3    H156414   1.903   1.607  24.373  0.9743 -0.2104 -1.4704
11641TIP3    H256415   1.869   1.650  24.232 -0.1084  0.5082 -1.0065
11642TIP3   OH256416   0.591   0.634  94.970 -0.2772  0.5434 -0.3391
11642TIP3    H156417   0.639   0.638  94.887 -0.2127 -0.0656 -0.3382
11642TIP3    H256418   0.608   0.546  95.003 -0.6373  0.6408  0.1253
11643TIP3   OH256419   2.491   1.039  13.190  0.3149  0.4949 -0.0434
11643TIP3    H156420   2.466   1.105  13.126 -0.1807 -0.7609 -1.2004
11643TIP3    H256421   2.433   0.965  13.172  1.8255 -0.8174  0.2091
11644TIP3   OH256422   1.478   1.420  96.542 -0.0133  0.3127 -0.5434
11644TIP3    H156423   1.428   1.340  96.523 -2.8016  1.5429  1.0398
11644TIP3    H256424   1.541   1.394  96.609 -1.1838 -0.5170  0.2754
11645TIP3   OH256425   1.986   0.407  74.124  1.0800  0.2977  0.2200
11645TIP3    H156426   2.011   0.493  74.089  0.3341  0.5028  0.1655
11645TIP3    H256427   2.045   0.392  74.197  0.6392  1.2639  0.7897
11646TIP3   OH256428   0.038   2.216   1.905 -0.3606 -0.9635 -0.3326
11646TIP3    H156429   0.042   2.162   1.984  0.9847 -0.4252  0.0024
11646TIP3    H256430   0.125   2.209   1.866 -0.4017  0.2814 -0.7167
11647TIP3   OH256431   2.018   2.623   3.617  0.6812  0.6248 -0.8605
11647TIP3    H156432   2.025   2.633   3.712  0.6465 -1.6771 -0.5545
11647TIP3    H256433   1.940   2.673   3.594  0.0155  0.2980  0.5243
11648TIP3   OH256434   0.857   0.309  27.699 -0.3305  0.1813 -0.2561
11648TIP3    H156435   0.848   0.234  27.640 -0.1489 -0.1048  0.0716
11648TIP3    H256436   0.827   0.384  27.648  1.0898  0.1592 -1.1734
11649TIP3   OH256437   2.391   0.742  28.338  0.3149  0.6833  0.3014
11649TIP3    H156438   2.351   0.656  28.333 -0.7191  1.1213  0.7444
11649TIP3    H256439   2.483   0.727  28.315  0.0413 -0.4411 -0.1357
11650TIP3   OH256440   1.360   0.934  22.006 -0.0695  0.0073 -0.0650
11650TIP3    H156441   1.284   0.876  22.000 -0.1016  0.1302 -1.0714
11650TIP3    H256442   1.420   0.902  21.939  0.5887  0.1846  0.4241
11651TIP3   OH256443   2.164   0.126   1.492 -0.2811  0.3251 -0.0744
11651TIP3    H156444   2.151   0.035   1.466  0.7548 -0.3504  1.5802
11651TIP3    H256445   2.094   0.144   1.555 -0.2160  0.5307 -0.0580
11652TIP3   OH256446   1.856   1.162   7.720 -0.3423 -0.2712  0.0428
11652TIP3    H156447   1.934   1.212   7.742 -0.8814  0.3480  0.5699
11652TIP3    H256448   1.887   1.072   7.711  0.1851 -0.2854  1.7154
11653TIP3   OH256449   1.493   0.048   1.146 -0.2269  0.4225  0.0342
11653TIP3    H156450   1.577   0.004   1.160  0.5373  1.6281 -0.6375
11653TIP3    H256451   1.474   0.089   1.231 -0.5314 -0.4796  0.4145
11654TIP3   OH256452   1.434   2.282  19.372 -0.1311  0.4587  0.3111
11654TIP3    H156453   1.459   2.229  19.297  0.6319 -0.7482  1.3701
11654TIP3    H256454   1.483   2.245  19.445 -2.2679  0.3266  1.7851
11655TIP3   OH256455   0.628   0.866  77.746  0.0781  0.1997 -0.2824
11655TIP3    H156456   0.546   0.884  77.701  1.1404 -1.8184 -3.3682
11655TIP3    H256457   0.621   0.913  77.829 -2.3138  3.7672 -2.2669
11656TIP3   OH256458   0.325   2.135  28.706  0.1952  0.1846  0.4803
11656TIP3    H156459   0.332   2.062  28.766  2.3028  1.4169  1.8661
11656TIP3    H256460   0.376   2.109  28.629  1.0608  0.2295  1.0295
11657TIP3   OH256461   2.322   1.209  29.532 -0.1740 -0.3180 -0.6728
11657TIP3    H156462   2.345   1.198  29.440 -1.3814  0.6466 -1.1173
11657TIP3    H256463   2.258   1.280  29.533 -0.9099 -0.9472  0.8029
11658TIP3   OH256464   2.151   2.249   0.508 -0.9576  0.1256 -0.1780
11658TIP3    H156465   2.140   2.154   0.516 -2.5835  0.0495 -2.2646
11658TIP3    H256466   2.115   2.270   0.422  0.9599  2.4376 -0.5215
11659TIP3   OH256467   1.710   0.907   4.803 -0.1890 -0.0079  0.2798
11659TIP3    H156468   1.759   0.983   4.771  0.5019 -0.4923  0.1637
11659TIP3    H256469   1.757   0.831   4.768 -2.6106 -0.5042 -2.3103
11660TIP3   OH256470   1.633   1.169  20.805  0.0535 -0.1097 -0.6888
11660TIP3    H156471   1.606   1.255  20.769  0.1977  0.4310  0.4611
11660TIP3    H256472   1.719   1.185  20.842  0.4858 -1.0023 -1.2889
11661TIP3   OH256473   0.456   2.419  42.862 -0.7448 -0.3228  0.3249
11661TIP3    H156474   0.422   2.378  42.783 -0.3990  0.6080 -0.3103
11661TIP3    H256475   0.473   2.510  42.838 -1.5932  0.2390  1.7477
11662TIP3   OH256476   1.302   1.301  83.101 -0.2060 -0.4302 -0.0931
11662TIP3    H156477   1.369   1.235  83.118  1.3486  0.8116 -1.0369
11662TIP3    H256478   1.342   1.360  83.036 -0.4638  2.8869  2.4846
11663TIP3   OH256479   2.460   0.759 103.897  0.3367  0.3630  0.8780
11663TIP3    H156480   2.416   0.746 103.981  0.0097  0.2491  0.6897
11663TIP3    H256481   2.401   0.815 103.847  0.1655 -0.1961  0.4418
11664TIP3   OH256482   1.245   1.981  89.995 -0.3256 -0.1478 -0.0510
11664TIP3    H156483   1.287   2.005  89.913  0.6937 -2.1342 -0.1655
11664TIP3    H256484   1.152   1.976  89.973 -0.1203 -0.1915 -0.9573
11665TIP3   OH256485   1.386   1.980 105.298 -0.0285 -0.0577  0.1467
11665TIP3    H156486   1.388   2.072 105.325  1.1309 -0.1204  0.3266
11665TIP3    H256487   1.303   1.947 105.332  0.2202  0.5387  1.3939
11666TIP3   OH256488   2.538   1.921  35.511  0.0479 -0.3565 -0.4926
11666TIP3    H156489   2.610   1.983  35.495  0.5065  0.2471  3.1179
11666TIP3    H256490   2.578   1.835  35.496  1.1728  0.0201  0.1677
11667TIP3   OH256491   1.867   0.444 101.315  0.0570  0.3276  0.1886
11667TIP3    H156492   1.911   0.359 101.315 -0.8320 -0.1457 -0.2352
11667TIP3    H256493   1.775   0.424 101.300 -0.0790  1.4177 -0.5802
11668TIP3   OH256494   0.546   0.236  89.747 -0.2631 -0.5235  0.1113
11668TIP3    H156495   0.558   0.165  89.684  0.5908  0.0446 -0.3773
11668TIP3    H256496   0.629   0.284  89.746 -1.0480  0.8950 -0.0907
11669TIP3   OH256497   0.602   2.249  36.423 -0.1759  0.0980 -0.0907
11669TIP3    H156498   0.553   2.204  36.354 -0.9018 -0.8185  0.9824
11669TIP3    H256499   0.570   2.210  36.504 -1.4489  3.1095  1.0024
11670TIP3   OH256500   0.989   2.174  77.294 -0.1050 -0.0881  0.0959
11670TIP3    H156501   0.942   2.236  77.238  0.3694 -0.1268 -0.3527
11670TIP3    H256502   0.974   2.089  77.252  0.6434 -0.0581 -0.2490
11671TIP3   OH256503   1.355   2.056  94.857 -0.3887  0.3675 -0.2438
11671TIP3    H156504   1.430   2.111  94.882 -0.2026 -0.5452  1.2733
11671TIP3    H256505   1.280   2.095  94.902 -0.9371  1.4648 -2.0043
11672TIP3   OH256506   2.463   0.424   9.304 -0.1878  0.1429 -0.3046
11672TIP3    H156507   2.510   0.348   9.337 -0.1995 -0.1025 -0.8296
11672TIP3    H256508   2.375   0.391   9.286  0.3098 -0.2512 -2.3501
11673TIP3   OH256509   0.166   1.250  90.604  0.1586 -0.5657 -0.0608
11673TIP3    H156510   0.214   1.296  90.674  0.4216  0.4884 -0.8994
11673TIP3    H256511   0.230   1.238  90.535 -0.4718 -0.2555 -0.7109
11674TIP3   OH256512   1.635   0.831  17.531 -0.1819  0.5139  0.3798
11674TIP3    H156513   1.651   0.827  17.437 -1.2204 -0.2265  0.2143
11674TIP3    H256514   1.600   0.918  17.546 -0.7831  0.3572 -0.0638
11675TIP3   OH256515   1.679   2.411  78.612 -0.6762  0.2366  0.6504
11675TIP3    H156516   1.677   2.316  78.626 -0.3164  0.0678 -0.3850
11675TIP3    H256517   1.771   2.430  78.593 -0.9872  0.5753 -0.5716
11676TIP3   OH256518   1.122   0.223  24.388  0.1739 -0.4435 -0.2887
11676TIP3    H156519   1.195   0.248  24.331  2.3189 -1.2418  1.8816
11676TIP3    H256520   1.165   0.189  24.467 -2.5922 -0.0370  1.5356
11677TIP3   OH256521   0.907   0.301  93.965  0.7972 -0.6068 -0.3053
11677TIP3    H156522   0.997   0.270  93.973  1.3499  0.9979  0.1045
11677TIP3    H256523   0.905   0.381  94.018 -0.5398  0.0577 -1.3221
11678TIP3   OH256524   1.662   1.156  93.659 -0.0871  0.5039  0.2341
11678TIP3    H156525   1.661   1.090  93.728 -2.8890  0.3269  0.1476
11678TIP3    H256526   1.601   1.223  93.689 -0.8188  0.7819 -1.6960
11679TIP3   OH256527   1.281   1.397 107.057 -0.1651 -0.2505  0.0174
11679TIP3    H156528   1.305   1.420 106.967 -2.3677 -1.9504 -1.1083
11679TIP3    H256529   1.217   1.463 107.082 -0.7758 -0.6994 -0.3234
11680TIP3   OH256530   0.266   2.535 107.530  0.0768  0.0755  0.6498
11680TIP3    H156531   0.358   2.518 107.553 -0.1454 -0.3530  1.2381
11680TIP3    H256532   0.252   2.486 107.450  0.2768 -0.1099  0.7213
11681TIP3   OH256533   2.667   0.221  27.758 -0.4720  0.0108 -0.3166
11681TIP3    H156534   2.600   0.261  27.814 -0.4144 -1.0397  0.5295
11681TIP3    H256535   2.745   0.274  27.773 -0.5375 -0.0812  0.3945
11682TIP3   OH256536   1.873   0.875   1.407 -0.6097  0.0246  0.1452
11682TIP3    H156537   1.840   0.955   1.366  0.0811  0.8927  1.2277
11682TIP3    H256538   1.966   0.892   1.420 -0.2897 -1.2813 -0.3217
11683TIP3   OH256539   2.217   0.830   7.533  0.1894  0.3062  0.4044
11683TIP3    H156540   2.190   0.743   7.504  0.2693 -0.0528  1.3653
11683TIP3    H256541   2.309   0.819   7.557  0.3474  0.7898  0.0392
11684TIP3   OH256542   0.958   2.013   8.418  0.2556 -0.4861 -0.2090
11684TIP3    H156543   0.886   2.071   8.443  0.7687 -0.3733  1.1202
11684TIP3    H256544   0.998   2.055   8.342 -1.3077 -0.7654 -1.2305
11685TIP3   OH256545   0.246   0.410  17.257 -0.6978  0.3093 -0.0095
11685TIP3    H156546   0.162   0.433  17.216 -0.2585 -0.1182 -1.1892
11685TIP3    H256547   0.306   0.397  17.184  0.0775 -0.6605  0.7595
11686TIP3   OH256548   0.202   0.204  86.359 -0.1167  0.2843  0.3943
11686TIP3    H156549   0.266   0.239  86.297 -1.7133 -1.0213 -2.1383
11686TIP3    H256550   0.142   0.277  86.375 -0.0625  0.4477 -0.1361
11687TIP3   OH256551   0.054   2.131  77.095 -0.2141 -0.4567 -0.1196
11687TIP3    H156552   0.142   2.101  77.073  0.8715  0.8604  2.0688
11687TIP3    H256553   0.035   2.199  77.030  0.0212 -1.2741 -1.0823
11688TIP3   OH256554   1.580   0.131  34.671  0.4276  0.0030 -0.1503
11688TIP3    H156555   1.657   0.173  34.709  0.2951 -0.1627  0.3040
11688TIP3    H256556   1.520   0.118  34.744  0.3130 -0.6370 -0.3476
11689TIP3   OH256557   0.953   0.051 102.782  0.3509  0.0404  0.1401
11689TIP3    H156558   1.013  -0.015 102.817  0.6590  0.5451  0.5881
11689TIP3    H256559   1.009   0.108 102.729 -0.2321 -1.1362 -1.8254
11690TIP3   OH256560   0.460   1.929  23.121  0.1202  0.2531  0.2845
11690TIP3    H156561   0.378   1.903  23.162  0.9513 -0.6725  1.4554
11690TIP3    H256562   0.437   1.951  23.031 -1.2352 -1.0507  0.2703
11691TIP3   OH256563   1.903   1.190  31.518 -0.1611 -0.4031 -0.6638
11691TIP3    H156564   1.987   1.145  31.532  0.4555  0.4426 -1.4997
11691TIP3    H256565   1.915   1.236  31.435 -1.5097 -0.3731 -0.8597
11692TIP3   OH256566   0.001   2.229 106.008 -0.4599 -0.2643  0.0100
11692TIP3    H156567  -0.010   2.157 106.070  0.5081 -1.2653 -0.9437
11692TIP3    H256568  -0.080   2.230 105.958 -0.3675 -0.8746 -0.1563
11693TIP3   OH256569   1.243   1.171   6.118 -0.0838  0.4740  0.4782
11693TIP3    H156570   1.196   1.255   6.113 -0.1942  0.5113  1.8865
11693TIP3    H256571   1.336   1.196   6.116  0.0275  0.3440 -3.3925
11694TIP3   OH256572   0.466   0.720   2.777 -0.2369  0.5660  0.0704
11694TIP3    H156573   0.442   0.800   2.825  0.9963  0.1019  1.5386
11694TIP3    H256574   0.501   0.662   2.845  1.4121 -0.2048 -1.3783
11695TIP3   OH256575   2.634   0.652   2.702 -0.3845 -0.2766  0.2839
11695TIP3    H156576   2.600   0.610   2.624 -0.2812 -0.7233  0.4756
11695TIP3    H256577   2.696   0.589   2.739  0.6910  0.5459 -0.0833
11696TIP3   OH256578   0.867   0.544 106.108  0.0701  0.1897 -0.3237
11696TIP3    H156579   0.870   0.454 106.075 -2.1695 -0.5689  1.3037
11696TIP3    H256580   0.953   0.580 106.086  0.0363 -1.3405 -3.6287
11697TIP3   OH256581   2.311   0.865 109.535  0.7445  0.7451 -0.2408
11697TIP3    H156582   2.343   0.826 109.453 -0.0042 -0.1915 -0.1060
11697TIP3    H256583   2.357   0.949 109.541  0.0766  1.3043 -2.1337
11698TIP3   OH256584   1.907   2.656   2.388 -0.3836  0.0706  0.5192
11698TIP3    H156585   1.932   2.664   2.296 -1.7889  1.3706  0.2048
11698TIP3    H256586   1.989   2.638   2.434  0.3420 -0.5552 -0.9712
11699TIP3   OH256587   0.437   2.224   9.594  0.0713 -0.1687 -0.1587
11699TIP3    H156588   0.489   2.191   9.667 -1.2235 -2.3168 -0.1106
11699TIP3    H256589   0.363   2.268   9.635  1.5221  2.5049 -0.2293
11700TIP3   OH256590   1.006   0.294  12.849 -0.2089 -0.4172  0.2759
11700TIP3    H156591   1.084   0.315  12.797 -0.5580  1.8260  0.5571
11700TIP3    H256592   0.933   0.328  12.796 -0.9452 -1.7960  0.3732
11701TIP3   OH256593   0.582   0.378  81.460  0.0248 -0.0721 -0.2247
11701TIP3    H156594   0.506   0.336  81.420 -1.3032  1.3057  0.7125
11701TIP3    H256595   0.626   0.422  81.387 -0.8973  0.2844 -0.5784
11702TIP3   OH256596   1.484   2.182   5.404 -0.0172 -0.3275 -0.0597
11702TIP3    H156597   1.440   2.242   5.464 -1.0308 -0.9565 -0.1570
11702TIP3    H256598   1.483   2.229   5.320 -1.9824 -0.9649 -0.4493
11703TIP3   OH256599   2.171   0.938  99.553 -0.2080 -0.0894  0.4160
11703TIP3    H156600   2.257   0.945  99.596  0.2444 -1.1405 -0.3022
11703TIP3    H256601   2.110   0.926  99.626  0.2814  0.3329  0.9141
11704TIP3   OH256602   1.772   1.703   3.086 -0.2912 -0.1295 -0.4057
11704TIP3    H156603   1.729   1.704   3.172 -0.1563  0.9718 -0.3414
11704TIP3    H256604   1.865   1.699   3.106 -0.1826  1.5529 -0.4469
11705TIP3   OH256605   1.287   0.308  62.949 -0.2649  0.6075  0.1953
11705TIP3    H156606   1.281   0.219  62.983 -1.4134 -0.4784 -2.5736
11705TIP3    H256607   1.243   0.305  62.864  0.9220  3.4872 -0.6672
11706TIP3   OH256608   1.555   0.565  87.010  0.2944  0.1981  0.1697
11706TIP3    H156609   1.595   0.496  87.062 -1.5145 -1.0063  0.0416
11706TIP3    H256610   1.479   0.593  87.061 -0.5492  0.1676 -1.0245
11707TIP3   OH256611   0.916   0.701  76.075  0.3391 -0.0378  0.5070
11707TIP3    H156612   0.878   0.613  76.068 -1.1984  0.6904 -1.4944
11707TIP3    H256613   0.991   0.691  76.132 -0.3654 -2.4660  1.1106
11708TIP3   OH256614   2.583   1.188  37.466 -0.1347  0.1000  0.2113
11708TIP3    H156615   2.573   1.118  37.401 -1.9523  1.0415 -0.5900
11708TIP3    H256616   2.564   1.146  37.550  2.3421 -1.1610  0.2270
11709TIP3   OH256617   0.643   2.077  25.999  0.4576  0.3335  0.5914
11709TIP3    H156618   0.615   2.011  26.062  0.8507  0.9368  1.4358
11709TIP3    H256619   0.738   2.066  25.993  0.3271 -0.2968 -0.5970
11710TIP3   OH256620   2.230   1.073  82.140  0.0755 -0.3997  0.0412
11710TIP3    H156621   2.271   0.997  82.099  3.5131  0.6320  1.2109
11710TIP3    H256622   2.192   1.040  82.221  0.1113 -1.1042 -0.2278
11711TIP3   OH256623   1.936   1.101   4.800  0.2568  0.2860  0.1314
11711TIP3    H156624   2.006   1.147   4.755 -0.1730  1.6048  0.7661
11711TIP3    H256625   1.865   1.165   4.806 -0.4407 -0.5215  0.8566
11712TIP3   OH256626   0.010   1.632  13.448  0.1166 -0.0573  0.3921
11712TIP3    H156627  -0.072   1.611  13.403  0.4451  1.0871 -0.7778
11712TIP3    H256628   0.031   1.552  13.496 -0.7463 -0.9875 -0.7081
11713TIP3   OH256629   1.770   2.576  82.902 -0.1828 -0.0643 -0.4412
11713TIP3    H156630   1.775   2.575  82.998 -1.1812 -3.0699 -0.2963
11713TIP3    H256631   1.683   2.612  82.883  0.3437  1.3456 -0.3110
11714TIP3   OH256632   1.155   2.070  20.232 -0.1047 -0.5085  0.3061
11714TIP3    H156633   1.060   2.068  20.248  0.2552 -0.4423  2.8517
11714TIP3    H256634   1.173   2.160  20.204 -0.8370 -0.6773 -0.7729
11715TIP3   OH256635   2.367   1.471 100.550 -0.1623  0.1885 -0.3111
11715TIP3    H156636   2.365   1.518 100.634  1.8391 -0.8502  0.3798
11715TIP3    H256637   2.403   1.385 100.571 -0.1880 -0.3129 -2.1542
11716TIP3   OH256638   1.628   1.775  26.797 -0.8162 -0.1162 -0.0981
11716TIP3    H156639   1.628   1.686  26.761  1.0054 -0.3253  0.3637
11716TIP3    H256640   1.583   1.767  26.881  2.2018 -1.3306  1.5174
11717TIP3   OH256641   2.364   1.568   5.594 -0.4596  0.1136 -0.3385
11717TIP3    H156642   2.352   1.657   5.559  0.4454  0.5869  0.5336
11717TIP3    H256643   2.380   1.515   5.516  0.1117  0.9104 -0.7865
11718TIP3   OH256644   2.089   2.456   7.101 -0.4820  0.3664 -0.2570
11718TIP3    H156645   2.156   2.468   7.168  0.3666 -0.3107 -0.9554
11718TIP3    H256646   2.031   2.388   7.137 -1.0183  1.2048  0.4984
11719TIP3   OH256647   2.178   0.117 101.074  0.0591  0.5104  0.2854
11719TIP3    H156648   2.135   0.065 101.006  1.0971 -0.0124  0.0128
11719TIP3    H256649   2.193   0.202 101.034 -2.1496  1.2560  0.9100
11720TIP3   OH256650   1.700   1.344  37.242  0.0490 -0.3077  0.5404
11720TIP3    H156651   1.652   1.421  37.275  1.3183  0.5272  0.4997
11720TIP3    H256652   1.718   1.365  37.150 -0.4045 -1.0813  0.2622
11721TIP3   OH256653   0.301   1.182  25.449 -0.1944  0.1359 -0.4213
11721TIP3    H156654   0.214   1.151  25.474 -0.2183  0.5555  0.0308
11721TIP3    H256655   0.285   1.243  25.377 -0.2839  0.2675 -0.2911
11722TIP3   OH256656   2.024   1.601  29.251 -0.0921 -0.3715  0.4003
11722TIP3    H156657   2.075   1.544  29.194  0.5686  1.1229 -0.5613
11722TIP3    H256658   1.933   1.579  29.232  0.1512 -1.3479  0.3203
11723TIP3   OH256659   0.846   2.304  24.150  0.2977  0.9406 -0.0125
11723TIP3    H156660   0.846   2.263  24.063  2.9464  2.5830 -0.9202
11723TIP3    H256661   0.869   2.234  24.210 -0.7970 -0.0633 -0.7269
11724TIP3   OH256662   0.139   2.235  85.622 -0.3124  0.2211  0.1124
11724TIP3    H156663   0.075   2.239  85.551 -0.7412 -0.5665  0.4408
11724TIP3    H256664   0.086   2.227  85.702  0.1702 -2.2630  0.2617
11725TIP3   OH256665   0.646   0.583  20.781 -0.6952  0.0951 -0.2228
11725TIP3    H156666   0.662   0.609  20.691  1.2671  2.0829  0.6042
11725TIP3    H256667   0.721   0.617  20.830 -0.4891 -2.9027  1.8379
11726TIP3   OH256668   1.410   0.560   8.673  0.4364  0.0401  0.1110
11726TIP3    H156669   1.424   0.643   8.718 -0.1504 -0.5867  1.4954
11726TIP3    H256670   1.359   0.507   8.734  0.6952 -1.3071 -0.7834
11727TIP3   OH256671   2.314   1.461  23.874 -0.7613 -0.1959  0.7394
11727TIP3    H156672   2.219   1.460  23.886 -0.6650  0.1710  1.6025
11727TIP3    H256673   2.349   1.462  23.963  0.0848 -1.9956  0.4725
11728TIP3   OH256674   2.611   0.002 102.441  0.4390  0.0856  0.0265
11728TIP3    H156675   2.687   0.058 102.424  1.5364 -1.4595 -0.4022
11728TIP3    H256676   2.624  -0.031 102.530  1.1731 -1.4356 -0.6016
11729TIP3   OH256677   1.679   0.463  30.844 -0.0676  0.0807 -0.5706
11729TIP3    H156678   1.605   0.425  30.796  0.3079 -2.0894  0.4037
11729TIP3    H256679   1.643   0.542  30.885 -1.4601 -0.1812 -1.2133
11730TIP3   OH256680   2.430   0.103 102.264  0.1808 -0.2224 -0.4311
11730TIP3    H156681   2.501   0.064 102.313  0.5754  1.8772  0.7757
11730TIP3    H256682   2.465   0.115 102.176  1.6759  1.5145  0.3398
11731TIP3   OH256683   1.497   1.146  80.093 -0.0157 -0.5354  0.3676
11731TIP3    H156684   1.417   1.158  80.144  0.5987 -0.2218  1.2803
11731TIP3    H256685   1.484   1.062  80.049 -0.9256 -0.3941  0.3401
11732TIP3   OH256686   2.129   1.057  97.209 -0.5231 -0.1253 -0.1931
11732TIP3    H156687   2.038   1.081  97.193 -1.0153 -0.3653  1.9780
11732TIP3    H256688   2.147   0.986  97.147 -1.8228 -0.1607 -0.5504
11733TIP3   OH256689   2.472   0.108  18.439 -0.2906 -0.1739  0.0292
11733TIP3    H156690   2.473   0.076  18.529  1.9234 -0.6302 -0.1076
11733TIP3    H256691   2.458   0.030  18.386  1.5139 -0.4216 -0.1333
11734TIP3   OH256692   0.418   0.757   2.227  0.3773 -0.0565  0.2127
11734TIP3    H156693   0.508   0.753   2.259  0.4478 -0.7422 -0.0664
11734TIP3    H256694   0.402   0.850   2.213  1.2685  0.0186 -0.3680
11735TIP3   OH256695   1.142   0.644  84.432 -0.0978  0.3478  0.1331
11735TIP3    H156696   1.193   0.724  84.446 -0.6410  0.6303  0.5065
11735TIP3    H256697   1.159   0.591  84.509  1.2687 -0.4663 -0.6758
11736TIP3   OH256698   2.072   0.769 105.757 -0.4321  0.5016 -0.3582
11736TIP3    H156699   1.991   0.747 105.712 -1.4915  1.1014  1.1612
11736TIP3    H256700   2.056   0.856 105.794  0.3916  0.0786  1.0885
11737TIP3   OH256701   2.123   0.141  35.801  0.1862 -0.0407 -0.5115
11737TIP3    H156702   2.200   0.192  35.775  0.0848  0.4070  0.0623
11737TIP3    H256703   2.148   0.097  35.882 -0.5977  1.1619  0.4078
11738TIP3   OH256704   0.307   0.317  28.423 -0.8950 -0.3790 -0.5270
11738TIP3    H156705   0.359   0.363  28.488 -0.5501  1.1672 -1.8363
11738TIP3    H256706   0.339   0.227  28.426  1.1220  0.2898 -0.5583
11739TIP3   OH256707   1.508   1.203  88.040 -0.6968  0.4014 -0.3383
11739TIP3    H156708   1.564   1.268  88.083  0.0478 -0.3386 -0.1707
11739TIP3    H256709   1.556   1.177  87.962 -0.8997 -0.0808 -0.3093
11740TIP3   OH256710   1.226   2.241  96.595  0.1674 -0.2829  0.1063
11740TIP3    H156711   1.149   2.184  96.582 -0.5690  0.9048 -1.0093
11740TIP3    H256712   1.194   2.329  96.575  1.6420  0.3473  0.4151
11741TIP3   OH256713   2.213   0.793  34.289 -0.1563 -0.0478  0.0504
11741TIP3    H156714   2.218   0.757  34.377  1.2914  0.7190  0.3228
11741TIP3    H256715   2.302   0.827  34.272 -0.0709 -1.1760 -2.1247
11742TIP3   OH256716   0.845   0.223  85.799 -0.6714  0.4450 -0.6068
11742TIP3    H156717   0.889   0.147  85.838 -2.0591  0.5654  1.3419
11742TIP3    H256718   0.754   0.195  85.788 -0.4358  0.5468 -3.6146
11743TIP3   OH256719   0.540   0.339   9.735  0.1322  0.2380  0.0296
11743TIP3    H156720   0.596   0.321   9.659  0.7733  0.4675  0.4416
11743TIP3    H256721   0.509   0.428   9.720  1.3848  0.8225  0.7066
11744TIP3   OH256722   1.035   2.631  84.945  0.4312 -0.0878 -0.2837
11744TIP3    H156723   1.015   2.592  84.860 -0.4267 -1.5919  0.5762
11744TIP3    H256724   1.131   2.628  84.950  0.4921 -0.0376 -1.1447
11745TIP3   OH256725   2.472   2.269  36.881 -0.6017  0.0462 -0.1033
11745TIP3    H156726   2.532   2.230  36.945 -0.7850 -0.8565 -0.4700
11745TIP3    H256727   2.385   2.244  36.911 -0.7173  0.0667 -0.4176
11746TIP3   OH256728   2.657   0.888  82.219  0.1419  0.1932  0.6080
11746TIP3    H156729   2.747   0.915  82.241  0.1518  1.0218 -0.3823
11746TIP3    H256730   2.650   0.799  82.254  2.2164 -0.9133 -1.5139
11747TIP3   OH256731   0.322   2.440  85.693 -0.5008  0.1003 -0.3856
11747TIP3    H156732   0.268   2.519  85.688 -0.8867 -0.2134 -1.2505
11747TIP3    H256733   0.266   2.370  85.660  0.4527 -0.2201 -1.3715
11748TIP3   OH256734   1.974   2.094  96.800 -0.9409 -0.2209  0.5067
11748TIP3    H156735   2.020   2.010  96.800 -2.6650 -1.1982  1.6856
11748TIP3    H256736   1.960   2.113  96.707  1.7721  0.1300  0.0888
11749TIP3   OH256737   0.809   1.798   8.918 -0.3690  0.1759  0.4625
11749TIP3    H156738   0.884   1.742   8.941  0.3100  1.2466  0.9724
11749TIP3    H256739   0.841   1.852   8.846 -0.5767  0.7754  0.8116
11750TIP3   OH256740   1.402   0.818  90.591 -0.0836 -0.3356  0.1315
11750TIP3    H156741   1.474   0.773  90.635 -0.3003 -1.3543 -0.5327
11750TIP3    H256742   1.420   0.809  90.498  0.5191  2.0581 -0.0591
11751TIP3   OH256743   1.187   1.392  28.077 -0.5523  0.4864  0.3709
11751TIP3    H156744   1.235   1.325  28.029  0.2622  0.6254  0.9750
11751TIP3    H256745   1.100   1.394  28.036 -0.8724 -1.5188  0.8842
11752TIP3   OH256746   2.047   0.493   7.178  0.2452 -0.4950  0.3352
11752TIP3    H156747   1.965   0.530   7.144  1.1758  0.1817 -1.2955
11752TIP3    H256748   2.022   0.407   7.212 -1.2195 -0.1087  0.2988
11753TIP3   OH256749   1.519   1.874  86.482 -0.2831  0.3127 -0.1192
11753TIP3    H156750   1.428   1.855  86.502 -0.3284  0.4393 -0.1997
11753TIP3    H256751   1.569   1.808  86.529 -0.4800 -0.5644 -1.1134
11754TIP3   OH256752   1.943   1.065   9.957 -0.3693  0.3470 -0.1284
11754TIP3    H156753   1.908   1.007   9.889  1.3856 -0.4575 -0.4001
11754TIP3    H256754   1.889   1.048  10.034 -0.9407 -0.4025 -0.6773
11755TIP3   OH256755   2.218   0.134   6.223  0.0832 -0.1484  0.0548
11755TIP3    H156756   2.189   0.188   6.297 -2.7245  1.2435 -1.8642
11755TIP3    H256757   2.230   0.196   6.152  0.8126 -1.6582 -1.1961
11756TIP3   OH256758   0.165   0.788  22.103  0.6039 -0.4900  0.4103
11756TIP3    H156759   0.234   0.723  22.089  0.6689 -0.4457  0.5202
11756TIP3    H256760   0.170   0.809  22.196 -0.6526 -1.6999  0.7826
11757TIP3   OH256761   2.681   1.596  16.655  0.1428 -0.3322  0.5144
11757TIP3    H156762   2.772   1.599  16.626  0.1620 -1.4347  0.3873
11757TIP3    H256763   2.678   1.520  16.714 -0.7010 -0.3592  0.4494
11758TIP3   OH256764   2.225   0.484  14.604  0.3969  0.6795  0.0962
11758TIP3    H156765   2.193   0.418  14.543 -0.1853  1.0996 -0.0727
11758TIP3    H256766   2.298   0.442  14.650  0.2681  0.0530 -0.2588
11759TIP3   OH256767   0.177   0.146   2.477  0.0423 -0.3566 -0.2023
11759TIP3    H156768   0.092   0.176   2.508 -0.0676 -1.2292  0.3555
11759TIP3    H256769   0.215   0.224   2.436 -0.1872  0.6009  1.2955
11760TIP3   OH256770   1.965   0.191  75.350 -0.6172 -0.0548  0.4149
11760TIP3    H156771   1.973   0.258  75.418 -0.6258  1.6247 -1.1758
11760TIP3    H256772   1.879   0.207  75.311 -0.5036 -0.8336 -0.1683
11761TIP3   OH256773   0.215   2.303  31.986 -0.0600 -0.3030  0.0948
11761TIP3    H156774   0.206   2.214  32.020  1.3362  0.1450  1.7876
11761TIP3    H256775   0.126   2.339  31.989 -0.6080 -1.5567 -0.4164
11762TIP3   OH256776   0.937   2.275  17.078 -0.4198 -0.1603 -0.6274
11762TIP3    H156777   0.987   2.239  17.152 -0.7522 -0.1163 -0.3775
11762TIP3    H256778   1.004   2.299  17.014 -0.2051 -1.5484 -0.9483
11763TIP3   OH256779   1.815   1.720  84.982 -0.6595  0.1889  0.1235
11763TIP3    H156780   1.811   1.676  84.898 -1.3873 -0.4617  0.4762
11763TIP3    H256781   1.865   1.800  84.966 -0.4977 -0.0989 -0.8387
11764TIP3   OH256782   0.260   0.219 102.715 -0.0409  0.1567 -0.2190
11764TIP3    H156783   0.355   0.215 102.707  0.1371  2.6143  0.0837
11764TIP3    H256784   0.239   0.161 102.788  1.1839 -0.5238 -0.3822
11765TIP3   OH256785   2.558   0.885  21.222  0.0741 -0.4351 -0.0762
11765TIP3    H156786   2.609   0.944  21.278  0.5848 -1.3866  0.4939
11765TIP3    H256787   2.541   0.936  21.143 -0.0280  0.6813  0.6456
11766TIP3   OH256788   1.333   1.466  94.503  0.2276 -0.7500 -0.2132
11766TIP3    H156789   1.284   1.421  94.572  0.8531  1.0681  1.5041
11766TIP3    H256790   1.400   1.403  94.477  0.0378 -1.4444  0.8998
11767TIP3   OH256791   0.179   1.830  11.275  0.1244 -0.1680  0.0365
11767TIP3    H156792   0.109   1.802  11.333  0.6950  0.6943  1.1756
11767TIP3    H256793   0.241   1.757  11.274  0.0683 -0.2204  0.4337
11768TIP3   OH256794   1.394   1.818   8.711  0.4139  0.0877  0.1165
11768TIP3    H156795   1.328   1.866   8.662 -0.9174 -1.0222  0.7419
11768TIP3    H256796   1.455   1.885   8.741  1.3176  0.8170 -2.9896
11769TIP3   OH256797   2.259   2.387  27.245  0.1628 -0.2309 -0.3144
11769TIP3    H156798   2.243   2.408  27.337  0.3163 -0.5734 -0.2079
11769TIP3    H256799   2.179   2.415  27.200 -0.3004 -0.9231  0.0577
11770TIP3   OH256800   2.447   1.935  90.605  0.4454  0.1397 -0.3895
11770TIP3    H156801   2.471   1.909  90.516 -0.6238  1.0176 -0.9521
11770TIP3    H256802   2.354   1.914  90.612  0.2940  0.9651  0.1803
11771TIP3   OH256803   1.722   1.737  85.255 -0.1432 -0.1450  0.0676
11771TIP3    H156804   1.769   1.713  85.176 -0.9411 -2.8158  0.3338
11771TIP3    H256805   1.645   1.784  85.223 -0.5095 -1.2805 -0.7753
11772TIP3   OH256806   2.412   0.121  79.913  0.3780  0.3976  0.5289
11772TIP3    H156807   2.360   0.086  79.841  2.1342 -0.6254 -0.2784
11772TIP3    H256808   2.404   0.056  79.983 -1.7619  1.6378  1.5495
11773TIP3   OH256809   0.039   1.537 109.917 -0.0256 -0.0172  0.1901
11773TIP3    H156810   0.029   1.495 110.002  0.2736 -0.5682 -0.0456
11773TIP3    H256811  -0.020   1.613 109.922 -1.2061 -0.9006  0.3267
11774TIP3   OH256812   1.427   0.779   4.749 -0.0998  0.6901 -0.2227
11774TIP3    H156813   1.450   0.724   4.824 -3.0116 -0.2866  0.0851
11774TIP3    H256814   1.427   0.720   4.674  0.0050  1.0425 -0.5081
11775TIP3   OH256815   1.076   1.911  28.378  0.1561 -0.0136 -0.3556
11775TIP3    H156816   1.095   1.922  28.471 -0.3453 -0.5478 -0.1832
11775TIP3    H256817   1.087   1.999  28.341 -0.6391  0.4152  0.3906
11776TIP3   OH256818   2.081   0.354 105.952 -0.7183 -0.3235 -0.1613
11776TIP3    H156819   2.123   0.422 106.006 -0.2150  0.1692 -1.1540
11776TIP3    H256820   2.052   0.289 106.015 -1.3190  0.8626  0.8359
11777TIP3   OH256821   1.455   1.445  74.074 -0.0732 -0.0908 -0.6705
11777TIP3    H156822   1.490   1.523  74.118  1.1869 -0.3153 -1.2440
11777TIP3    H256823   1.469   1.374  74.136 -0.5342  0.0069 -0.4477
11778TIP3   OH256824   1.014   0.573  11.187  0.0813  0.5075  0.2589
11778TIP3    H156825   0.991   0.623  11.109  0.7289 -0.5846 -0.6693
11778TIP3    H256826   1.067   0.633  11.240 -0.7452  1.4070  0.0816
11779TIP3   OH256827   0.480   2.182   2.731 -0.1822  0.0967 -0.0303
11779TIP3    H156828   0.392   2.147   2.712 -0.3200  0.2903  0.2377
11779TIP3    H256829   0.464   2.275   2.750  0.0252  0.0361  0.4440
11780TIP3   OH256830   0.982   1.894  81.717 -0.0379  0.4365  0.0093
11780TIP3    H156831   0.897   1.894  81.673  0.3875  0.0226 -0.8292
11780TIP3    H256832   1.038   1.840  81.662  0.7491  0.6191  0.6056
11781TIP3   OH256833   0.839   0.261  89.760  0.5183 -0.0141  0.4010
11781TIP3    H156834   0.916   0.317  89.765  1.2941 -1.1336  2.8360
11781TIP3    H256835   0.819   0.254  89.667  3.4957  0.1258 -0.3242
11782TIP3   OH256836   1.985   0.894  97.462  0.2123  0.6810 -0.2753
11782TIP3    H156837   1.955   0.900  97.553 -0.9298  0.3923 -0.6171
11782TIP3    H256838   1.999   0.984  97.435 -1.8975  0.9646 -0.5815
11783TIP3   OH256839   2.227   1.939  80.135  0.2230 -0.3149 -0.0988
11783TIP3    H156840   2.268   1.926  80.220  0.7121  1.6007  0.0218
11783TIP3    H256841   2.197   1.852  80.108 -0.1418 -0.9204  2.1143
11784TIP3   OH256842   1.658   0.293  93.609  0.2968 -0.4609  0.1594
11784TIP3    H156843   1.621   0.235  93.542 -0.2387  0.4912 -0.3812
11784TIP3    H256844   1.718   0.350  93.561 -0.7509  0.8133  0.3217
11785TIP3   OH256845   2.037   0.582   4.458 -0.1437  0.3495 -0.5157
11785TIP3    H156846   2.086   0.654   4.416  2.0946 -0.8706 -0.1574
11785TIP3    H256847   2.083   0.567   4.541 -0.5147 -1.5144 -0.6072
11786TIP3   OH256848   1.438   1.617 109.455 -0.4751  0.6999 -0.0735
11786TIP3    H156849   1.421   1.583 109.543  0.1605  0.8068  0.1018
11786TIP3    H256850   1.423   1.711 109.462  1.2456  0.9750  0.3828
11787TIP3   OH256851   2.606   1.661  92.818 -0.0989 -0.0444  0.5053
11787TIP3    H156852   2.521   1.657  92.862  0.5004 -2.0232  1.6521
11787TIP3    H256853   2.586   1.651  92.725 -1.1088 -1.3996  0.8301
11788TIP3   OH256854   1.087   1.307  23.520 -0.6144 -0.0878  0.1240
11788TIP3    H156855   1.012   1.362  23.494 -0.6501  0.0759  0.5646
11788TIP3    H256856   1.068   1.222  23.481 -1.3546 -0.2289  0.7712
11789TIP3   OH256857   0.139   1.893 103.041  0.2036 -0.7247  0.0766
11789TIP3    H156858   0.088   1.833 102.986  1.6900 -2.0878  0.1046
11789TIP3    H256859   0.221   1.906 102.992  0.5139  0.0803  0.7846
11790TIP3   OH256860   0.968   0.520  31.047 -0.0487 -0.1876  0.7040
11790TIP3    H156861   0.973   0.425  31.042  0.5451 -0.1385  0.3205
11790TIP3    H256862   0.953   0.547  30.956  0.1426  0.1075  0.7613
11791TIP3   OH256863   0.792   1.692  22.889 -0.2933  0.2760  0.1120
11791TIP3    H156864   0.702   1.675  22.917  0.0955  0.3929  1.5128
11791TIP3    H256865   0.846   1.639  22.949  0.6501  1.8419  0.6997
11792TIP3   OH256866   1.466   0.171  83.992  0.0167 -0.0620 -0.3508
11792TIP3    H156867   1.438   0.083  83.965  1.2191 -0.2894 -0.9413
11792TIP3    H256868   1.401   0.230  83.955 -1.5130 -0.7671  1.1006
11793TIP3   OH256869   0.202   0.877 109.667 -0.5446  0.2327 -0.5880
11793TIP3    H156870   0.282   0.898 109.619 -0.7293  0.2873 -0.8701
11793TIP3    H256871   0.134   0.871 109.600 -0.6782 -0.3491 -0.4106
11794TIP3   OH256872   0.199   0.757 109.139  0.1493 -0.1299  0.0680
11794TIP3    H156873   0.233   0.786 109.054  1.1697 -2.0413 -0.2316
11794TIP3    H256874   0.123   0.702 109.117 -0.2110  0.2119  0.4534
11795TIP3   OH256875   2.459   1.084  80.559  0.6459 -0.6784  0.6359
11795TIP3    H156876   2.402   1.061  80.486  0.3595 -0.1749  0.7026
11795TIP3    H256877   2.404   1.075  80.636  0.4285  0.5520  0.6405
11796TIP3   OH256878   1.551   0.875   6.637 -0.2683 -0.0533 -0.1859
11796TIP3    H156879   1.590   0.825   6.708  1.5811  0.6330 -0.6512
11796TIP3    H256880   1.510   0.950   6.680  1.0258  0.4736  0.1785
11797TIP3   OH256881   2.299   2.155  31.790 -0.1311  0.1780 -0.1091
11797TIP3    H156882   2.232   2.095  31.823 -0.3777  1.7724  2.6072
11797TIP3    H256883   2.321   2.209  31.865  2.0623  1.6978 -1.7324
11798TIP3   OH256884   0.107   2.428  82.772 -0.2482  0.3426 -0.3123
11798TIP3    H156885   0.069   2.437  82.684  0.1462  2.2908 -0.3300
11798TIP3    H256886   0.032   2.409  82.828 -0.6419 -0.0010 -0.9363
11799TIP3   OH256887   0.136   1.576   1.113 -0.0934  0.1756  0.0302
11799TIP3    H156888   0.176   1.564   1.199  0.5285 -2.2531 -0.5234
11799TIP3    H256889   0.204   1.619   1.061  0.2144 -0.0374  0.2500
11800TIP3   OH256890   0.116   0.248  82.411 -0.7020 -0.3707 -0.0836
11800TIP3    H156891   0.132   0.194  82.488 -2.9124 -0.2930  0.4986
11800TIP3    H256892   0.044   0.204  82.365 -3.3535  2.4861  0.9827
11801TIP3   OH256893   0.476   0.255  59.190 -0.5305  0.0805  0.4633
11801TIP3    H156894   0.558   0.252  59.142 -0.4954 -1.5106  0.5668
11801TIP3    H256895   0.498   0.298  59.273  0.1905 -0.3208  0.4848
11802TIP3   OH256896   0.500   0.858  20.173  0.0929  0.4248 -0.3626
11802TIP3    H156897   0.428   0.879  20.233 -0.1670 -0.2858 -0.4278
11802TIP3    H256898   0.463   0.796  20.111  1.3688 -1.7951  0.9896
11803TIP3   OH256899   2.302   2.397  37.344 -0.3149 -0.1868  0.3731
11803TIP3    H156900   2.213   2.375  37.315  0.4617 -1.0190 -1.6000
11803TIP3    H256901   2.337   2.316  37.381  0.2663 -0.4559 -0.7089
11804TIP3   OH256902   2.201   0.460  94.575 -0.5824 -0.0138 -0.5281
11804TIP3    H156903   2.147   0.431  94.649 -1.5868 -1.2813 -1.7115
11804TIP3    H256904   2.257   0.384  94.556  0.3061  0.6225 -0.5248
11805TIP3   OH256905   1.843   2.536  34.185  0.1806  0.5324  0.3349
11805TIP3    H156906   1.752   2.521  34.158  0.8516 -0.5972 -1.4870
11805TIP3    H256907   1.868   2.616  34.139  0.0106  1.0472  1.1290
11806TIP3   OH256908   1.471   0.907  93.923  0.2401  0.2777  0.2631
11806TIP3    H156909   1.405   0.927  93.989 -0.0642  0.2320 -0.0245
11806TIP3    H256910   1.422   0.904  93.840  0.4297 -0.6982  0.1663
11807TIP3   OH256911   2.435   1.297  90.256  0.0880  1.0312 -0.0758
11807TIP3    H156912   2.352   1.323  90.297 -1.1214 -2.4652 -0.0034
11807TIP3    H256913   2.497   1.294  90.328 -0.9333 -0.7822  0.7889
11808TIP3   OH256914   1.472   2.271  30.861  0.1228 -0.5139  0.6806
11808TIP3    H156915   1.383   2.307  30.853  0.5869  0.5092 -0.0267
11808TIP3    H256916   1.477   2.205  30.793  0.3775  0.4735 -0.2907
11809TIP3   OH256917   1.844   0.714  24.423  0.3106  0.2389 -0.3439
11809TIP3    H156918   1.925   0.763  24.429 -0.1644  0.8621  1.8110
11809TIP3    H256919   1.776   0.776  24.449 -0.4045 -1.2416  1.6785
11810TIP3   OH256920   2.388   1.314  93.665  0.0871  0.5830  0.2679
11810TIP3    H156921   2.324   1.257  93.623  0.0164 -1.0245  2.4161
11810TIP3    H256922   2.470   1.295  93.620 -0.0450 -0.8473  0.5967
11811TIP3   OH256923   0.856   2.050  74.590 -0.0444 -0.2335 -0.3147
11811TIP3    H156924   0.826   2.038  74.681  0.7945 -0.0287 -0.0027
11811TIP3    H256925   0.929   2.111  74.597  0.0155 -0.2018 -1.1361
11812TIP3   OH256926   0.169   2.280  69.170  0.5590  0.2039  0.6746
11812TIP3    H156927   0.121   2.296  69.089  2.7243  1.9018 -0.3458
11812TIP3    H256928   0.104   2.238  69.228 -1.5064  0.4426 -1.3273
11813TIP3   OH256929   2.610   1.685 106.348  0.0359  0.2068 -0.2637
11813TIP3    H156930   2.534   1.740 106.330  0.1667  0.0178 -1.4426
11813TIP3    H256931   2.644   1.718 106.432 -0.3851  1.3598 -0.5333
11814TIP3   OH256932   2.222   2.003  10.872  0.0768 -0.2005 -0.4293
11814TIP3    H156933   2.156   2.055  10.826 -1.3547 -2.2175 -0.7894
11814TIP3    H256934   2.212   2.027  10.964 -1.0194 -0.3026 -0.5074
11815TIP3   OH256935   1.560   0.741  20.526 -0.2938 -0.7067  0.3088
11815TIP3    H156936   1.584   0.731  20.618  0.3637 -0.5751  0.1559
11815TIP3    H256937   1.585   0.832  20.505 -0.3599 -0.7639 -0.0198
11816TIP3   OH256938   0.662   1.635   3.380  0.3751 -0.1570 -0.0046
11816TIP3    H156939   0.617   1.618   3.297  0.5678 -0.1796 -0.1060
11816TIP3    H256940   0.654   1.730   3.393  0.6217 -0.1065 -0.2120
11817TIP3   OH256941   1.913   0.921   8.721  0.4294 -0.2399 -0.1420
11817TIP3    H156942   1.928   0.862   8.647  1.5316 -0.8925  0.5750
11817TIP3    H256943   1.956   1.003   8.696 -0.0419 -0.1412 -0.6278
11818TIP3   OH256944   2.472   0.609   9.517  0.2278  0.2430 -0.1369
11818TIP3    H156945   2.501   0.544   9.454  1.6119  0.3063  0.4020
11818TIP3    H256946   2.548   0.623   9.574 -0.1573  2.0325  0.0003
11819TIP3   OH256947   0.446   1.097 105.717  0.4183 -0.5140 -0.2138
11819TIP3    H156948   0.407   1.184 105.707  0.5095 -0.2115  1.6970
11819TIP3    H256949   0.530   1.114 105.760  0.6433 -1.5213 -0.2325
11820TIP3   OH256950   1.194   2.344  81.643  0.0084 -0.2767 -0.4523
11820TIP3    H156951   1.182   2.396  81.563 -0.5262 -1.0888 -0.9116
11820TIP3    H256952   1.264   2.390  81.690 -2.4866  2.7209  0.6996
11821TIP3   OH256953   0.866   2.538  27.880  0.1660 -0.2995 -0.4247
11821TIP3    H156954   0.865   2.597  27.955 -1.3106 -1.0114  0.1712
11821TIP3    H256955   0.950   2.554  27.837  0.5628  0.9188  0.7390
11822TIP3   OH256956   0.693   0.489  19.465 -0.1610 -0.0080  0.0638
11822TIP3    H156957   0.659   0.536  19.389 -0.1766  0.4708  0.3650
11822TIP3    H256958   0.625   0.424  19.484 -0.4925  0.3415  0.1031
11823TIP3   OH256959   2.110   0.945 108.610  0.0828  0.0254  0.0180
11823TIP3    H156960   2.036   1.002 108.591  0.1761 -0.4174 -1.8496
11823TIP3    H256961   2.084   0.860 108.575  0.2331 -0.9548  2.1188
11824TIP3   OH256962   1.426   0.400  93.150  0.1842 -0.0035 -0.3769
11824TIP3    H156963   1.449   0.489  93.178  0.7756  0.1425 -1.2817
11824TIP3    H256964   1.343   0.382  93.194 -0.3586  1.3186 -0.8328
11825TIP3   OH256965   1.908   1.412  25.196  0.4000  0.1444 -0.2119
11825TIP3    H156966   1.862   1.392  25.114  1.2734  3.6016 -1.7074
11825TIP3    H256967   2.000   1.419  25.170  0.7666  0.7437  1.2037
11826TIP3   OH256968   1.577   1.110 110.816  0.2804  0.2250  0.0100
11826TIP3    H156969   1.600   1.123 110.724 -3.0127 -0.2017 -1.0094
11826TIP3    H256970   1.549   1.018 110.821 -3.1544  1.1305  0.4000
11827TIP3   OH256971   0.409   1.464  30.309  0.1430 -0.3145  0.0153
11827TIP3    H156972   0.439   1.542  30.261  1.0852  0.3264  1.5729
11827TIP3    H256973   0.487   1.408  30.314 -0.4398 -1.2244 -0.7932
11828TIP3   OH256974   1.726   0.499  27.114 -0.0552 -0.0497 -0.1469
11828TIP3    H156975   1.783   0.576  27.118 -0.8345  0.5035  0.5898
11828TIP3    H256976   1.656   0.525  27.055 -0.1069 -0.3408 -0.2126
11829TIP3   OH256977   1.478   0.405 111.078  0.3271  0.6667 -0.7270
11829TIP3    H156978   1.547   0.471 111.079 -0.1937  1.3089  2.0701
11829TIP3    H256979   1.416   0.436 111.012  0.2960  2.7883  0.2165
11830TIP3   OH256980   1.110   2.591 112.141 -0.4896 -0.2495  0.0377
11830TIP3    H156981   1.183   2.544 112.100 -0.0525  1.0146 -0.6825
11830TIP3    H256982   1.035   2.570 112.085  0.1214  1.5438 -1.5624
11831TIP3   OH256983   1.684   1.954  17.661  0.4286 -0.0238  0.2702
11831TIP3    H156984   1.597   1.962  17.700  0.0052  1.7322 -0.9057
11831TIP3    H256985   1.668   1.941  17.567  1.4224  0.4943  0.0123
11832TIP3   OH256986   1.131   0.205  94.258  0.4132  0.4119 -0.0114
11832TIP3    H156987   1.166   0.237  94.175  1.0366 -1.0010 -0.3290
11832TIP3    H256988   1.039   0.185  94.240  0.5624  0.0556 -0.3839
11833TIP3   OH256989   1.245   0.048 107.393  0.1111  0.2363 -0.3214
11833TIP3    H156990   1.238   0.003 107.476  0.2015 -0.8959 -0.9114
11833TIP3    H256991   1.339   0.055 107.377  0.1001 -1.0619 -1.1008
11834TIP3   OH256992   0.440   1.337  24.929 -0.5745 -0.0866  0.4957
11834TIP3    H156993   0.455   1.367  24.839  1.6768 -0.6543  0.6112
11834TIP3    H256994   0.348   1.310  24.931 -0.0630 -2.6627 -2.4787
11835TIP3   OH256995   2.645   0.317  11.663 -0.2543 -0.2566 -0.0522
11835TIP3    H156996   2.701   0.342  11.590 -0.0167  0.4092  0.3507
11835TIP3    H256997   2.682   0.235  11.695  2.5541  1.7025  2.2551
11836TIP3   OH256998   1.967   0.531  99.109  0.5476 -0.4322  0.0140
11836TIP3    H156999   2.033   0.580  99.158  0.9735  0.3876 -1.3294
11836TIP3    H257000   2.001   0.527  99.020 -1.0260 -0.3314 -0.6218
11837TIP3   OH257001   1.175   2.454  96.370  0.3552 -0.3684 -0.1402
11837TIP3    H157002   1.084   2.433  96.350  0.2194  0.8016 -0.8354
11837TIP3    H257003   1.187   2.543  96.337  0.6093  1.1331  3.4657
11838TIP3   OH257004   0.132   0.139  63.699  0.9880 -0.2827  0.1368
11838TIP3    H157005   0.061   0.085  63.733  2.0602 -0.4499  2.2655
11838TIP3    H257006   0.136   0.214  63.758  0.4844  1.4566 -1.8995
11839TIP3   OH257007   0.020   1.534   5.238  0.1104  0.6938 -0.0503
11839TIP3    H157008  -0.040   1.608   5.243 -1.3643 -0.3993 -0.7023
11839TIP3    H257009  -0.037   1.458   5.225  1.5565 -0.5755  0.6676
11840TIP3   OH257010   1.638   1.416  26.189 -0.0355  0.2967  0.4861
11840TIP3    H157011   1.565   1.476  26.176  1.2573  1.6623 -0.7449
11840TIP3    H257012   1.713   1.472  26.210  1.1556 -0.8828 -0.4335
11841TIP3   OH257013   2.020   2.187  14.010 -0.0156 -0.5237 -0.3335
11841TIP3    H157014   1.928   2.179  14.033  0.2504 -0.4702  0.8205
11841TIP3    H257015   2.060   2.229  14.086  1.1547 -1.5715 -0.3405
11842TIP3   OH257016   2.019   0.337  95.245  0.4152 -0.5888  0.9978
11842TIP3    H157017   1.950   0.308  95.304 -0.1613 -0.4128  0.4288
11842TIP3    H257018   2.092   0.278  95.261  0.2242 -0.6140  1.7940
11843TIP3   OH257019   0.731   2.097  99.511  0.1613 -0.0123 -0.1230
11843TIP3    H157020   0.658   2.040  99.535 -0.1206 -0.6902 -2.3795
11843TIP3    H257021   0.706   2.134  99.426  0.2825  3.6206  1.2241
11844TIP3   OH257022   1.627   0.023  80.091  0.4364 -0.0278 -0.1467
11844TIP3    H157023   1.691   0.090  80.067 -0.8713  0.5416 -2.2481
11844TIP3    H257024   1.560   0.070  80.140  0.1181 -0.0199 -0.5862
11845TIP3   OH257025   0.892   0.778 103.894 -0.1167  0.0632 -0.1718
11845TIP3    H157026   0.973   0.829 103.896  0.7575 -1.2870  0.6999
11845TIP3    H257027   0.891   0.737 103.807  0.9391 -1.0966  0.3308
11846TIP3   OH257028   1.797   1.116 109.229  0.0276 -0.0407  0.2995
11846TIP3    H157029   1.813   1.208 109.248  0.7036 -0.1700  0.3935
11846TIP3    H257030   1.822   1.070 109.310  1.1038 -0.4323 -0.2334
11847TIP3   OH257031   0.020   2.635  23.522 -0.1690 -0.0286  0.2635
11847TIP3    H157032   0.007   2.578  23.446 -0.1837 -0.0474  0.2790
11847TIP3    H257033   0.082   2.588  23.578 -0.1992 -0.0398  0.2885
11848TIP3   OH257034   1.472   1.023   2.549 -0.1660  0.2004 -0.2307
11848TIP3    H157035   1.444   0.932   2.537  0.4802 -0.1478  0.7476
11848TIP3    H257036   1.435   1.049   2.633  0.2064  0.6169 -0.1890
11849TIP3   OH257037   1.748   0.560   0.626  0.2938 -0.0791  0.0116
11849TIP3    H157038   1.782   0.504   0.556 -0.5820  0.9377 -1.2781
11849TIP3    H257039   1.821   0.568   0.687  0.9542 -1.3297 -0.5594
11850TIP3   OH257040   0.811   1.023  10.627 -1.0241  0.1668 -0.1308
11850TIP3    H157041   0.720   1.004  10.649 -0.4095 -0.3079  2.2917
11850TIP3    H257042   0.851   1.046  10.710  1.3873 -0.8706 -0.9364
11851TIP3   OH257043   1.997   0.736  84.533 -0.0878  0.2012  0.0158
11851TIP3    H157044   1.903   0.752  84.532  0.1219  1.9642  2.1318
11851TIP3    H257045   2.037   0.821  84.515  1.0622  0.1974  2.1401
11852TIP3   OH257046   0.730   1.421 110.409  0.0648  0.3529 -0.1127
11852TIP3    H157047   0.725   1.508 110.370  2.1767  0.5160 -0.1511
11852TIP3    H257048   0.689   1.432 110.495 -0.4598  1.1564 -0.4456
11853TIP3   OH257049   0.443   0.414  14.692 -0.1454 -0.5852  0.2730
11853TIP3    H157050   0.381   0.482  14.666 -0.5232 -1.0321 -0.0272
11853TIP3    H257051   0.424   0.399  14.785 -1.9915 -2.1938 -0.2807
11854TIP3   OH257052   1.604   1.431  27.894  0.5294 -0.3248  0.2994
11854TIP3    H157053   1.692   1.395  27.900  0.6254 -0.0080  0.8326
11854TIP3    H257054   1.547   1.355  27.882  0.7714 -0.6173  1.0042
11855TIP3   OH257055   2.464   2.034  90.001 -0.4123  0.3295 -0.6484
11855TIP3    H157056   2.450   2.116  89.954 -0.1416  1.2145  0.7548
11855TIP3    H257057   2.497   1.974  89.935 -2.2406  0.8061 -2.0982
11856TIP3   OH257058   0.786   1.975  35.571 -0.4226 -0.0710  0.1016
11856TIP3    H157059   0.723   1.986  35.642 -2.2116 -1.2605 -1.2077
11856TIP3    H257060   0.760   2.039  35.505 -0.0405 -0.3410 -0.3194
11857TIP3   OH257061   2.085   1.618   7.327 -0.0621 -0.0348 -0.3296
11857TIP3    H157062   2.126   1.699   7.358 -0.7361  0.2596 -0.2024
11857TIP3    H257063   2.156   1.572   7.281  0.6190  0.1106  0.5369
11858TIP3   OH257064   2.350   2.594   8.876 -0.4049 -0.1158  0.1817
11858TIP3    H157065   2.284   2.582   8.945 -1.1061  0.2750 -0.4075
11858TIP3    H257066   2.416   2.652   8.916 -0.1549 -0.9087  0.9414
11859TIP3   OH257067   2.235   2.164  46.845  0.5709  0.2483  0.1849
11859TIP3    H157068   2.205   2.097  46.906 -1.4591 -0.1272 -1.0979
11859TIP3    H257069   2.164   2.170  46.780  2.1853  1.2986 -1.5863
11860TIP3   OH257070   0.390   0.691  34.125  0.4094  0.4449  0.1982
11860TIP3    H157071   0.480   0.713  34.150  0.0768  0.6615  1.2407
11860TIP3    H257072   0.399   0.645  34.041  1.4413  0.9717  0.0086
11861TIP3   OH257073   1.923   2.038  31.582  0.7539  0.2088  0.0392
11861TIP3    H157074   1.912   2.111  31.521 -0.0481 -0.8159 -1.1131
11861TIP3    H257075   1.912   1.960  31.527 -2.9726 -0.7974  1.8883
11862TIP3   OH257076   0.471   2.020  17.070  0.0360  0.0887  0.2817
11862TIP3    H157077   0.527   1.985  17.140 -1.5947 -1.5734  0.8365
11862TIP3    H257078   0.384   1.988  17.092 -0.6747  0.2898 -2.0481
11863TIP3   OH257079   0.962   1.803  82.237 -0.4383 -0.0818  0.0896
11863TIP3    H157080   1.056   1.794  82.228 -0.4152  0.0616  0.1726
11863TIP3    H257081   0.927   1.795  82.148 -0.5100 -1.8363  0.2559
11864TIP3   OH257082   2.277   2.472  10.334 -0.2920 -0.8331 -0.1534
11864TIP3    H157083   2.268   2.450  10.241 -1.4338 -1.8765  0.1693
11864TIP3    H257084   2.198   2.521  10.355  0.3918  0.1982  0.0753
11865TIP3   OH257085   1.157   2.272   5.619  0.1923 -0.0335  0.0253
11865TIP3    H157086   1.195   2.298   5.536 -0.9647 -0.2068 -0.5699
11865TIP3    H257087   1.213   2.314   5.685 -0.8415  2.9512 -0.8418
11866TIP3   OH257088   0.055   1.043  86.796  0.4523  0.6114 -0.2199
11866TIP3    H157089   0.015   1.130  86.804  1.1039  0.8240  0.8285
11866TIP3    H257090   0.135   1.058  86.747 -1.7948 -0.1744 -4.7057
11867TIP3   OH257091   1.970   0.223  14.287  0.1804 -0.0710 -0.1925
11867TIP3    H157092   1.990   0.216  14.381 -1.2504  0.6159  0.2078
11867TIP3    H257093   2.053   0.243  14.245  0.6403  0.8550  1.1024
11868TIP3   OH257094   1.571   0.089  30.693  0.0974 -0.3375  0.2958
11868TIP3    H157095   1.569   0.012  30.636 -2.6259  0.1062 -0.3314
11868TIP3    H257096   1.511   0.068  30.764  0.3274  0.7113  0.8142
11869TIP3   OH257097   1.439   1.604 111.500 -0.0200  0.1412  0.5088
11869TIP3    H157098   1.347   1.623 111.480  0.1825  1.5584  0.8158
11869TIP3    H257099   1.473   1.563 111.420 -0.9973 -0.7748  0.5272
11870TIP3   OH257100   0.556   2.372 103.610 -0.6211 -0.6050 -0.1838
11870TIP3    H157101   0.625   2.307 103.596 -0.4661 -0.5618  0.3523
11870TIP3    H257102   0.583   2.420 103.689 -0.6236  0.2566 -0.6961
11871TIP3   OH257103   1.907   0.600  91.008  0.0164  0.0561  0.2090
11871TIP3    H157104   1.927   0.524  91.063 -0.0775 -0.0774  0.0615
11871TIP3    H257105   1.891   0.563  90.921  1.4697  0.3921 -0.2308
11872TIP3   OH257106   0.282   2.002  47.608  0.0524 -0.8838  0.7232
11872TIP3    H157107   0.266   2.096  47.598 -0.0269 -0.7881  1.6903
11872TIP3    H257108   0.198   1.965  47.634  0.0584 -1.2449  0.2438
11873TIP3   OH257109   0.216   0.803  86.896  0.0382 -0.1853  0.0657
11873TIP3    H157110   0.164   0.837  86.969  1.2001 -2.0818  1.9005
11873TIP3    H257111   0.228   0.710  86.916  2.5455 -0.2309 -1.2101
11874TIP3   OH257112   1.209   0.278   9.047 -0.9224  0.3971  0.0572
11874TIP3    H157113   1.125   0.233   9.040 -0.4681 -0.7700  1.4581
11874TIP3    H257114   1.257   0.227   9.112  0.9961  0.8545 -0.9417
11875TIP3   OH257115   1.388   1.759 109.047 -0.0761 -0.0427  0.6377
11875TIP3    H157116   1.329   1.819 109.003  0.6969  1.3184  1.3961
11875TIP3    H257117   1.331   1.690 109.081 -0.8528 -0.3523 -1.1721
11876TIP3   OH257118   0.509   2.297  89.195 -0.3456 -0.2017 -0.5966
11876TIP3    H157119   0.490   2.289  89.288 -0.1026 -0.6088 -0.5782
11876TIP3    H257120   0.525   2.207  89.166 -0.2764 -0.0622 -0.9989
11877TIP3   OH257121   2.245   0.027  23.472  0.1355  0.2928  0.2046
11877TIP3    H157122   2.325   0.063  23.510  2.1628 -1.4015 -2.2279
11877TIP3    H257123   2.226   0.084  23.398  0.5799 -0.7743 -0.7495
11878TIP3   OH257124   1.650   1.116  88.921 -0.0045  0.1547 -0.2497
11878TIP3    H157125   1.709   1.043  88.904 -0.8349 -0.2720 -1.4805
11878TIP3    H257126   1.566   1.075  88.942 -0.1158  0.7545  0.5234
11879TIP3   OH257127   1.443   0.692  34.133 -0.3900 -0.4341  0.4277
11879TIP3    H157128   1.496   0.769  34.153 -1.0769  0.5771 -1.4413
11879TIP3    H257129   1.358   0.710  34.175 -0.9054  0.3649 -0.9136
11880TIP3   OH257130   2.172   1.152  89.493 -0.1407 -0.3834 -0.0352
11880TIP3    H157131   2.088   1.113  89.469  0.6078 -1.0988 -1.6331
11880TIP3    H257132   2.161   1.177  89.584 -1.7624 -1.3705  0.0882
11881TIP3   OH257133   1.140   1.077  88.814  0.0762 -0.2703  0.0979
11881TIP3    H157134   1.071   1.015  88.835 -1.6682  2.1542  2.0979
11881TIP3    H257135   1.111   1.120  88.733 -0.7776  0.6414  0.8548
11882TIP3   OH257136   0.913   0.195  85.409 -0.1173  0.0246  0.6395
11882TIP3    H157137   0.957   0.173  85.491 -0.1243 -0.7368  0.4431
11882TIP3    H257138   0.821   0.208  85.434 -0.3055 -1.1395  0.6193
11883TIP3   OH257139   1.111   0.170  34.844  0.4176  0.7107  0.1651
11883TIP3    H157140   1.142   0.260  34.834 -0.4182  0.9929  0.0785
11883TIP3    H257141   1.047   0.175  34.915 -2.0513  0.7993 -1.9527
11884TIP3   OH257142   0.689   1.513  24.222  0.0595 -0.4296 -0.2938
11884TIP3    H157143   0.611   1.461  24.202 -0.5430  0.3670 -0.0714
11884TIP3    H257144   0.657   1.602  24.229  0.7485 -0.2604  1.1899
11885TIP3   OH257145   0.898   0.787   5.675  0.0376 -0.4229  0.1940
11885TIP3    H157146   0.811   0.816   5.703 -0.5294 -0.5699 -1.2811
11885TIP3    H257147   0.912   0.705   5.721 -0.9004 -0.7168 -0.0122
11886TIP3   OH257148   0.749   0.895 109.562  0.1704 -0.3445 -0.3490
11886TIP3    H157149   0.789   0.964 109.510 -1.3713  0.3362 -0.6876
11886TIP3    H257150   0.787   0.814 109.529  0.2523  0.1779 -1.5710
11887TIP3   OH257151   1.288   1.652 104.657  0.9179  0.2550 -0.3307
11887TIP3    H157152   1.306   1.673 104.748 -0.9082  0.2107  0.0737
11887TIP3    H257153   1.333   1.720 104.607  0.7390  1.1172  0.6588
11888TIP3   OH257154   1.667   1.027  76.042 -0.7267  0.1069  0.5411
11888TIP3    H157155   1.579   1.023  76.005 -0.0852 -2.4099 -0.9433
11888TIP3    H257156   1.661   1.094  76.110 -3.5016  0.7309 -0.1789
11889TIP3   OH257157   1.413   2.448 105.052  0.0947  0.3131 -0.1531
11889TIP3    H157158   1.450   2.363 105.075  0.0239  0.6885  1.5356
11889TIP3    H257159   1.449   2.508 105.118 -1.5326  1.1667  0.0267
11890TIP3   OH257160   0.273   0.226  27.593  0.2626 -0.2722 -0.1408
11890TIP3    H157161   0.299   0.314  27.618  0.5838 -0.7861  1.3961
11890TIP3    H257162   0.224   0.193  27.668 -0.2810 -1.2311 -0.8982
11891TIP3   OH257163   0.673   0.219  13.305 -0.2779  0.2220  0.0479
11891TIP3    H157164   0.597   0.275  13.287 -0.5704 -0.3593 -0.5907
11891TIP3    H257165   0.749   0.277  13.295 -0.6481  0.8872  1.0068
11892TIP3   OH257166   2.677   2.251  15.185 -0.1776 -0.6243  0.1727
11892TIP3    H157167   2.591   2.219  15.156 -0.6572  1.5341 -0.9605
11892TIP3    H257168   2.735   2.232  15.111 -0.6312  1.6661 -0.8398
11893TIP3   OH257169   0.255   2.615  74.042  0.0312 -0.4631 -0.2929
11893TIP3    H157170   0.237   2.679  73.974  0.9110 -0.2139 -0.3123
11893TIP3    H257171   0.346   2.631  74.066 -0.3206 -0.4311  1.0722
11894TIP3   OH257172   2.493   1.695 103.758  0.1669  0.4402 -0.4091
11894TIP3    H157173   2.558   1.763 103.744  0.1779  0.3168 -0.9640
11894TIP3    H257174   2.427   1.709 103.690 -0.4362  0.6160  0.2006
11895TIP3   OH257175   1.688   1.422  81.430  0.2849  0.6401 -0.9697
11895TIP3    H157176   1.752   1.377  81.485 -2.6282 -1.0490  1.3806
11895TIP3    H257177   1.729   1.505  81.407  2.6699  0.3557  1.7330
11896TIP3   OH257178   0.736   0.542 109.029 -0.9466 -0.0232  0.1284
11896TIP3    H157179   0.766   0.588 109.107  0.5392 -0.7862  0.0599
11896TIP3    H257180   0.684   0.606 108.981 -0.6238  0.9249  1.0210
11897TIP3   OH257181   1.203   1.915  79.368 -0.2531  0.2499  0.1860
11897TIP3    H157182   1.298   1.917  79.381 -0.1658  1.2734 -0.4741
11897TIP3    H257183   1.174   1.838  79.416  0.7808  0.5013  1.2614
11898TIP3   OH257184   2.436   2.032  23.936  0.0350  0.6418 -0.6828
11898TIP3    H157185   2.465   2.118  23.967  1.3472 -0.2957  0.8337
11898TIP3    H257186   2.437   2.039  23.840  1.8741  1.7736 -0.6206
11899TIP3   OH257187   1.821   1.750  97.315  0.3126  0.3059 -0.2708
11899TIP3    H157188   1.881   1.812  97.273  0.9075  0.1581  0.3372
11899TIP3    H257189   1.750   1.739  97.253 -0.4382  2.5556  0.1037
11900TIP3   OH257190   1.861   2.155  74.840  0.4391 -0.1093 -0.6550
11900TIP3    H157191   1.800   2.180  74.771 -0.0267 -0.3875 -0.3461
11900TIP3    H257192   1.933   2.111  74.793  1.0150  1.3100 -1.1445
11901TIP3   OH257193   0.397   0.617   4.660  0.1568 -0.2237  0.3070
11901TIP3    H157194   0.313   0.590   4.623  1.2421 -0.4422 -2.1556
11901TIP3    H257195   0.461   0.598   4.592  2.0622  1.0916  1.6282
11902TIP3   OH257196   0.662   1.301   9.743  0.0746 -0.0126 -0.4346
11902TIP3    H157197   0.690   1.248   9.818  0.3967  1.5138  0.5606
11902TIP3    H257198   0.696   1.255   9.667  0.8366 -0.9294  0.4359
11903TIP3   OH257199   1.820   1.673  22.986 -0.2397  0.4551  0.4111
11903TIP3    H157200   1.900   1.668  23.038 -2.4801 -0.7264  4.0840
11903TIP3    H257201   1.807   1.584  22.953  1.0053  1.1299 -2.1673
11904TIP3   OH257202   0.328   0.395  38.232  0.2458  0.1627 -0.2149
11904TIP3    H157203   0.345   0.485  38.206  2.3692  0.7200  2.6321
11904TIP3    H257204   0.236   0.394  38.259  0.5001  1.8158  0.8222
11905TIP3   OH257205   2.618   2.316 106.616 -0.0539  0.1436  0.3953
11905TIP3    H157206   2.626   2.319 106.520 -1.2231  1.3808  0.3048
11905TIP3    H257207   2.688   2.257 106.644  1.5434  1.2466 -1.0708
11906TIP3   OH257208   0.996   1.662   3.150 -0.2719  0.3368  0.4941
11906TIP3    H157209   0.983   1.756   3.138  2.3837  0.7355  0.2618
11906TIP3    H257210   1.012   1.652   3.244 -1.1126  0.0168  0.6107
11907TIP3   OH257211   2.538   2.044 110.733  0.0167 -0.1453 -0.5097
11907TIP3    H157212   2.531   2.131 110.694 -0.7254 -0.1141 -0.3123
11907TIP3    H257213   2.521   2.058 110.826  2.4018 -0.1122 -0.0107
11908TIP3   OH257214   1.688   1.759  12.316 -0.2677  0.0594 -0.5999
11908TIP3    H157215   1.683   1.838  12.369 -1.8213 -0.7663  0.5591
11908TIP3    H257216   1.600   1.749  12.279 -0.5194 -1.8088  0.3584
11909TIP3   OH257217   0.174   2.127  31.723  0.4212 -0.0553  0.5240
11909TIP3    H157218   0.102   2.133  31.785 -0.8018 -1.0701 -0.7309
11909TIP3    H257219   0.160   2.200  31.663  0.5309 -0.1557  0.3752
11910TIP3   OH257220   1.750   1.749  94.724 -0.2239 -0.2457  0.0069
11910TIP3    H157221   1.748   1.761  94.629 -1.4770 -5.1320 -0.8576
11910TIP3    H257222   1.830   1.698  94.740 -1.7331 -2.4604  0.9480
11911TIP3   OH257223   2.490   1.536  88.574  0.0151 -0.0092  0.3235
11911TIP3    H157224   2.416   1.512  88.518 -0.6835  1.0322  0.7571
11911TIP3    H257225   2.455   1.606  88.629  1.6770  1.3558 -0.2855
11912TIP3   OH257226   1.705   0.143 107.284  0.1984 -0.3654  0.4199
11912TIP3    H157227   1.779   0.152 107.224 -0.4714 -0.5265 -0.4618
11912TIP3    H257228   1.744   0.112 107.366  1.1639  0.0852  0.1476
11913TIP3   OH257229   1.514   1.043  86.750  0.4367  0.2020  0.4974
11913TIP3    H157230   1.537   1.006  86.665  2.4702  0.3309  0.9486
11913TIP3    H257231   1.542   0.977  86.813 -0.1493  0.5406  1.1269
11914TIP3   OH257232   2.399   2.478  36.418  0.6100  0.0449 -0.1268
11914TIP3    H157233   2.372   2.568  36.400  1.7934  0.4119 -0.1833
11914TIP3    H257234   2.357   2.457  36.501 -0.7754  0.1582 -0.7788
11915TIP3   OH257235   2.281   1.207   5.316  0.4685  0.2937  0.0435
11915TIP3    H157236   2.276   1.301   5.300 -1.2064  0.1546 -0.5199
11915TIP3    H257237   2.258   1.168   5.231  0.1529 -0.6055  0.5336
11916TIP3   OH257238   0.222   2.529  21.274 -0.2824 -0.3329 -0.2018
11916TIP3    H157239   0.139   2.560  21.237 -1.1029 -2.5823 -0.3943
11916TIP3    H257240   0.207   2.526  21.368  0.1109  0.6681 -0.0976
11917TIP3   OH257241   1.125   0.095  21.318  0.4995 -0.3368 -0.0556
11917TIP3    H157242   1.160   0.007  21.329 -1.2708 -1.1220 -0.2606
11917TIP3    H257243   1.192   0.142  21.268  1.1865 -1.7662 -0.5305
11918TIP3   OH257244   2.182   0.533  64.122  0.0626  0.5133  0.9704
11918TIP3    H157245   2.140   0.585  64.054  1.1746  0.8610  0.5168
11918TIP3    H257246   2.276   0.547  64.107  0.3489  1.7324  3.4165
11919TIP3   OH257247   0.480   0.683 109.492  0.0700  0.2682 -0.1336
11919TIP3    H157248   0.458   0.631 109.570 -0.0878 -0.2723 -0.5313
11919TIP3    H257249   0.575   0.690 109.495  0.0985 -0.0897 -0.0957
11920TIP3   OH257250   0.814   0.399  12.691  0.3135 -0.3720  0.0553
11920TIP3    H157251   0.790   0.489  12.714 -0.4371 -0.4796 -0.2871
11920TIP3    H257252   0.778   0.386  12.603 -0.2371 -1.2413  0.3940
11921TIP3   OH257253   2.356   0.735  47.393 -0.6581 -0.0337  0.5538
11921TIP3    H157254   2.308   0.652  47.390 -0.8293  0.0823 -0.0782
11921TIP3    H257255   2.350   0.769  47.304  1.4257 -0.5046  0.1740
11922TIP3   OH257256   1.593   0.351   3.839 -0.1922 -0.1731  0.3659
11922TIP3    H157257   1.669   0.321   3.889  0.4029  0.5006 -0.1105
11922TIP3    H257258   1.598   0.304   3.756 -0.2887 -0.1163  0.3272
11923TIP3   OH257259   2.040   0.360  19.516 -0.0990 -0.8599 -0.7531
11923TIP3    H157260   2.087   0.279  19.499  2.6076  0.6081 -0.7586
11923TIP3    H257261   2.039   0.368  19.611  0.2994 -0.5371 -0.7760
11924TIP3   OH257262   2.406   1.345   2.836 -0.0081  0.1438  0.3808
11924TIP3    H157263   2.420   1.268   2.780  0.8753  0.1533  0.5842
11924TIP3    H257264   2.447   1.322   2.919  0.2881  0.8503  0.4362
11925TIP3   OH257265   1.386   0.541  92.100  0.5381 -0.3116  0.0116
11925TIP3    H157266   1.437   0.528  92.020  3.9191 -0.0734  1.9748
11925TIP3    H257267   1.350   0.630  92.091  1.1294 -0.1563 -1.0651
11926TIP3   OH257268   2.611   0.985  15.713  0.3117 -0.0329  0.0520
11926TIP3    H157269   2.562   0.927  15.655  2.1996 -0.4804 -1.1712
11926TIP3    H257270   2.614   1.069  15.667 -1.8103  0.9412  1.5024
11927TIP3   OH257271   0.182   1.374  33.021 -0.1016 -0.0325 -0.4918
11927TIP3    H157272   0.237   1.397  33.095  1.2009  2.5101 -2.0803
11927TIP3    H257273   0.118   1.445  33.017 -0.3813 -0.3303 -1.5739
11928TIP3   OH257274   0.523   1.729 109.343 -0.7062  0.1442  0.1954
11928TIP3    H157275   0.598   1.689 109.386 -0.6984  0.6204  0.6417
11928TIP3    H257276   0.447   1.697 109.391 -0.6458  1.3332  1.1261
11929TIP3   OH257277   0.294   0.241  51.940 -0.8152  0.2287 -0.3189
11929TIP3    H157278   0.235   0.299  51.891 -1.6586 -0.4854 -0.1888
11929TIP3    H257279   0.247   0.221  52.021  1.5999  3.3866  2.0858
11930TIP3   OH257280   0.121   0.392 107.137  0.1492  0.6696 -0.0953
11930TIP3    H157281   0.127   0.374 107.231 -0.4002  1.6835  0.1530
11930TIP3    H257282   0.103   0.307 107.097  1.4789  0.0292  0.5880
11931TIP3   OH257283   2.198   2.679  12.477 -0.4079  0.7661  0.1737
11931TIP3    H157284   2.185   2.589  12.508 -1.8442  0.9096  0.0231
11931TIP3    H257285   2.121   2.726  12.506  0.5504  2.0876  0.6545
11932TIP3   OH257286   2.661   1.985  17.743 -0.0630  0.5534  0.4846
11932TIP3    H157287   2.675   1.894  17.768 -0.1456  0.2002 -0.6886
11932TIP3    H257288   2.747   2.015  17.712 -0.1723  0.6845  0.3039
11933TIP3   OH257289   2.454   2.319  89.897  0.1147 -0.6074 -0.8023
11933TIP3    H157290   2.542   2.339  89.866 -0.1576 -1.9431 -2.5945
11933TIP3    H257291   2.409   2.404  89.898  1.0545 -0.0917 -1.0732
11934TIP3   OH257292   0.585   1.091  80.744 -0.0587  0.0943 -0.1790
11934TIP3    H157293   0.593   1.104  80.650  1.9299  1.2153  0.0761
11934TIP3    H257294   0.623   1.170  80.783  1.5522 -1.3897  1.5282
11935TIP3   OH257295   0.443   0.419  35.573 -0.5049  0.0874 -0.0070
11935TIP3    H157296   0.496   0.356  35.621 -0.3272 -0.8149 -1.3330
11935TIP3    H257297   0.354   0.406  35.607 -0.3629 -0.4489  0.1742
11936TIP3   OH257298   1.072   2.175  17.298 -0.7158  0.5640  0.5004
11936TIP3    H157299   1.067   2.084  17.269  0.2243  0.3391  1.0146
11936TIP3    H257300   1.060   2.171  17.393  2.8836  0.5156  1.1000
11937TIP3   OH257301   0.748   0.901  93.701  0.4191 -0.5875 -0.1469
11937TIP3    H157302   0.784   0.814  93.716 -2.2336 -1.8517 -0.5401
11937TIP3    H257303   0.663   0.899  93.745  0.3282  1.8750 -0.0663
11938TIP3   OH257304   0.204   0.622  19.529 -0.6170  0.0968  0.6175
11938TIP3    H157305   0.252   0.548  19.566 -0.5555 -0.2234 -0.0762
11938TIP3    H257306   0.117   0.617  19.567 -0.3953  0.0948  1.1245
11939TIP3   OH257307   0.778   2.666  95.020 -0.2183 -0.1558  0.2613
11939TIP3    H157308   0.751   2.602  94.955 -0.2786 -0.2562  0.3875
11939TIP3    H257309   0.802   2.743  94.969 -0.3540 -0.2029  0.1239
11940TIP3   OH257310   1.707   2.444 107.817  0.2776  0.0983 -0.6694
11940TIP3    H157311   1.734   2.476 107.903 -1.9992  0.2827  0.0435
11940TIP3    H257312   1.764   2.369 107.800  0.0758 -0.6037  1.4996
11941TIP3   OH257313   0.702   2.325   3.545 -0.1249 -0.3445  0.1479
11941TIP3    H157314   0.678   2.417   3.558 -0.8282 -0.2449 -1.5983
11941TIP3    H257315   0.703   2.287   3.633  1.4869  1.6250  1.0625
11942TIP3   OH257316   2.004   2.402  10.534  0.3795  0.0775 -0.1166
11942TIP3    H157317   1.940   2.395  10.464 -1.1042 -2.2268  1.3020
11942TIP3    H257318   1.952   2.426  10.611  1.9622  2.5909  0.2596
11943TIP3   OH257319   0.714   1.100  83.320  0.0472  0.3631  0.5597
11943TIP3    H157320   0.684   1.094  83.411 -2.0064  0.3146 -0.0582
11943TIP3    H257321   0.634   1.095  83.268  1.2464 -0.5060 -1.3084
11944TIP3   OH257322   1.744   0.015  90.010  0.5768 -0.2815  0.4624
11944TIP3    H157323   1.714   0.058  90.090  0.0110  1.4836 -0.6365
11944TIP3    H257324   1.698  -0.069  90.008  0.7700 -0.4464  2.0666
11945TIP3   OH257325   2.504   1.561  76.857 -0.1479 -0.1484 -0.1166
11945TIP3    H157326   2.517   1.470  76.883  2.0095  0.1733  0.0655
11945TIP3    H257327   2.517   1.611  76.937  0.3251  0.4252 -0.5416
11946TIP3   OH257328   1.215   0.463  33.232  0.5648 -0.1229  0.0805
11946TIP3    H157329   1.256   0.404  33.295  1.3818 -0.2058 -0.5157
11946TIP3    H257330   1.123   0.434  33.228  0.1980  0.6308  2.0865
11947TIP3   OH257331   1.065   1.100  90.001 -0.7778  0.3814 -0.2356
11947TIP3    H157332   0.975   1.134  89.998 -0.6632  0.6705 -2.5376
11947TIP3    H257333   1.118   1.173  90.032 -1.1880  0.6435 -0.1519
11948TIP3   OH257334   0.644   1.212  33.375  0.1382  0.6097  0.7289
11948TIP3    H157335   0.552   1.211  33.400  0.0001 -0.1453  0.2177
11948TIP3    H257336   0.691   1.197  33.457 -0.2637 -0.6457  0.7476
11949TIP3   OH257337   1.065   1.432  37.287  0.0944  0.3476 -0.0331
11949TIP3    H157338   1.014   1.477  37.355  0.1825  0.6571 -0.1710
11949TIP3    H257339   1.048   1.339  37.303  0.0667  0.4190  0.3756
11950TIP3   OH257340   1.448   2.348  28.480  0.4601 -0.6500 -0.2903
11950TIP3    H157341   1.496   2.359  28.562 -1.3319  1.4459  0.5704
11950TIP3    H257342   1.503   2.392  28.415  0.0814  1.1879  0.5650
11951TIP3   OH257343   1.146   1.505   0.388 -0.2056 -0.3434 -0.4978
11951TIP3    H157344   1.062   1.491   0.432 -0.1233 -0.4199 -0.3653
11951TIP3    H257345   1.166   1.598   0.404 -0.2658 -0.3245 -0.5317
11952TIP3   OH257346   1.977   2.488  95.870  0.1324  0.1089 -0.2580
11952TIP3    H157347   2.065   2.450  95.871 -0.1486 -0.5920 -1.3073
11952TIP3    H257348   1.920   2.416  95.844 -0.7105  0.6631  0.0086
11953TIP3   OH257349   0.419   0.744   0.250 -0.1734  0.3231 -0.5669
11953TIP3    H157350   0.499   0.694   0.232 -0.2390  0.3389 -0.9095
11953TIP3    H257351   0.373   0.747   0.166 -0.5061  0.3656 -0.3844
11954TIP3   OH257352   2.572   1.246  20.578  0.1409 -0.1250  0.0274
11954TIP3    H157353   2.661   1.264  20.550 -0.2023 -0.1307 -1.1065
11954TIP3    H257354   2.536   1.189  20.510 -1.6136  2.0772 -1.0027
11955TIP3   OH257355   1.348   0.314  22.903 -0.3389  0.5734 -0.1075
11955TIP3    H157356   1.260   0.326  22.939 -0.6222 -0.2058 -0.5005
11955TIP3    H257357   1.391   0.254  22.965 -0.3857  0.2671 -0.3658
11956TIP3   OH257358   0.926   1.906  27.094  0.2012  0.1637 -0.0924
11956TIP3    H157359   0.882   1.949  27.167  0.0319 -0.5623  0.2437
11956TIP3    H257360   0.859   1.849  27.056  0.6160 -0.3581 -0.0625
11957TIP3   OH257361   1.358   0.110  28.564 -0.4943 -0.2465 -0.4534
11957TIP3    H157362   1.399   0.187  28.604 -1.5185  1.0088 -1.7103
11957TIP3    H257363   1.377   0.119  28.470 -0.5448 -1.6006 -0.6166
11958TIP3   OH257364   2.640   2.596  97.825 -0.0486 -0.0400  0.1792
11958TIP3    H157365   2.728   2.621  97.852 -0.0912 -0.0512  0.3287
11958TIP3    H257366   2.601   2.557  97.903 -0.0977 -0.2694  0.0403
11959TIP3   OH257367   1.653   2.206  91.808 -0.5525 -0.3495 -0.0471
11959TIP3    H157368   1.679   2.185  91.898 -0.1848  1.9554  0.4605
11959TIP3    H257369   1.571   2.254  91.818 -0.7204 -0.4321 -0.9815
11960TIP3   OH257370   1.721   0.490 103.773  0.0967 -0.0505 -0.4786
11960TIP3    H157371   1.641   0.469 103.820  0.8176  1.8006  1.7789
11960TIP3    H257372   1.782   0.421 103.798  0.2051  0.4342  0.6449
11961TIP3   OH257373   0.707   1.243  17.872  0.1489  0.2027  0.0736
11961TIP3    H157374   0.784   1.189  17.860 -0.1389  0.0072 -0.9281
11961TIP3    H257375   0.736   1.313  17.931  1.7009  1.3517 -1.9512
11962TIP3   OH257376   0.277   2.133  10.551 -0.0100 -0.2642 -0.2544
11962TIP3    H157377   0.290   2.042  10.525 -0.8947 -0.1931 -0.9921
11962TIP3    H257378   0.202   2.131  10.611  1.8202 -0.3882  2.1485
11963TIP3   OH257379   0.433   0.580 110.344 -0.1416  0.4991 -0.0211
11963TIP3    H157380   0.424   0.580 110.248  0.4977  0.7378 -0.0876
11963TIP3    H257381   0.370   0.646 110.374 -1.5923 -0.7800 -0.1391
11964TIP3   OH257382   2.026   1.799  24.524  0.1235  0.2634  0.1096
11964TIP3    H157383   2.061   1.873  24.473 -1.6631  0.3529 -1.0841
11964TIP3    H257384   1.979   1.747  24.460 -0.9485 -0.4392  1.4410
11965TIP3   OH257385   2.122   1.987  32.459  0.6199 -0.3369  0.2598
11965TIP3    H157386   2.043   1.945  32.423  0.1713  1.6298 -1.2327
11965TIP3    H257387   2.191   1.922  32.445 -0.0177 -0.6228 -2.0829
11966TIP3   OH257388   1.702   0.458  30.405  0.2027  0.1741  0.2584
11966TIP3    H157389   1.775   0.415  30.449  0.2589  1.6099  1.6681
11966TIP3    H257390   1.654   0.501  30.475 -0.8590  0.9195 -0.8848
11967TIP3   OH257391   0.875   0.592   1.127 -0.2073  0.3970  0.1425
11967TIP3    H157392   0.906   0.657   1.065 -0.3951  0.6729  0.3388
11967TIP3    H257393   0.818   0.640   1.187  0.6236  0.2963  1.0314
11968TIP3   OH257394   2.685   0.761  18.187  0.4693 -0.0787 -0.3540
11968TIP3    H157395   2.664   0.791  18.098  0.2829 -0.9240 -0.6013
11968TIP3    H257396   2.628   0.686  18.201 -0.6577  0.9935  1.1002
11969TIP3   OH257397   2.287   1.130  25.837 -0.1351 -0.1771  0.2208
11969TIP3    H157398   2.217   1.082  25.792 -0.1727 -0.1588  0.2617
11969TIP3    H257399   2.312   1.199  25.775 -0.7950  0.4097  0.5986
11970TIP3   OH257400   0.767   0.675  21.865 -0.2291  0.2902  0.3830
11970TIP3    H157401   0.688   0.633  21.897 -0.7515  0.3806 -0.7300
11970TIP3    H257402   0.736   0.742  21.804  0.6969  0.3504 -0.0532
11971TIP3   OH257403   1.326   2.320 102.148  0.0089  0.1091 -0.4612
11971TIP3    H157404   1.374   2.238 102.153 -0.4964 -0.1366  0.6461
11971TIP3    H257405   1.392   2.388 102.166 -0.2215 -0.2940  2.3258
11972TIP3   OH257406   1.003   1.425 106.810  0.4650  0.5564 -0.6359
11972TIP3    H157407   0.999   1.360 106.880 -1.3029 -0.7614 -1.8586
11972TIP3    H257408   0.940   1.492 106.836  0.7876  0.7428 -0.3362
11973TIP3   OH257409   0.481   0.569   3.290 -0.5201 -0.4844 -0.3268
11973TIP3    H157410   0.430   0.492   3.316 -0.2680 -1.1316 -1.6630
11973TIP3    H257411   0.567   0.556   3.330  0.0709 -1.7931 -1.9161
11974TIP3   OH257412   0.370   0.026   8.770  0.1558 -0.3233 -0.0768
11974TIP3    H157413   0.391  -0.067   8.769 -0.1312 -0.3884  0.0972
11974TIP3    H257414   0.357   0.049   8.678  0.3235 -0.4305 -0.1280
11975TIP3   OH257415   0.268   2.636  12.989  0.0288  0.2155 -0.0928
11975TIP3    H157416   0.330   2.568  13.014 -1.1548 -0.7948  0.1744
11975TIP3    H257417   0.277   2.642  12.894 -1.6190 -2.1596 -0.4873
11976TIP3   OH257418   0.167   1.647  24.741 -0.4064  0.2216  0.1323
11976TIP3    H157419   0.076   1.618  24.729 -0.0332 -0.3960 -1.3644
11976TIP3    H257420   0.218   1.591  24.683  0.7666  1.5512 -0.1681
11977TIP3   OH257421   0.706   2.661  57.039  0.1484 -1.1695  0.0107
11977TIP3    H157422   0.700   2.644  56.945  1.3377 -1.9467  0.0551
11977TIP3    H257423   0.792   2.702  57.050 -1.1465  1.6995  0.3913
11978TIP3   OH257424   1.606   0.609  97.277 -0.6249  0.0896  0.3278
11978TIP3    H157425   1.686   0.656  97.252 -1.4034  0.8286 -0.8889
11978TIP3    H257426   1.610   0.527  97.227 -1.0210  0.5121 -0.4272
11979TIP3   OH257427   2.051   1.257  18.385 -0.1602 -0.9943 -0.0090
11979TIP3    H157428   2.146   1.260  18.378 -0.1733  0.3957  0.1112
11979TIP3    H257429   2.020   1.270  18.295 -0.2375 -0.9379  0.0262
11980TIP3   OH257430   0.718   1.598  21.241  0.3367 -0.4725  0.2043
11980TIP3    H157431   0.691   1.518  21.195  0.2653 -0.3423  0.0178
11980TIP3    H257432   0.663   1.667  21.203  1.2338 -0.1220 -0.4838
11981TIP3   OH257433   2.505   2.481  91.621 -0.4420  0.2131 -0.1406
11981TIP3    H157434   2.560   2.490  91.543 -0.0921  0.0354  0.0877
11981TIP3    H257435   2.476   2.570  91.640  2.2441  0.8347  1.5327
11982TIP3   OH257436   0.551   0.793  29.149  0.0171  0.1971  0.5381
11982TIP3    H157437   0.564   0.729  29.079  2.1072 -0.6471  1.6289
11982TIP3    H257438   0.456   0.807  29.151 -0.1244  0.4379 -2.5835
11983TIP3   OH257439   2.285   0.564  13.581  0.0723 -0.0125 -0.1305
11983TIP3    H157440   2.283   0.515  13.663  1.5630  0.1213  0.0069
11983TIP3    H257441   2.195   0.558  13.548 -0.0909 -1.7366  0.5150
11984TIP3   OH257442   1.983   2.477  91.350 -0.9567 -0.1864 -0.2088
11984TIP3    H157443   2.026   2.553  91.311 -0.2026 -0.6115 -0.2275
11984TIP3    H257444   1.976   2.498  91.443 -0.7812 -0.0883 -0.2186
11985TIP3   OH257445   0.848   1.631  20.058  0.3506  0.2128  0.2206
11985TIP3    H157446   0.892   1.547  20.067  1.4623  0.8893  1.3989
11985TIP3    H257447   0.848   1.649  19.964  0.5868 -0.8324  0.0083
11986TIP3   OH257448   0.925   0.913   0.537  0.1252  0.8350 -0.0136
11986TIP3    H157449   0.961   0.997   0.566  0.3642  0.1561  1.7759
11986TIP3    H257450   0.832   0.930   0.525  0.2001  1.3969  0.1617
11987TIP3   OH257451   1.179   1.351  11.963  0.2132 -0.0201  0.2716
11987TIP3    H157452   1.244   1.307  12.019  0.7747 -1.5229 -1.4818
11987TIP3    H257453   1.149   1.284  11.903 -0.3076  1.5493 -1.3095
11988TIP3   OH257454   2.455   0.642  85.167  0.1831 -0.1358  0.4340
11988TIP3    H157455   2.540   0.685  85.179  1.1707 -1.3523 -1.5695
11988TIP3    H257456   2.468   0.554  85.201 -0.5191 -0.1204  0.7563
11989TIP3   OH257457   0.133   0.349  88.288 -0.0302 -0.2862 -0.4581
11989TIP3    H157458   0.181   0.390  88.360  0.0583  0.8506 -1.1396
11989TIP3    H257459   0.061   0.302  88.330  0.8563 -0.8599  0.4710
11990TIP3   OH257460   1.697   0.311  37.461  0.4624  0.3966  0.2820
11990TIP3    H157461   1.778   0.278  37.423  1.2965  1.0510  1.4465
11990TIP3    H257462   1.724   0.359  37.539 -0.8477  2.5110 -0.4828
11991TIP3   OH257463   1.254   0.264 109.662  0.2925  0.2643 -0.5108
11991TIP3    H157464   1.263   0.284 109.569 -1.2588 -0.8622 -0.9481
11991TIP3    H257465   1.171   0.306 109.687  0.2510 -0.1835  0.1303
11992TIP3   OH257466   1.845   0.528  84.278 -0.1186  0.0331  0.7054
11992TIP3    H157467   1.844   0.535  84.183 -1.9702 -2.1306  0.4609
11992TIP3    H257468   1.762   0.567  84.306  1.6900  3.4446  1.8389
11993TIP3   OH257469   0.559   2.302  28.490  0.5253  0.0561 -0.1428
11993TIP3    H157470   0.567   2.212  28.521  0.5390 -0.1115 -0.6315
11993TIP3    H257471   0.614   2.353  28.549 -0.2147 -0.1189  0.7152
11994TIP3   OH257472   0.429   1.337  83.356  0.4462  0.3281  0.1635
11994TIP3    H157473   0.451   1.381  83.438  1.3857  1.0739 -0.4582
11994TIP3    H257474   0.457   1.399  83.288  0.4041 -0.5978 -0.7245
11995TIP3   OH257475   0.983   0.141  16.705 -0.0161  0.4789  0.2132
11995TIP3    H157476   1.075   0.167  16.709 -0.1486  1.6129 -2.1827
11995TIP3    H257477   0.934   0.220  16.729 -0.3606  0.4841 -0.4661
11996TIP3   OH257478   0.597   2.256  31.047 -0.3307 -0.0644  0.0802
11996TIP3    H157479   0.662   2.314  31.006  0.6136 -2.0649 -1.4235
11996TIP3    H257480   0.516   2.307  31.047  0.6488  1.5819 -0.3185
11997TIP3   OH257481   0.244   1.348  21.272  0.4983 -0.0011  0.3174
11997TIP3    H157482   0.247   1.308  21.359  1.3064 -0.1423  0.2327
11997TIP3    H257483   0.218   1.439  21.289 -1.4723 -0.5633  0.5026
11998TIP3   OH257484   2.132   1.357 110.306 -0.4560 -0.1787  0.1497
11998TIP3    H157485   2.222   1.385 110.324 -0.5363  0.7535 -0.7888
11998TIP3    H257486   2.141   1.268 110.272  0.1022 -0.1437  0.1843
11999TIP3   OH257487   2.010   1.844  37.529 -0.4039 -0.4535  0.0674
11999TIP3    H157488   2.044   1.883  37.610  1.3008 -1.4908 -0.1121
11999TIP3    H257489   1.943   1.782  37.559 -0.8746  0.2689  0.5570
12000TIP3   OH257490   0.918   2.684 104.845 -0.1969  0.5434 -0.2507
12000TIP3    H157491   1.010   2.693 104.871 -0.1472  0.7436 -0.4957
12000TIP3    H257492   0.909   2.740 104.768 -0.7409  1.2074  0.2875
12001TIP3   OH257493   0.851   2.057   2.521  0.5073  0.1583 -0.2653
12001TIP3    H157494   0.878   2.087   2.434  2.3039 -1.7408 -0.4318
12001TIP3    H257495   0.756   2.042   2.512  0.6125  0.2168 -1.8269
12002TIP3   OH257496   1.075   0.181  85.651 -0.5855  0.1396 -0.3696
12002TIP3    H157497   0.989   0.215  85.677 -0.5314  0.0243 -0.0379
12002TIP3    H257498   1.071   0.088  85.674 -0.1424  0.2665  0.2288
12003TIP3   OH257499   0.669   1.001 110.440  0.4567  0.0170  0.2578
12003TIP3    H157500   0.637   0.912 110.426  0.8699  0.1520 -1.8299
12003TIP3    H257501   0.757   0.989 110.476  0.9915 -0.4729 -1.1507
12004TIP3   OH257502   1.913   1.072  30.508  0.1604  0.5176 -0.0836
12004TIP3    H157503   1.869   0.996  30.546  1.9613 -0.0738  0.9366
12004TIP3    H257504   1.913   1.138  30.577  1.1569  0.3827  0.0579
12005TIP3   OH257505   1.946   0.043   1.270  0.1271  0.2525  0.4475
12005TIP3    H157506   2.021  -0.007   1.303 -0.6467 -0.8073  0.6652
12005TIP3    H257507   1.973   0.072   1.183  1.5828  1.7066  1.3304
12006TIP3   OH257508   0.599   2.462  86.671  0.7723 -0.3924 -0.3261
12006TIP3    H157509   0.617   2.436  86.762 -1.2423  1.1183  0.5665
12006TIP3    H257510   0.684   2.494  86.639  1.0696  1.1041  1.7653
12007TIP3   OH257511   0.514   0.843  15.893 -0.0981  0.1308 -0.3490
12007TIP3    H157512   0.504   0.888  15.809 -0.9708 -0.2606 -0.4651
12007TIP3    H257513   0.453   0.770  15.889  0.8048 -0.6687  0.1200
12008TIP3   OH257514   0.925   1.224  23.010 -0.2593  0.2124 -0.3715
12008TIP3    H157515   0.859   1.230  22.941  0.4790  1.7392 -0.9930
12008TIP3    H257516   0.930   1.312  23.046  0.1256 -0.3195  0.9275
12009TIP3   OH257517   0.444   0.668  81.805  0.0182 -0.5647  0.2680
12009TIP3    H157518   0.500   0.593  81.785  0.5089 -0.8910  2.6001
12009TIP3    H257519   0.503   0.733  81.844 -0.3876  1.1018 -1.7053
12010TIP3   OH257520   1.700   1.075 105.477  0.5595  0.4115  0.3622
12010TIP3    H157521   1.624   1.134 105.485  1.2048  1.2475  0.5280
12010TIP3    H257522   1.692   1.016 105.552 -1.0311 -0.8526 -0.7424
12011TIP3   OH257523   2.435   1.848  78.356  0.1286  0.1307 -0.5070
12011TIP3    H157524   2.503   1.831  78.290 -0.9304  0.8161 -1.8341
12011TIP3    H257525   2.435   1.943  78.368 -0.0699  0.0634  0.0599
12012TIP3   OH257526   2.183   2.555  10.682  0.2505  0.1015  0.1042
12012TIP3    H157527   2.140   2.634  10.650 -0.6862 -0.4947 -0.1580
12012TIP3    H257528   2.137   2.483  10.638  0.2710 -0.6414  1.2408
12013TIP3   OH257529   1.483   0.281 111.790 -0.4049 -0.3631  0.4092
12013TIP3    H157530   1.453   0.333 111.715  2.0064  1.8118  0.8096
12013TIP3    H257531   1.421   0.304 111.860 -0.2658  0.8439  0.1670
12014TIP3   OH257532   1.706   0.411  28.455  0.5110 -0.6117 -0.6220
12014TIP3    H157533   1.629   0.461  28.428  0.9028  0.4893  0.2341
12014TIP3    H257534   1.670   0.338  28.506  0.0586  0.5705  0.8257
12015TIP3   OH257535   2.279   1.298  98.441 -0.4618  0.2206  0.4062
12015TIP3    H157536   2.316   1.286  98.529  0.1587  2.1604  0.4558
12015TIP3    H257537   2.218   1.371  98.451  0.0198  0.8188 -0.8711
12016TIP3   OH257538   0.923   1.736  11.427  0.0709 -0.3209  0.3867
12016TIP3    H157539   0.830   1.712  11.436  0.8227 -3.4712  1.1972
12016TIP3    H257540   0.937   1.802  11.494 -1.4769 -0.1932  0.6284
12017TIP3   OH257541   1.584   0.106  24.312 -0.3253  0.0414  0.1417
12017TIP3    H157542   1.631   0.189  24.312 -0.9935  0.4229  0.3253
12017TIP3    H257543   1.583   0.079  24.220 -1.4661  1.0206 -0.1563
12018TIP3   OH257544   2.263   0.820 101.160  0.2285 -0.3122 -0.5887
12018TIP3    H157545   2.175   0.784 101.152 -0.0730 -0.0920  1.4194
12018TIP3    H257546   2.272   0.843 101.252  1.1620  2.8207 -1.3491
12019TIP3   OH257547   0.278   1.392  98.011 -0.4329  0.0706 -0.1869
12019TIP3    H157548   0.198   1.404  97.960 -1.0164  0.6261  0.8128
12019TIP3    H257549   0.249   1.398  98.102  0.6580 -0.3675  0.2067
12020TIP3   OH257550   0.368   1.395  74.271 -0.1503  0.2179  0.4954
12020TIP3    H157551   0.295   1.427  74.217  0.7428  1.9625  0.2505
12020TIP3    H257552   0.408   1.326  74.218 -2.6750 -2.1399  1.4285
12021TIP3   OH257553   0.033   2.671  74.651  0.6896  0.0483  0.2316
12021TIP3    H157554   0.067   2.642  74.736 -0.3909 -0.9408  0.3426
12021TIP3    H257555  -0.062   2.672  74.662  0.4652 -1.3364 -1.3393
12022TIP3   OH257556   0.217   0.196   5.807 -0.3067  0.2288  0.4948
12022TIP3    H157557   0.166   0.220   5.729 -1.8971  0.9090  1.6686
12022TIP3    H257558   0.151   0.161   5.868  0.9987 -0.9496  1.2953
12023TIP3   OH257559   2.083   0.100  48.285  0.3628 -0.3208  0.4286
12023TIP3    H157560   2.067   0.096  48.380  0.7678  0.5396  0.5396
12023TIP3    H257561   2.140   0.025  48.268  2.7551  1.1856  1.3859
12024TIP3   OH257562   0.615   2.663  79.269 -0.0672  0.0751  0.5778
12024TIP3    H157563   0.694   2.624  79.232 -0.2896  0.6295 -0.5197
12024TIP3    H257564   0.644   2.748  79.304 -0.0526 -0.0170  0.7890
12025TIP3   OH257565   0.981   1.210  75.991  0.0990  0.1016 -0.0499
12025TIP3    H157566   0.931   1.183  75.914  0.6839  0.3809 -0.5400
12025TIP3    H257567   0.932   1.175  76.065  0.4803 -1.7180 -0.6136
12026TIP3   OH257568   1.848   0.354  26.095  0.2860 -0.0158  0.2189
12026TIP3    H157569   1.805   0.281  26.140 -1.5066  0.7397 -0.1741
12026TIP3    H257570   1.940   0.348  26.122 -0.1279 -1.4482  1.4625
12027TIP3   OH257571   2.649   2.546  95.842  0.5552  0.0624 -0.1926
12027TIP3    H157572   2.711   2.569  95.772  0.0168  0.2989 -0.5995
12027TIP3    H257573   2.671   2.604  95.914  0.5399  0.4337 -0.4854
12028TIP3   OH257574   0.384   2.454   8.656  0.7064 -0.0293  0.3291
12028TIP3    H157575   0.418   2.493   8.575  1.4617 -0.0250  0.6484
12028TIP3    H257576   0.444   2.383   8.675  0.9559  0.4337  1.3004
12029TIP3   OH257577   0.096   1.616  80.642  0.0732  0.0301 -0.0926
12029TIP3    H157578   0.140   1.567  80.572  0.8693  1.7042 -0.8016
12029TIP3    H257579   0.006   1.627  80.611  0.2225  0.1018 -0.5051
12030TIP3   OH257580   0.863   2.163  47.279 -0.2415  0.2384  0.1800
12030TIP3    H157581   0.864   2.086  47.222 -0.2619  0.0430  0.4427
12030TIP3    H257582   0.773   2.168  47.312  0.5235 -1.6893  2.9345
12031TIP3   OH257583   1.186   0.692  91.378  0.4636  0.1341  0.3025
12031TIP3    H157584   1.135   0.624  91.422 -2.5956  2.0443  0.0230
12031TIP3    H257585   1.244   0.727  91.445 -0.6803 -0.2081  1.4930
12032TIP3   OH257586   0.301   0.166  96.830 -0.1776  0.4455 -0.3254
12032TIP3    H157587   0.266   0.231  96.891 -0.1593 -0.1564  0.3348
12032TIP3    H257588   0.251   0.086  96.848  0.8886 -0.1725 -0.0128
12033TIP3   OH257589   2.204   2.042  11.139  0.2120 -0.0834 -0.3536
12033TIP3    H157590   2.262   1.980  11.183  2.2294  2.2648  0.5021
12033TIP3    H257591   2.138   2.065  11.205 -0.6376 -1.3349 -0.7229
12034TIP3   OH257592   2.191   1.870  78.695  0.3596  0.0943 -0.1476
12034TIP3    H157593   2.234   1.796  78.651  1.1891 -0.0410  0.8622
12034TIP3    H257594   2.162   1.927  78.623  1.3499 -0.3090 -0.8890
12035TIP3   OH257595   0.676   1.200 106.727  0.5792  0.6813 -0.6537
12035TIP3    H157596   0.771   1.201 106.710  0.2117  1.0057 -3.1096
12035TIP3    H257597   0.648   1.290 106.708 -0.4090  0.2251 -1.4005
12036TIP3   OH257598   1.547   1.196  31.295  0.9586 -0.5988  0.6437
12036TIP3    H157599   1.498   1.128  31.341  0.4916  0.6505  2.0707
12036TIP3    H257600   1.588   1.150  31.221 -0.1700 -2.2019  0.9604
12037TIP3   OH257601   1.619   1.566  90.432 -0.2813 -0.4606  0.4238
12037TIP3    H157602   1.607   1.629  90.361  0.5171  1.6697  2.0859
12037TIP3    H257603   1.542   1.509  90.427 -0.9904  0.5638 -1.1968
12038TIP3   OH257604   1.563   1.033   4.095  0.0595  0.2366 -0.5250
12038TIP3    H157605   1.511   1.092   4.149 -0.0714 -0.3909  0.0406
12038TIP3    H257606   1.628   1.090   4.054  0.3919  0.6708  0.5703
12039TIP3   OH257607   0.877   0.147  36.232  0.0506  0.2535  0.4994
12039TIP3    H157608   0.782   0.135  36.225  0.1633 -0.0308 -0.7826
12039TIP3    H257609   0.890   0.182  36.320 -1.1952 -0.1592  0.8730
12040TIP3   OH257610   0.089   1.804  90.233  0.1139 -0.1366  0.6654
12040TIP3    H157611   0.128   1.788  90.147 -2.2286  0.7646 -0.6451
12040TIP3    H257612  -0.004   1.787  90.221 -0.2216 -0.4333  3.1831
12041TIP3   OH257613   0.735   0.710  31.482  0.1242 -0.5068 -0.4875
12041TIP3    H157614   0.740   0.734  31.390 -3.1875  1.3766 -0.3145
12041TIP3    H257615   0.791   0.773  31.527  2.9928 -2.3608 -1.1861
12042TIP3   OH257616   1.031   1.607  96.605 -0.0770 -0.0075 -0.0344
12042TIP3    H157617   1.125   1.623  96.592 -0.0825  0.3374  0.3514
12042TIP3    H257618   1.027   1.527  96.657  0.0267  0.3600  0.5499
12043TIP3   OH257619   1.748   2.482  88.412 -0.0418 -0.0176  0.1191
12043TIP3    H157620   1.830   2.532  88.409 -0.1173  0.0643 -1.1347
12043TIP3    H257621   1.767   2.408  88.470  1.0472 -0.2166 -0.4622
12044TIP3   OH257622   2.379   0.188  33.645 -0.1069  0.2282 -0.1899
12044TIP3    H157623   2.333   0.223  33.568  0.6250  1.5115 -0.0599
12044TIP3    H257624   2.469   0.217  33.635  0.1418 -0.1484  0.8335
12045TIP3   OH257625   1.408   1.031 101.018 -0.3066 -0.5749  0.0028
12045TIP3    H157626   1.384   0.938 101.025 -0.8296 -0.4906 -0.6076
12045TIP3    H257627   1.341   1.069 100.961  0.1829  0.0776 -0.1497
12046TIP3   OH257628   1.791   0.649   3.855  0.8216 -0.0601  0.0666
12046TIP3    H157629   1.729   0.693   3.912 -0.6024  0.4173 -1.7673
12046TIP3    H257630   1.808   0.565   3.899 -1.3917 -0.3658  0.4705
12047TIP3   OH257631   2.436   0.537  28.588 -0.1354  0.4757 -0.3883
12047TIP3    H157632   2.443   0.632  28.593 -0.0648  0.4654 -0.2942
12047TIP3    H257633   2.494   0.505  28.657 -0.2816  0.3668 -0.3153
12048TIP3   OH257634   1.076   0.461  38.084 -0.3801 -0.1626  0.1924
12048TIP3    H157635   1.033   0.380  38.057  0.4459 -0.0670 -1.4942
12048TIP3    H257636   1.114   0.440  38.170 -0.4024 -1.4795 -0.0915
12049TIP3   OH257637   0.575   2.119   0.208  0.2377 -0.6427 -0.0921
12049TIP3    H157638   0.609   2.084   0.126  1.5762 -0.8854  0.5323
12049TIP3    H257639   0.531   2.045   0.250 -0.4950 -0.5047 -0.5913
12050TIP3   OH257640   2.191   1.661  17.829 -0.1906 -0.1590 -0.0049
12050TIP3    H157641   2.205   1.748  17.791  0.2581 -0.2397 -0.0179
12050TIP3    H257642   2.192   1.676  17.924  0.2392 -0.2094 -0.0032
12051TIP3   OH257643   0.395   1.021  20.606 -0.0459 -0.0668 -0.1260
12051TIP3    H157644   0.301   1.019  20.586  0.1129  3.1032 -1.9094
12051TIP3    H257645   0.400   1.025  20.701 -1.7577  0.1926 -0.0185
12052TIP3   OH257646   1.117   1.290  87.622 -0.1349  0.0948  0.3834
12052TIP3    H157647   1.114   1.298  87.526 -1.1602  2.1230  0.5379
12052TIP3    H257648   1.035   1.247  87.645 -1.4854  2.5204  0.4957
12053TIP3   OH257649   2.306   1.977  15.732 -0.0466  0.3951  0.2224
12053TIP3    H157650   2.395   1.961  15.762  0.1405  0.4827 -0.2749
12053TIP3    H257651   2.251   1.955  15.807  0.3551 -0.2710  0.3306
12054TIP3   OH257652   0.201   1.936   2.873 -0.4803  0.2797  0.2099
12054TIP3    H157653   0.211   1.981   2.789 -3.3916  1.8324  0.5430
12054TIP3    H257654   0.161   1.852   2.851 -1.0305  0.5915 -0.0212
12055TIP3   OH257655   1.084   0.461   9.621  0.3454 -0.3247 -0.1139
12055TIP3    H157656   1.101   0.477   9.714 -0.5416  0.2532 -0.0400
12055TIP3    H257657   1.161   0.412   9.591  0.6940 -0.4214  0.8921
12056TIP3   OH257658   1.257   1.502  95.433  0.0396 -0.1894  0.3289
12056TIP3    H157659   1.170   1.521  95.398  0.3666  0.2252 -0.2761
12056TIP3    H257660   1.301   1.454  95.362  0.8559  1.0401 -0.0296
12057TIP3   OH257661   0.995   0.408  86.183 -0.0982  0.3644  0.0952
12057TIP3    H157662   0.907   0.382  86.157  0.3893 -0.5464 -0.7131
12057TIP3    H257663   1.021   0.473  86.118  0.5942 -0.8975 -0.9388
12058TIP3   OH257664   2.495   2.350  26.567 -0.1088  0.9311  0.5216
12058TIP3    H157665   2.409   2.356  26.610 -1.0293  1.0801 -1.2369
12058TIP3    H257666   2.477   2.371  26.475  1.8216  0.9140  0.1006
12059TIP3   OH257667   1.001   1.586 105.482  0.0116  0.2935 -0.0422
12059TIP3    H157668   0.943   1.630 105.543  0.1326 -0.6290  0.7584
12059TIP3    H257669   0.979   1.493 105.490  0.0296  0.1539 -1.4027
12060TIP3   OH257670   1.073   1.859  86.710 -0.0823  0.4683 -0.3775
12060TIP3    H157671   1.111   1.945  86.691 -0.7242  0.9773  0.5678
12060TIP3    H257672   1.040   1.867  86.800 -1.1336 -0.4126 -0.6674
12061TIP3   OH257673   0.645   1.583  34.301  0.3962  0.3525 -0.7128
12061TIP3    H157674   0.672   1.662  34.349  0.1187  0.6243 -1.0014
12061TIP3    H257675   0.551   1.575  34.320  0.6512 -0.5913  0.2966
12062TIP3   OH257676   1.937   2.571 109.596 -0.6861 -0.0423  0.5362
12062TIP3    H157677   1.968   2.549 109.508 -0.9407 -1.1133  0.6965
12062TIP3    H257678   1.944   2.666 109.601  0.5861 -0.0691 -0.1731
12063TIP3   OH257679   0.359   1.882  93.556  0.3424  0.3594 -0.6108
12063TIP3    H157680   0.299   1.848  93.622  1.7267 -0.3108  0.3550
12063TIP3    H257681   0.309   1.879  93.475 -0.5686 -1.2461 -0.0497
12064TIP3   OH257682   0.187   1.717  97.047  0.3009  0.1488 -0.2115
12064TIP3    H157683   0.266   1.683  97.004  0.0589 -0.2258 -0.3674
12064TIP3    H257684   0.168   1.799  97.001 -0.7690 -0.9411 -1.8146
12065TIP3   OH257685   0.812   1.793 112.087  0.1304  0.3282 -0.2488
12065TIP3    H157686   0.831   1.700 112.072 -2.6467 -0.1939 -1.0875
12065TIP3    H257687   0.770   1.822 112.006 -0.0626  2.0355  0.4223
12066TIP3   OH257688   2.263   1.802 102.725  0.0678  0.7059  0.5903
12066TIP3    H157689   2.254   1.733 102.791 -0.6150  1.7009  1.5895
12066TIP3    H257690   2.215   1.769 102.649  0.6866 -0.3768  0.6531
12067TIP3   OH257691   0.598   0.034  83.229  0.3887 -0.2085  0.1782
12067TIP3    H157692   0.559  -0.042  83.185  0.1090 -0.9612  1.6708
12067TIP3    H257693   0.525   0.093  83.244  0.2702 -0.4582  0.6230
12068TIP3   OH257694   1.452   2.051  83.110  0.2813  0.1599 -0.5677
12068TIP3    H157695   1.399   1.986  83.155 -2.0403  1.7731 -0.7730
12068TIP3    H257696   1.466   2.120  83.175  2.1481 -0.2134 -0.5333
12069TIP3   OH257697   1.263   0.597  30.485  0.0334 -0.2112 -0.1567
12069TIP3    H157698   1.344   0.637  30.516 -0.2152  0.6031 -0.5459
12069TIP3    H257699   1.282   0.503  30.482  0.4457 -0.1999  1.2978
12070TIP3   OH257700   0.551   0.669  33.123  0.0974 -0.6086  0.3225
12070TIP3    H157701   0.517   0.720  33.196 -0.2481  1.6001 -1.2940
12070TIP3    H257702   0.642   0.698  33.113 -0.5851  1.0610 -1.6651
12071TIP3   OH257703   0.130   1.371  66.689 -0.2392 -0.0452 -0.2775
12071TIP3    H157704   0.118   1.291  66.638 -1.8185 -0.6207  0.9159
12071TIP3    H257705   0.187   1.345  66.761  1.5402  0.6343 -1.3631
12072TIP3   OH257706   1.837   0.971 112.179 -0.3319 -0.5858  0.2494
12072TIP3    H157707   1.862   1.064 112.181 -2.3014 -0.0150 -0.0268
12072TIP3    H257708   1.913   0.927 112.140 -0.1370  1.1730 -1.5272
12073TIP3   OH257709   1.010   2.340  17.840 -0.0159 -0.0696 -0.0678
12073TIP3    H157710   0.956   2.368  17.767 -0.2542 -2.3038 -0.8227
12073TIP3    H257711   0.949   2.294  17.899  0.4701  0.3049  0.7480
12074TIP3   OH257712   2.378   0.369  23.369 -0.4991  0.1984 -0.0392
12074TIP3    H157713   2.341   0.397  23.453  1.1315 -0.1176  0.8241
12074TIP3    H257714   2.469   0.398  23.372 -0.4034  0.1970 -1.7310
12075TIP3   OH257715   1.011   2.193  78.673 -0.4384 -0.4728  0.5414
12075TIP3    H157716   1.044   2.209  78.761  2.9451 -0.1439 -0.5971
12075TIP3    H257717   0.952   2.266  78.655 -3.2333 -1.8429  3.2611
12076TIP3   OH257718   0.704   1.958  31.682 -0.4298 -0.3743 -0.4500
12076TIP3    H157719   0.759   1.967  31.760 -0.2665 -2.4772 -0.2615
12076TIP3    H257720   0.619   1.994  31.709 -0.1946 -0.4869  0.4907
12077TIP3   OH257721   0.867   1.253 102.353  0.7601 -0.2375 -0.0836
12077TIP3    H157722   0.792   1.197 102.339  0.4661  0.4561 -1.5126
12077TIP3    H257723   0.910   1.218 102.431 -0.9122 -0.7597  0.6479
12078TIP3   OH257724   1.860   1.512  98.955  0.0233 -0.1923  0.1423
12078TIP3    H157725   1.951   1.541  98.945  0.1176  0.3177  2.0361
12078TIP3    H257726   1.857   1.475  99.043 -1.4852 -0.7280 -0.1111
12079TIP3   OH257727   0.705   2.256  87.313 -0.1629 -0.0315  0.4990
12079TIP3    H157728   0.629   2.313  87.300 -0.5358 -0.7646 -0.6656
12079TIP3    H257729   0.728   2.268  87.405 -2.8680 -1.1940  1.4527
12080TIP3   OH257730   2.530   0.193  73.199 -0.1730  0.2713 -0.5129
12080TIP3    H157731   2.566   0.264  73.253  0.2978  0.4478 -1.0461
12080TIP3    H257732   2.589   0.119  73.214 -0.3631  0.1474 -0.3656
12081TIP3   OH257733   1.800   1.786   1.976 -0.0870 -0.0868  0.0467
12081TIP3    H157734   1.776   1.835   2.055  1.6362  2.6082 -0.9214
12081TIP3    H257735   1.877   1.735   2.002  0.2142  0.4598  0.2541
12082TIP3   OH257736   2.098   0.199  95.846  0.4430  0.0561 -0.2263
12082TIP3    H157737   2.116   0.117  95.801 -0.4875  0.1851 -0.8425
12082TIP3    H257738   2.010   0.224  95.818  0.8565  1.4636 -0.3566
12083TIP3   OH257739   1.179   1.095  34.381 -0.0728  0.6250  0.0262
12083TIP3    H157740   1.097   1.078  34.334 -1.1997 -2.8163  2.7649
12083TIP3    H257741   1.157   1.164  34.443 -0.3044  1.1000 -0.5793
12084TIP3   OH257742   0.842   2.159  13.539  0.2678  0.6247 -0.1968
12084TIP3    H157743   0.912   2.100  13.566 -1.2891 -0.5895  1.4246
12084TIP3    H257744   0.825   2.136  13.448  0.4078 -0.6929  0.0910
12085TIP3   OH257745   1.630   2.547  63.405  0.1173 -0.1037 -0.3413
12085TIP3    H157746   1.698   2.495  63.449 -0.4902 -0.4273  0.2386
12085TIP3    H257747   1.548   2.513  63.441 -0.4715 -1.0401 -2.4120
12086TIP3   OH257748   0.328   2.205  76.393  0.3007 -0.2765 -0.1254
12086TIP3    H157749   0.234   2.187  76.392  0.1273  0.3689  1.5482
12086TIP3    H257750   0.339   2.277  76.331 -0.0806 -1.2418 -1.3504
12087TIP3   OH257751   1.675   2.082  12.899 -0.0642 -0.1308  0.7025
12087TIP3    H157752   1.732   2.129  12.838 -1.3333 -0.3120 -0.6689
12087TIP3    H257753   1.592   2.130  12.896 -1.0630 -1.7977  0.0588
12088TIP3   OH257754   0.691   1.220  82.188  0.4258 -0.2609  0.0442
12088TIP3    H157755   0.739   1.170  82.122  2.3018  0.0647  1.1061
12088TIP3    H257756   0.670   1.155  82.256 -0.9096 -0.4469 -0.4924
12089TIP3   OH257757   1.663   0.376  91.517  0.1950 -0.1518 -0.2207
12089TIP3    H157758   1.714   0.425  91.582 -0.3745 -2.5344  2.1970
12089TIP3    H257759   1.614   0.443  91.470  0.9333  1.7348  1.5479
12090TIP3   OH257760   1.990   0.560  19.102 -0.1637 -0.8535 -0.4775
12090TIP3    H157761   2.069   0.519  19.136 -0.4681 -1.6226 -0.6677
12090TIP3    H257762   2.018   0.604  19.022  0.1589 -0.7495 -0.3077
12091TIP3   OH257763   0.520   1.716  24.267 -0.0293  0.1199  0.0858
12091TIP3    H157764   0.480   1.794  24.229 -0.7415  0.5447  1.6311
12091TIP3    H257765   0.451   1.677  24.321  0.6509 -0.9815  0.2088
12092TIP3   OH257766   0.768   2.501  10.708 -0.0521  0.1228 -0.5426
12092TIP3    H157767   0.725   2.450  10.639  1.3352  1.2086 -2.2786
12092TIP3    H257768   0.756   2.592  10.681 -0.1299  0.6212  1.0814
12093TIP3   OH257769   0.692   2.593  88.893 -0.0936 -0.1238  0.4108
12093TIP3    H157770   0.675   2.645  88.971  0.7366  0.1504  0.4239
12093TIP3    H257771   0.615   2.536  88.885 -0.7877  0.7564  0.6774
12094TIP3   OH257772   1.474   0.982  33.004  0.1440 -0.0284  0.7529
12094TIP3    H157773   1.534   1.024  33.066  1.4435 -1.9999  0.9226
12094TIP3    H257774   1.494   1.024  32.920  1.1071  0.0220  0.9937
12095TIP3   OH257775   0.373   1.655  87.590  0.2693  0.5354 -0.2577
12095TIP3    H157776   0.327   1.592  87.646  2.2141 -1.2761 -0.5742
12095TIP3    H257777   0.453   1.676  87.638  0.9550  0.6050 -1.3911
12096TIP3   OH257778   0.008   1.290  58.476  0.8507 -0.5322 -1.1514
12096TIP3    H157779  -0.000   1.248  58.391 -0.0943 -1.9371 -0.4059
12096TIP3    H257780  -0.042   1.234  58.536 -1.2901  2.1107 -0.2367
12097TIP3   OH257781   1.811   1.187   1.060 -0.2413  0.1775  0.0558
12097TIP3    H157782   1.724   1.221   1.081 -0.2136 -0.2360  0.8710
12097TIP3    H257783   1.847   1.250   0.996 -0.8783  0.7020  0.2088
12098TIP3   OH257784   2.295   0.264  24.972  0.4062  0.0590 -0.3666
12098TIP3    H157785   2.390   0.272  24.961  0.3755 -0.1415 -0.7990
12098TIP3    H257786   2.267   0.212  24.897 -0.1192  0.5534 -0.5164
12099TIP3   OH257787   0.720   0.565  22.478  0.4019  0.0093 -0.0937
12099TIP3    H157788   0.796   0.563  22.419  0.9979 -1.1269  0.6910
12099TIP3    H257789   0.731   0.646  22.528  0.2275  0.6617 -1.0752
12100TIP3   OH257790   0.187   1.314   5.061  0.0630  0.4560 -0.0593
12100TIP3    H157791   0.147   1.243   5.110 -0.9360  0.6428 -0.5793
12100TIP3    H257792   0.162   1.393   5.109 -0.1704  0.5709 -0.3689
12101TIP3   OH257793   0.116   1.655  37.627  0.0165  0.1070 -0.2278
12101TIP3    H157794   0.135   1.570  37.666 -1.4368  0.6254  1.7820
12101TIP3    H257795   0.074   1.705  37.698 -1.3340  1.6702 -2.0358
12102TIP3   OH257796   2.528   0.956  25.008  0.8277 -0.4406  0.8009
12102TIP3    H157797   2.557   0.997  25.089  1.6416 -0.1342  0.3622
12102TIP3    H257798   2.608   0.940  24.959  0.2333  0.9612 -0.7065
12103TIP3   OH257799   2.278   1.859  15.489  0.1675  0.2476 -0.3402
12103TIP3    H157800   2.190   1.821  15.481  0.0205  0.3670  0.5286
12103TIP3    H257801   2.271   1.918  15.564  0.8073  0.8006 -0.7092
12104TIP3   OH257802   2.463   2.103  15.145  0.3708 -0.0161 -0.3436
12104TIP3    H157803   2.392   2.135  15.090 -1.0810 -0.1969  1.3682
12104TIP3    H257804   2.439   2.014  15.168  1.9835 -0.6857 -1.0443
12105TIP3   OH257805   1.330   1.810  80.104 -0.3844 -0.1321 -0.4373
12105TIP3    H157806   1.272   1.849  80.038 -0.9448 -0.1227  0.0435
12105TIP3    H257807   1.324   1.716  80.089 -0.3625 -0.1203 -0.5214
12106TIP3   OH257808   1.277   1.939 101.522  0.0428  0.0717 -0.8838
12106TIP3    H157809   1.230   2.023 101.522 -0.7835 -0.3743 -0.1218
12106TIP3    H257810   1.364   1.960 101.555 -0.1412  0.6375 -0.7500
12107TIP3   OH257811   0.728   1.987  98.448  0.3594  0.4538  0.3513
12107TIP3    H157812   0.787   1.927  98.495 -0.3056  0.1732  0.8394
12107TIP3    H257813   0.662   2.011  98.513 -1.3401 -0.9521 -0.7449
12108TIP3   OH257814   2.048   2.210   8.247 -0.5372 -0.6233  0.0252
12108TIP3    H157815   2.113   2.224   8.316  0.7538 -0.1793 -1.2332
12108TIP3    H257816   2.019   2.120   8.260  0.1109 -0.7363  0.7969
12109TIP3   OH257817   0.367   1.313  90.791 -0.0412 -0.0406  0.3552
12109TIP3    H157818   0.402   1.227  90.765  0.5284 -0.1493  1.4624
12109TIP3    H257819   0.390   1.322  90.883 -1.7195  0.4934  0.7609
12110TIP3   OH257820   0.548   1.220 100.235  0.0648  0.3163  0.3400
12110TIP3    H157821   0.604   1.207 100.312 -1.8050  1.9598  2.0947
12110TIP3    H257822   0.594   1.287 100.183  1.3614 -0.8357 -0.0609
12111TIP3   OH257823   0.034   2.087 100.528  0.2121 -0.1111 -0.3195
12111TIP3    H157824   0.111   2.037 100.502  1.6041  0.2486  2.6029
12111TIP3    H257825  -0.022   2.024 100.573 -0.1854  0.0545 -0.5783
12112TIP3   OH257826   0.713   0.091  10.579 -0.6225 -0.0787 -0.4830
12112TIP3    H157827   0.785   0.153  10.593 -0.5442 -0.3656  0.4373
12112TIP3    H257828   0.739   0.042  10.501 -0.3391  0.5461 -0.7925
12113TIP3   OH257829   0.604   0.254  21.319 -0.0724  0.4974 -0.3624
12113TIP3    H157830   0.620   0.199  21.396  0.7763 -0.4462 -1.1727
12113TIP3    H257831   0.511   0.243  21.300  0.0873 -0.6927 -0.5116
12114TIP3   OH257832   0.005   2.527  26.679  0.4236 -0.8030 -0.4799
12114TIP3    H157833  -0.057   2.458  26.653 -0.4897 -1.3431  2.6138
12114TIP3    H257834   0.091   2.485  26.675  0.0710 -1.5462 -0.4182
12115TIP3   OH257835   2.043   2.025 107.953 -0.0625 -0.6567  0.4538
12115TIP3    H157836   1.979   1.996 107.887 -0.8395 -0.4462  1.0949
12115TIP3    H257837   2.055   1.949 108.010 -0.1829 -0.5178  0.6656
12116TIP3   OH257838   0.962   2.071  16.077  0.8492 -0.4868  0.2153
12116TIP3    H157839   1.008   2.010  16.019  0.5973  0.8468 -1.4833
12116TIP3    H257840   0.889   2.104  16.024 -0.1448 -0.1362  1.7482
12117TIP3   OH257841   0.452   2.095  18.895 -0.0753 -0.3113 -0.0047
12117TIP3    H157842   0.419   2.005  18.896  0.7765 -0.6364  0.8514
12117TIP3    H257843   0.531   2.092  18.950 -0.6076  1.1720  0.9188
12118TIP3   OH257844   0.172   0.541  36.917  0.1420 -0.6699 -0.4608
12118TIP3    H157845   0.084   0.522  36.887  0.0783  0.9888 -1.4374
12118TIP3    H257846   0.225   0.542  36.837  0.1664  2.8145 -0.5291
12119TIP3   OH257847   2.407   0.313  78.212 -0.1252 -0.0995  0.1030
12119TIP3    H157848   2.329   0.343  78.166  0.5583  1.1149 -0.3046
12119TIP3    H257849   2.395   0.343  78.302 -0.7419 -1.1258  0.3842
12120TIP3   OH257850   1.759   0.395  48.632 -0.7400  0.0694 -0.5511
12120TIP3    H157851   1.836   0.341  48.649 -2.5368 -2.5111 -0.1374
12120TIP3    H257852   1.743   0.441  48.714 -0.4350 -0.4146 -0.2238
12121TIP3   OH257853   0.570   0.966  15.653  0.3509 -0.0407 -0.0740
12121TIP3    H157854   0.491   0.977  15.598 -0.5114 -0.6868  0.9963
12121TIP3    H257855   0.621   1.045  15.636 -0.5267  0.3986 -0.7976
12122TIP3   OH257856   0.561   0.409 104.360 -0.0675  0.0393  0.0939
12122TIP3    H157857   0.580   0.395 104.453  2.1754  0.6883 -0.2133
12122TIP3    H257858   0.607   0.489 104.338 -2.0104  0.8583 -1.2047
12123TIP3   OH257859   2.285   1.842  11.329  0.1463  0.0144  0.0462
12123TIP3    H157860   2.248   1.871  11.412 -0.0157 -3.1639  1.2383
12123TIP3    H257861   2.226   1.773  11.299  1.8432 -1.0369 -1.0873
12124TIP3   OH257862   0.831   2.562  79.152  0.1983  0.9610  0.6066
12124TIP3    H157863   0.849   2.467  79.151  0.8364  1.0644 -1.2055
12124TIP3    H257864   0.783   2.578  79.071 -1.7858  1.8905  1.9055
12125TIP3   OH257865   2.316   0.237  12.551  0.3293 -0.9954 -0.4295
12125TIP3    H157866   2.297   0.268  12.640 -0.6592  0.7870 -1.2025
12125TIP3    H257867   2.254   0.165  12.538  0.8763 -1.6569  0.5051
12126TIP3   OH257868   2.398   1.033  26.727 -0.0346  0.5100 -0.3166
12126TIP3    H157869   2.363   1.038  26.816  1.1960 -1.1112  0.3142
12126TIP3    H257870   2.493   1.031  26.738  0.1511  0.4808 -1.6916
12127TIP3   OH257871   2.071   1.426  76.348 -0.4320  0.0228  0.8454
12127TIP3    H157872   2.124   1.398  76.273  0.0435  1.5168  0.5898
12127TIP3    H257873   2.132   1.424  76.422 -0.3848  0.4107  0.8185
12128TIP3   OH257874   2.487   0.560 101.125 -0.3451  0.5361 -0.5442
12128TIP3    H157875   2.464   0.515 101.207  1.8723 -1.2453 -0.7623
12128TIP3    H257876   2.424   0.527 101.061 -0.3961 -0.2185 -0.1207
12129TIP3   OH257877   0.347   0.014   3.709 -0.0331  0.0246  0.1409
12129TIP3    H157878   0.388  -0.040   3.777  1.1890  1.5720  0.6908
12129TIP3    H257879   0.366   0.104   3.736 -0.7779  0.7067 -1.5093
12130TIP3   OH257880   1.618   1.177  14.765 -0.1489 -0.1580 -0.4124
12130TIP3    H157881   1.639   1.138  14.680  0.2982  0.2223 -0.4814
12130TIP3    H257882   1.694   1.158  14.819 -0.7887 -1.1571  0.1823
12131TIP3   OH257883   2.523   1.105  24.695  0.8097 -0.3596  0.1386
12131TIP3    H157884   2.439   1.110  24.741  1.9035  0.1005  2.2128
12131TIP3    H257885   2.544   1.011  24.694 -0.0976 -0.5637 -1.1422
12132TIP3   OH257886   2.178   1.459  95.759  0.3562  0.0831 -0.3884
12132TIP3    H157887   2.150   1.375  95.795 -1.1861  0.2560 -1.1271
12132TIP3    H257888   2.247   1.436  95.696  0.2226 -0.5899 -0.3011
12133TIP3   OH257889   2.491   2.043  99.244  0.0407 -0.7369  0.6669
12133TIP3    H157890   2.586   2.052  99.237 -0.1090 -0.0708 -1.3297
12133TIP3    H257891   2.476   1.949  99.253  0.8450 -1.0695 -1.0597
12134TIP3   OH257892   2.213   0.739  88.619  0.2646 -0.0774 -0.1501
12134TIP3    H157893   2.197   0.656  88.575  0.4254 -0.3349  0.2727
12134TIP3    H257894   2.127   0.767  88.651  0.1711  0.0402 -0.5050
12135TIP3   OH257895   2.576   0.957  80.164 -0.4517  0.5475  0.0050
12135TIP3    H157896   2.496   0.908  80.182  0.9247 -2.0683 -0.4395
12135TIP3    H257897   2.572   0.975  80.070 -0.7061  0.7928  0.0634
12136TIP3   OH257898   1.676   2.228 103.744  0.0347  0.2453 -0.0389
12136TIP3    H157899   1.738   2.299 103.760  1.0034 -0.4537 -0.5713
12136TIP3    H257900   1.696   2.163 103.811  1.1522 -0.7806 -1.3036
12137TIP3   OH257901   2.413   0.749 102.733  0.8032 -0.4880  0.2541
12137TIP3    H157902   2.318   0.744 102.723  0.8007 -0.5869  0.3284
12137TIP3    H257903   2.429   0.834 102.773  0.8154 -0.0510 -0.6432
12138TIP3   OH257904   1.384   1.794   4.692 -0.5344  0.0510 -0.0322
12138TIP3    H157905   1.294   1.765   4.703 -0.6204  0.4085  0.2141
12138TIP3    H257906   1.379   1.868   4.631 -0.1819 -1.1946 -1.6668
12139TIP3   OH257907   0.089   0.970  90.610 -0.6573  0.1520 -0.3698
12139TIP3    H157908   0.163   0.924  90.569  0.0565  0.1825  0.8313
12139TIP3    H257909   0.116   1.062  90.610 -1.5972  0.4653 -1.7445
12140TIP3   OH257910   2.659   1.930 103.846 -0.0572 -0.3710  0.3828
12140TIP3    H157911   2.585   1.989 103.827 -0.8233 -1.6621 -0.9433
12140TIP3    H257912   2.735   1.976 103.811 -0.2138  0.9223  1.6366
12141TIP3   OH257913   2.449   1.241 107.802 -0.5792  0.2733  0.1145
12141TIP3    H157914   2.479   1.186 107.874 -0.1808 -0.9728 -0.9595
12141TIP3    H257915   2.474   1.192 107.723  0.1194  2.1689 -0.8984
12142TIP3   OH257916   1.011   1.870  16.946  0.4090 -0.1749 -0.1571
12142TIP3    H157917   0.967   1.950  16.916  2.0724  0.6716 -0.4650
12142TIP3    H257918   1.012   1.878  17.041 -0.0199 -0.1676 -0.1496
12143TIP3   OH257919   2.175   1.160  75.177  0.5562 -0.3878 -0.0091
12143TIP3    H157920   2.114   1.097  75.217  1.1393  0.1793  1.9166
12143TIP3    H257921   2.217   1.112  75.106 -1.0167 -1.2694 -0.4010
12144TIP3   OH257922   2.069   1.132  22.319 -0.1801 -0.0015  0.2352
12144TIP3    H157923   2.086   1.208  22.264 -0.3416 -0.0763  0.0775
12144TIP3    H257924   2.142   1.129  22.380  0.1657 -0.1004 -0.1794
12145TIP3   OH257925   2.189   2.069 103.842  0.1790  0.1224  0.0191
12145TIP3    H157926   2.271   2.100 103.804 -0.1831  1.8509  0.5934
12145TIP3    H257927   2.159   2.001 103.781  1.0606  0.8233 -1.2345
12146TIP3   OH257928   0.442   0.328  13.593 -0.5444  0.0503  0.8783
12146TIP3    H157929   0.479   0.410  13.560  2.3301 -0.8790  1.4124
12146TIP3    H257930   0.514   0.265  13.584 -2.5877 -2.3968  0.6291
12147TIP3   OH257931   0.198   1.536   8.066  0.0254  0.1111  0.0142
12147TIP3    H157932   0.149   1.501   8.141 -0.2216 -1.3737 -0.8017
12147TIP3    H257933   0.283   1.562   8.103 -0.1909 -0.3431  0.8576
12148TIP3   OH257934   0.343   1.026  94.256  0.1688  0.1194 -0.0948
12148TIP3    H157935   0.255   1.024  94.293  1.0048  0.1386  1.9969
12148TIP3    H257936   0.372   0.935  94.256  0.1562  0.1108 -0.7980
12149TIP3   OH257937   0.914   1.583 111.866  0.1825  0.0929 -0.4766
12149TIP3    H157938   0.965   1.569 111.947 -0.0982 -0.5032 -0.3984
12149TIP3    H257939   0.962   1.651 111.820  0.1717  0.6739  0.3435
12150TIP3   OH257940   2.258   1.342  30.580 -0.0586  0.7299 -0.0587
12150TIP3    H157941   2.304   1.411  30.532 -0.6105  1.5842  0.5970
12150TIP3    H257942   2.255   1.374  30.671  0.8890 -0.8112  0.5516
12151TIP3   OH257943   0.946   1.867  92.099 -0.2796  0.2270  0.2402
12151TIP3    H157944   0.869   1.812  92.108 -1.0046  0.9241 -1.3422
12151TIP3    H257945   1.001   1.820  92.035 -0.0059  0.3918  0.3560
12152TIP3   OH257946   0.032   2.507   0.021 -0.6480  0.1159 -0.1068
12152TIP3    H157947   0.086   2.557   0.082  1.1419 -2.1244  0.3057
12152TIP3    H257948  -0.045   2.482   0.072 -1.2350  1.8083 -0.1193
12153TIP3   OH257949   0.454   1.198   3.026 -0.5177 -0.0121 -0.1501
12153TIP3    H157950   0.521   1.251   3.068  0.1736 -0.0847 -1.1273
12153TIP3    H257951   0.405   1.260   2.971  0.3682 -0.3764 -1.3897
12154TIP3   OH257952   0.756   2.493 102.912  0.0028  0.2654 -0.3518
12154TIP3    H157953   0.759   2.399 102.931  0.8797  0.6059  1.3316
12154TIP3    H257954   0.791   2.500 102.823 -0.0072 -0.9822 -0.4765
12155TIP3   OH257955   2.164   1.241  27.953  0.0465 -0.5828 -0.2456
12155TIP3    H157956   2.176   1.294  27.874  0.0907 -1.0183 -0.5306
12155TIP3    H257957   2.240   1.184  27.957  0.1253 -0.4568  0.2016
12156TIP3   OH257958   0.897   1.782  75.289  0.6927  0.0759 -0.3447
12156TIP3    H157959   0.884   1.705  75.344 -1.2391  0.7869  0.2770
12156TIP3    H257960   0.869   1.754  75.202 -2.6017  0.7054  0.3837
12157TIP3   OH257961   2.247   1.082  87.143  0.3002 -0.3315  0.2291
12157TIP3    H157962   2.257   1.170  87.108  0.1830  0.0173  1.0453
12157TIP3    H257963   2.318   1.032  87.102  0.4528  0.1715 -0.1374
12158TIP3   OH257964   1.437   0.640  28.977 -0.1090 -0.0902  0.6327
12158TIP3    H157965   1.528   0.647  28.950 -0.6241 -0.7787 -1.4489
12158TIP3    H257966   1.387   0.679  28.905 -1.4787  0.0469  1.6139
12159TIP3   OH257967   0.697   2.077  85.730 -0.3753  0.0741  0.1686
12159TIP3    H157968   0.778   2.039  85.696 -0.8435  0.1245 -1.0455
12159TIP3    H257969   0.629   2.043  85.673 -1.1633  0.3868  0.9102
12160TIP3   OH257970   2.318   0.727 105.640  0.8347  0.2096  0.3906
12160TIP3    H157971   2.377   0.722 105.715  0.5720 -1.5722  0.5228
12160TIP3    H257972   2.230   0.725 105.679  0.6925  0.2144  0.0736
12161TIP3   OH257973   1.411   0.503  33.900  0.3814  0.0593  0.2073
12161TIP3    H157974   1.430   0.577  33.957 -0.3774  0.1464  0.3542
12161TIP3    H257975   1.343   0.454  33.946  0.0782 -0.1091 -0.4132
12162TIP3   OH257976   1.828   0.036  95.467  0.1507  0.2371 -0.4738
12162TIP3    H157977   1.911   0.031  95.420  0.1963  3.1522 -0.9084
12162TIP3    H257978   1.849   0.005  95.555  1.1493 -1.0876 -1.1387
12163TIP3   OH257979   0.967   2.662  88.379 -0.0550 -0.3340 -0.4077
12163TIP3    H157980   0.907   2.736  88.390 -1.2499 -1.0284 -1.9180
12163TIP3    H257981   1.027   2.689  88.309 -1.6895 -1.4347 -2.3416
12164TIP3   OH257982   0.797   0.573 105.766  0.1369  0.3263 -0.0375
12164TIP3    H157983   0.780   0.646 105.706 -0.0713 -0.0231 -0.4051
12164TIP3    H257984   0.789   0.612 105.853 -0.2776  0.6765 -0.2270
12165TIP3   OH257985   0.272   0.770  85.487  0.1711 -0.5114 -0.2208
12165TIP3    H157986   0.365   0.759  85.469  0.2177 -3.1346  1.1694
12165TIP3    H257987   0.228   0.715  85.423 -0.5285  1.2306 -1.3005
12166TIP3   OH257988   0.199   0.367  20.647  0.3238 -0.2196  0.0982
12166TIP3    H157989   0.226   0.455  20.624 -1.0438  0.0953 -0.3983
12166TIP3    H257990   0.114   0.378  20.690 -0.6388 -1.3783 -1.3847
12167TIP3   OH257991   1.545   1.724 105.336  0.1366 -0.2827  0.0695
12167TIP3    H157992   1.514   1.687 105.254  0.3713  1.9071 -1.0841
12167TIP3    H257993   1.491   1.803 105.349  0.4644 -0.2899  1.7495
12168TIP3   OH257994   2.607   1.727  25.314 -0.6091 -0.5685  0.1493
12168TIP3    H157995   2.679   1.755  25.370  0.1940 -0.7428 -0.7632
12168TIP3    H257996   2.532   1.777  25.344 -0.0719 -0.2476  1.0010
12169TIP3   OH257997   1.646   1.290  83.563 -0.6114  0.7692 -0.2482
12169TIP3    H157998   1.664   1.349  83.637  2.6331 -1.2636  0.7989
12169TIP3    H257999   1.613   1.210  83.604 -0.9226  0.3741 -1.2413
12170TIP3   OH258000   1.786   1.543  63.194 -0.2844 -0.3235 -0.0191
12170TIP3    H158001   1.843   1.575  63.125 -0.9760 -1.3533 -1.0968
12170TIP3    H258002   1.788   1.448  63.186 -0.0092 -0.5019  1.6986
12171TIP3   OH258003   1.311   1.260  18.790 -0.0838 -0.3352 -0.3777
12171TIP3    H158004   1.397   1.253  18.831 -0.3137  0.1392  0.1991
12171TIP3    H258005   1.253   1.288  18.861 -0.7945 -1.0667 -0.6575
12172TIP3   OH258006   2.560   2.085  74.994 -0.3196 -0.0550 -0.5877
12172TIP3    H158007   2.569   2.145  75.068 -0.8889  0.2165 -0.7393
12172TIP3    H258008   2.531   2.003  75.033 -1.1410  0.2413 -0.5661
12173TIP3   OH258009   2.123   0.386  32.796  0.7330 -0.4250  0.6168
12173TIP3    H158010   2.138   0.349  32.710  0.8207  0.5473  0.2013
12173TIP3    H258011   2.049   0.446  32.784 -0.1268 -1.2791  1.5152
12174TIP3   OH258012   2.347   0.748 107.181 -0.1086  0.4511 -0.1133
12174TIP3    H158013   2.304   0.678 107.132  0.0472  0.6486 -0.5370
12174TIP3    H258014   2.402   0.702 107.244 -0.8559  0.1958  0.3746
12175TIP3   OH258015   0.272   2.454  74.314  0.3888  0.1835 -0.0619
12175TIP3    H158016   0.278   2.520  74.245 -1.2217 -1.5195 -1.9756
12175TIP3    H258017   0.188   2.472  74.357  0.3630 -0.0392 -0.0137
12176TIP3   OH258018   2.455   2.209  81.403  0.7189 -0.1755 -0.1846
12176TIP3    H158019   2.398   2.150  81.354 -1.0410  1.3644 -0.0759
12176TIP3    H258020   2.540   2.164  81.404 -0.3423 -2.3378 -0.7202
12177TIP3   OH258021   1.442   0.612  92.353 -0.2132 -0.0297  0.5268
12177TIP3    H158022   1.446   0.550  92.426 -0.9948 -0.2946  0.3439
12177TIP3    H258023   1.435   0.558  92.275  0.7558  0.2509  0.2267
12178TIP3   OH258024   0.814   0.109  14.935 -0.4589  0.6620 -0.5138
12178TIP3    H158025   0.880   0.084  14.871 -0.9363 -0.4726 -0.5832
12178TIP3    H258026   0.780   0.193  14.904 -0.9549 -0.0518 -1.9552
12179TIP3   OH258027   0.344   0.795   4.854 -0.6903  0.1568  0.1323
12179TIP3    H158028   0.355   0.750   4.770 -0.1114  2.2272 -0.9775
12179TIP3    H258029   0.288   0.737   4.905 -1.7400 -0.8325 -1.9802
12180TIP3   OH258030   0.568   1.935  96.423  0.0277  0.6622 -0.4118
12180TIP3    H158031   0.570   1.968  96.513 -0.5322 -1.4516  0.4306
12180TIP3    H258032   0.659   1.915  96.402  0.0767  0.4978 -0.0441
12181TIP3   OH258033   0.785   2.416  21.743  0.2179 -0.8811 -0.2427
12181TIP3    H158034   0.870   2.442  21.708 -0.8275  1.2481 -1.4517
12181TIP3    H258035   0.795   2.422  21.838  0.8580  1.7024 -0.3818
12182TIP3   OH258036   0.646   2.508  82.936 -0.3018  0.7462  0.9735
12182TIP3    H158037   0.730   2.509  82.983  0.3947 -1.4147 -0.0771
12182TIP3    H258038   0.671   2.516  82.843 -1.2129 -0.3844  0.6173
12183TIP3   OH258039   1.146   1.213 100.147  0.6161 -0.6691  0.4588
12183TIP3    H158040   1.104   1.157 100.082  1.8067 -0.5634 -0.4475
12183TIP3    H258041   1.208   1.156 100.192  0.6274 -0.4669  0.7031
12184TIP3   OH258042   1.792   0.770  17.770  0.1990  0.0432  0.4556
12184TIP3    H158043   1.711   0.816  17.793 -0.2113 -0.0419 -0.7627
12184TIP3    H258044   1.780   0.744  17.679  2.5730  2.1833 -0.6022
12185TIP3   OH258045   2.515   1.115  82.199  0.0906  0.1755  0.0982
12185TIP3    H158046   2.451   1.115  82.128 -0.3101 -1.0146  0.4364
12185TIP3    H258047   2.548   1.026  82.202 -1.3581 -0.3783  2.6456
12186TIP3   OH258048   0.113   1.255   3.139 -0.0059 -0.2118  0.0488
12186TIP3    H158049   0.181   1.199   3.177  0.6493 -0.2424 -1.1044
12186TIP3    H258050   0.031   1.210   3.159  0.3077 -0.2286  1.3747
12187TIP3   OH258051   0.747   0.293 103.430 -0.0992 -0.2580  0.4380
12187TIP3    H158052   0.737   0.206 103.391  0.0240  0.2828 -0.8548
12187TIP3    H258053   0.835   0.321 103.404  0.4947 -0.3846  2.2050
12188TIP3   OH258054   1.007   2.037  85.118  0.6416  0.3362 -0.0008
12188TIP3    H158055   0.938   2.025  85.183 -0.3911 -0.4030 -1.1997
12188TIP3    H258056   1.073   2.091  85.163 -0.1980  0.1426  1.5233
12189TIP3   OH258057   2.348   0.469  21.899  0.2724  0.1808  0.2620
12189TIP3    H158058   2.337   0.441  21.990 -0.1727 -1.0728 -0.1652
12189TIP3    H258059   2.379   0.392  21.852 -0.2054  0.5943 -0.7879
12190TIP3   OH258060   1.293   0.573  29.983 -0.2853  0.0150 -0.1288
12190TIP3    H158061   1.253   0.598  30.066  0.7808  0.0538  0.3959
12190TIP3    H258062   1.348   0.498  30.005  1.4289  1.1277 -0.3853
12191TIP3   OH258063   1.484   0.999  10.742  0.0489 -0.3597  0.0315
12191TIP3    H158064   1.453   1.089  10.758 -1.3046 -0.6833 -0.6262
12191TIP3    H258065   1.509   0.998  10.650  0.2547 -0.5968  0.0912
12192TIP3   OH258066   1.210   1.831  10.736 -0.4273  0.1156  0.5983
12192TIP3    H158067   1.208   1.871  10.823 -1.8590  0.0935  0.5955
12192TIP3    H258068   1.266   1.754  10.747  0.4584  0.8229  1.1675
12193TIP3   OH258069   1.263   1.150  79.209 -0.1155  0.1501 -0.6018
12193TIP3    H158070   1.188   1.090  79.210 -0.7682  0.9418 -0.5200
12193TIP3    H258071   1.236   1.221  79.151  0.0090  1.1355  0.4932
12194TIP3   OH258072   2.068   1.130  77.991 -0.4510 -0.6380 -0.4921
12194TIP3    H158073   1.978   1.132  78.026 -0.4962 -1.1217 -0.5724
12194TIP3    H258074   2.082   1.038  77.967  1.5201 -1.5306  3.3138
12195TIP3   OH258075   1.270   0.264  86.891  0.0727 -0.4008 -0.3456
12195TIP3    H158076   1.208   0.226  86.828 -0.4454  0.5159 -0.3959
12195TIP3    H258077   1.239   0.353  86.905  0.2428 -0.5478  1.1325
12196TIP3   OH258078   0.646   2.585   3.551  0.2714 -0.1551  0.3893
12196TIP3    H158079   0.666   2.651   3.486 -2.7838  0.7365  0.1854
12196TIP3    H258080   0.651   2.631   3.635 -1.8268  0.4228  0.2495
12197TIP3   OH258081   0.385   1.218  67.520  0.6661 -0.2952  0.5147
12197TIP3    H158082   0.300   1.254  67.495  1.6093  0.8234 -1.2771
12197TIP3    H258083   0.366   1.128  67.546 -0.9123 -0.4525 -1.0156
12198TIP3   OH258084   0.600   2.445  15.325 -0.1709 -0.1244 -0.7650
12198TIP3    H158085   0.672   2.396  15.287  0.5876  0.6035 -0.3193
12198TIP3    H258086   0.632   2.472  15.411 -1.2106 -0.3131 -0.3025
12199TIP3   OH258087   2.380   0.493  39.077 -0.6295  0.1334 -0.0752
12199TIP3    H158088   2.377   0.476  39.171  0.5106 -1.0821 -0.2301
12199TIP3    H258089   2.383   0.589  39.070 -0.3173  0.2301  1.1311
12200TIP3   OH258090   1.540   1.512   9.308  0.6678  0.1884  0.4308
12200TIP3    H158091   1.559   1.567   9.384 -0.2559  0.4263  0.4988
12200TIP3    H258092   1.547   1.572   9.233  1.3886 -0.0031  0.3369
12201TIP3   OH258093   0.946   0.363  96.357  0.2971 -0.5125  0.3748
12201TIP3    H158094   1.034   0.359  96.321  0.7434 -0.5311  1.4219
12201TIP3    H258095   0.954   0.322  96.443 -1.0100 -1.6845 -0.0241
12202TIP3   OH258096   1.620   0.650  22.506 -0.2663  0.2582  0.3609
12202TIP3    H158097   1.626   0.694  22.421 -1.6981 -0.1272  0.0178
12202TIP3    H258098   1.695   0.681  22.555  0.1795  1.0742 -0.7868
12203TIP3   OH258099   0.264   2.306 109.092  0.4266 -0.1981 -0.2524
12203TIP3    H158100   0.257   2.345 109.005 -1.0715  2.3019  0.8897
12203TIP3    H258101   0.195   2.348 109.143  2.3766 -0.2203  2.6365
12204TIP3   OH258102   1.281   1.616 111.882  0.6148 -0.1529 -0.0837
12204TIP3    H158103   1.373   1.617 111.858  0.9753  0.8140  1.2000
12204TIP3    H258104   1.239   1.675 111.820  0.7655 -0.9394 -0.9545
12205TIP3   OH258105   1.125   1.155  20.394 -0.0367 -0.2322 -0.1806
12205TIP3    H158106   1.146   1.203  20.313  0.8284 -4.0944 -2.5012
12205TIP3    H258107   1.030   1.160  20.401 -0.2145 -0.4379 -1.9433
12206TIP3   OH258108   2.002   1.229  21.475 -0.0983  0.1808 -0.0095
12206TIP3    H158109   1.936   1.280  21.523  0.1298  0.0297  0.4691
12206TIP3    H258110   2.083   1.280  21.484 -0.1440  0.3542 -0.5744
12207TIP3   OH258111   2.563   2.548  15.744  0.3448 -0.5002 -0.0759
12207TIP3    H158112   2.575   2.629  15.694  0.2499 -0.8497 -0.6730
12207TIP3    H258113   2.570   2.479  15.679  1.1289 -1.0174  0.5375
12208TIP3   OH258114   0.227   0.378  34.166  0.7940 -0.2151 -0.2306
12208TIP3    H158115   0.183   0.359  34.083  1.8514  1.6832 -1.2864
12208TIP3    H258116   0.300   0.436  34.143 -0.3817  2.5478  2.2818
12209TIP3   OH258117   1.413   1.483 102.909 -0.4335  0.6253  0.1377
12209TIP3    H158118   1.491   1.427 102.911 -0.5679  0.4473  0.5995
12209TIP3    H258119   1.448   1.572 102.901 -0.2626  0.3653 -4.7071
12210TIP3   OH258120   1.504   0.059 111.584 -0.3222  0.3755 -0.4828
12210TIP3    H158121   1.551   0.075 111.665 -0.4439  1.9910 -0.6890
12210TIP3    H258122   1.560  -0.000 111.534 -0.0174 -0.2327  0.5671
12211TIP3   OH258123   1.701   1.247 108.060 -0.5360  0.1166 -0.0420
12211TIP3    H158124   1.786   1.229 108.099  0.2151  0.1881 -1.6203
12211TIP3    H258125   1.672   1.328 108.103 -0.5396 -0.7132  1.6007
12212TIP3   OH258126   1.349   0.761  89.459  0.4207 -0.1040  0.1549
12212TIP3    H158127   1.318   0.780  89.370 -1.9286  2.7289  1.3976
12212TIP3    H258128   1.273   0.776  89.515  1.8515 -1.6277  2.7226
12213TIP3   OH258129   0.218   0.427  16.209 -0.3334 -0.4866 -0.2366
12213TIP3    H158130   0.218   0.496  16.143 -0.5110 -1.5468 -1.3850
12213TIP3    H258131   0.306   0.430  16.247  0.0713 -0.4231 -1.1486
12214TIP3   OH258132   0.603   2.205  23.185  0.0611 -0.1131 -0.0034
12214TIP3    H158133   0.568   2.230  23.099  0.4306  0.7015  0.0771
12214TIP3    H258134   0.698   2.205  23.173  0.1792  1.4999  0.7955
12215TIP3   OH258135   2.607   1.845  30.300 -0.2003 -0.5552  0.3004
12215TIP3    H158136   2.671   1.823  30.232  1.3186  0.2944  1.3738
12215TIP3    H258137   2.609   1.770  30.360  0.4952 -0.1521  0.8018
12216TIP3   OH258138   1.509   0.508  35.914 -0.0495 -0.2413 -0.1600
12216TIP3    H158139   1.442   0.508  35.983  0.6684  0.5831  0.5599
12216TIP3    H258140   1.508   0.419  35.880 -1.2533 -0.3447  0.0872
12217TIP3   OH258141   0.273   0.075  84.031  0.7766  0.4692 -0.1982
12217TIP3    H158142   0.190   0.100  84.073  0.3134 -0.6723 -0.3991
12217TIP3    H258143   0.329   0.049  84.104 -0.3721 -2.5230 -0.2265
12218TIP3   OH258144   1.419   0.559  88.060 -0.0758  0.1986 -0.0744
12218TIP3    H158145   1.351   0.574  87.994 -2.0112  1.8478  2.1561
12218TIP3    H258146   1.462   0.644  88.070  0.1438 -0.0083  0.8310
12219TIP3   OH258147   0.134   2.104 110.555 -0.0024  0.1629  0.2180
12219TIP3    H158148   0.122   2.186 110.602  0.4112  0.7630 -0.6962
12219TIP3    H258149   0.229   2.092 110.550 -0.0443 -0.0479 -0.1831
12220TIP3   OH258150   0.535   2.573   6.274  0.9015 -0.2375  0.5360
12220TIP3    H158151   0.541   2.519   6.195 -1.0999  1.0820 -0.6073
12220TIP3    H258152   0.595   2.646   6.257  0.9198 -0.2623  0.4952
12221TIP3   OH258153   1.040   1.740 109.233  0.7114 -0.4670 -0.9767
12221TIP3    H158154   1.050   1.817 109.289 -0.8129 -1.0293  0.1266
12221TIP3    H258155   0.981   1.768 109.163  1.8898 -0.0327 -1.8317
12222TIP3   OH258156   1.270   1.402  85.122  0.4222  0.8376  0.3686
12222TIP3    H158157   1.218   1.323  85.104 -1.8869  1.7544  2.5143
12222TIP3    H258158   1.206   1.469  85.142  2.3900  2.0979  3.1028
12223TIP3   OH258159   1.837   1.570  24.082 -0.0272 -0.2798 -0.1491
12223TIP3    H158160   1.928   1.544  24.070  0.0188  0.3511 -1.2994
12223TIP3    H258161   1.818   1.629  24.008 -0.7647  1.1970  1.1433
12224TIP3   OH258162   1.511   2.130 100.792 -0.0890 -0.2389  0.1473
12224TIP3    H158163   1.432   2.110 100.842  0.9862 -2.6629  1.0615
12224TIP3    H258164   1.493   2.096 100.704 -0.6354  0.6776 -0.0993
12225TIP3   OH258165   2.172   0.704  91.034  0.4270 -0.2967  0.2680
12225TIP3    H158166   2.080   0.685  91.018  0.1839 -0.0055  1.2601
12225TIP3    H258167   2.175   0.798  91.051  0.4537 -0.7280  3.0354
12226TIP3   OH258168   1.653   1.155   8.576 -0.0647  0.0141  0.0894
12226TIP3    H158169   1.609   1.139   8.660 -0.9938 -2.5676 -0.7588
12226TIP3    H258170   1.597   1.219   8.532 -0.7108 -0.1472  0.6460
12227TIP3   OH258171   0.579   1.207  95.011  0.0178  0.1168 -0.3727
12227TIP3    H158172   0.528   1.281  95.044 -1.1526 -1.0075  0.4533
12227TIP3    H258173   0.669   1.225  95.038 -0.3474  0.9519  0.3203
12228TIP3   OH258174   0.223   2.586  96.795  0.5503 -0.0845 -0.5163
12228TIP3    H158175   0.134   2.590  96.830  0.1102  0.9685 -1.6655
12228TIP3    H258176   0.253   2.497  96.816 -1.0742 -0.7486 -0.8200
12229TIP3   OH258177   2.444   1.555   4.202 -0.2390 -0.6669 -0.5705
12229TIP3    H158178   2.414   1.615   4.271 -1.0747 -1.8066  0.1040
12229TIP3    H258179   2.534   1.534   4.226 -0.4623 -0.9053  0.0834
12230TIP3   OH258180   1.813   1.594 101.342 -0.1139 -0.0522  0.2181
12230TIP3    H158181   1.798   1.520 101.400 -2.3539 -0.4303 -0.7335
12230TIP3    H258182   1.806   1.557 101.254 -0.5178  1.1436 -0.2680
12231TIP3   OH258183   1.056   0.406  83.720  0.4461  0.2971 -0.4536
12231TIP3    H158184   1.026   0.409  83.629 -0.7622  0.1752 -0.0652
12231TIP3    H258185   0.985   0.363  83.768  0.0644  2.3490  0.9327
12232TIP3   OH258186   1.528   0.880 110.035 -0.8954 -0.2900  0.0986
12232TIP3    H158187   1.532   0.946 109.966  1.5681 -0.0626  0.3854
12232TIP3    H258188   1.558   0.925 110.114 -0.8202 -1.3120  0.6715
12233TIP3   OH258189   1.306   1.833 108.015  0.3959 -0.3925  0.1220
12233TIP3    H158190   1.250   1.811 107.941  0.6406 -2.2954  0.4505
12233TIP3    H258191   1.337   1.922 107.997  0.5154 -0.8392 -2.0754
12234TIP3   OH258192   1.959   2.654  99.907 -0.3832 -0.6525  0.5558
12234TIP3    H158193   1.968   2.716  99.835  0.1802  0.0201  1.1835
12234TIP3    H258194   1.929   2.707  99.981  0.1429 -1.1077  1.1150
12235TIP3   OH258195   2.459   0.442  92.005  0.9043  0.5802 -0.2271
12235TIP3    H158196   2.497   0.355  92.023  1.3449  0.0244 -3.1763
12235TIP3    H258197   2.369   0.436  92.037 -0.2524 -2.3661 -3.3526
12236TIP3   OH258198   1.206   2.451  16.473  0.2928 -0.2982  0.6360
12236TIP3    H158199   1.283   2.428  16.525  0.7023 -1.0743 -0.2875
12236TIP3    H258200   1.240   2.471  16.386 -0.4032  0.8121  0.5974
12237TIP3   OH258201   0.657   2.056  26.350 -0.1133  0.0157  0.0713
12237TIP3    H158202   0.594   2.026  26.284  0.6956  0.9743 -1.1789
12237TIP3    H258203   0.723   1.987  26.354  0.9155  0.8592 -1.6497
12238TIP3   OH258204   2.022   0.047  97.217  0.3741  0.0245 -0.1091
12238TIP3    H158205   1.953   0.032  97.281  0.7182  0.2337  0.3262
12238TIP3    H258206   2.034  -0.037  97.173  0.5683 -0.2926  0.5434
12239TIP3   OH258207   0.347   0.224  74.845  0.0636  0.0203 -0.1671
12239TIP3    H158208   0.309   0.136  74.847  3.9279 -1.9019 -0.9625
12239TIP3    H258209   0.392   0.232  74.929  0.7047  0.7227 -0.5755
12240TIP3   OH258210   2.590   1.712  12.443 -0.2863  0.3627 -0.0395
12240TIP3    H158211   2.610   1.751  12.358 -0.0618  0.2046 -0.0587
12240TIP3    H258212   2.656   1.748  12.502  0.8149 -1.0500 -0.3422
12241TIP3   OH258213   2.402   1.347  80.888 -0.1822  0.0318 -0.7532
12241TIP3    H158214   2.317   1.324  80.851 -0.5844 -0.2904  0.3506
12241TIP3    H258215   2.456   1.367  80.811 -1.5333  1.2993 -1.4366
12242TIP3   OH258216   0.843   1.807 106.302 -0.1026  0.6402  0.8033
12242TIP3    H158217   0.883   1.883 106.259  0.0534 -0.1992 -0.6077
12242TIP3    H258218   0.915   1.766 106.350  0.1732  0.5396  0.3124
12243TIP3   OH258219   2.586   2.479  36.126  0.0160 -0.1124 -0.4627
12243TIP3    H158220   2.503   2.521  36.147 -0.4392 -1.5674  0.7844
12243TIP3    H258221   2.645   2.553  36.107 -0.5139  1.2230  2.4763
12244TIP3   OH258222   0.850   0.352  21.143  0.2908 -0.5736 -0.2237
12244TIP3    H158223   0.766   0.327  21.183 -0.5809  1.2612 -0.7854
12244TIP3    H258224   0.857   0.295  21.066 -0.0422 -1.2957  0.2678
12245TIP3   OH258225   1.185   0.878 108.789 -0.5693 -0.2497  0.0505
12245TIP3    H158226   1.102   0.862 108.835 -0.8397 -0.6074 -0.5419
12245TIP3    H258227   1.248   0.897 108.858 -0.7400 -1.7320  0.6487
12246TIP3   OH258228   2.375   2.059  16.530  0.0693 -0.1452  0.3242
12246TIP3    H158229   2.424   1.999  16.474  0.6027  1.0331 -0.5067
12246TIP3    H258230   2.357   2.008  16.609  0.3917 -1.4325 -0.4058
12247TIP3   OH258231   1.573   0.967  13.923 -0.1893 -0.2052 -0.0441
12247TIP3    H158232   1.535   1.044  13.881 -0.0872 -0.3539 -0.4140
12247TIP3    H258233   1.618   0.921  13.853  1.6647  0.5528  0.5759
12248TIP3   OH258234   1.561   1.680  20.615  0.1716  0.0787  0.4436
12248TIP3    H158235   1.626   1.725  20.561  1.6858 -1.7092  0.6865
12248TIP3    H258236   1.527   1.749  20.673  0.0265  1.5771 -1.3034
12249TIP3   OH258237   0.618   0.160  24.688 -0.0558 -0.2590 -0.2347
12249TIP3    H158238   0.606   0.065  24.691  0.3295 -0.3059 -0.1437
12249TIP3    H258239   0.712   0.172  24.675 -0.0919  0.1112 -0.1606
12250TIP3   OH258240   1.261   1.576   7.104  0.0750 -0.3086 -0.1419
12250TIP3    H158241   1.310   1.539   7.177 -1.5041  0.4143  1.3645
12250TIP3    H258242   1.197   1.635   7.145 -0.0719  1.0716 -2.1914
12251TIP3   OH258243   2.521   1.381  99.310  0.3060 -0.4406 -0.2083
12251TIP3    H158244   2.577   1.331  99.369  0.4972  0.6696  0.5722
12251TIP3    H258245   2.549   1.472  99.320 -1.6723  0.1667  0.2731
12252TIP3   OH258246   0.422   1.693  89.489  0.1131 -0.0226 -0.2167
12252TIP3    H158247   0.418   1.663  89.398  0.6285  0.7727 -0.5159
12252TIP3    H258248   0.369   1.630  89.537  0.5312 -0.9488 -0.9330
12253TIP3   OH258249   2.513   1.086 110.727  0.4337 -0.7973  0.5101
12253TIP3    H158250   2.592   1.108 110.777  0.4371 -0.2272  0.2610
12253TIP3    H258251   2.516   0.990 110.718  1.6426 -0.7046 -0.3655
12254TIP3   OH258252   0.828   2.681  80.653 -0.2924  0.0082 -0.3685
12254TIP3    H158253   0.749   2.649  80.609 -0.4878  2.1134 -1.6298
12254TIP3    H258254   0.873   2.733  80.588  0.8956  0.8730  1.0819
12255TIP3   OH258255   2.444   1.455  46.962  0.1017  0.1650 -0.8674
12255TIP3    H158256   2.457   1.388  47.029  0.1861  0.8885 -0.1349
12255TIP3    H258257   2.403   1.528  47.009 -0.7789  0.3052 -1.8277
12256TIP3   OH258258   0.823   1.417  82.324 -0.0805  0.4732  0.0561
12256TIP3    H158259   0.766   1.347  82.291 -1.7919  1.3273  1.0459
12256TIP3    H258260   0.785   1.497  82.290 -0.1873  1.1569  1.6809
12257TIP3   OH258261   0.104   0.498  24.481 -0.0567  0.0931  0.7557
12257TIP3    H158262   0.114   0.407  24.455  2.3060  0.3103  0.7208
12257TIP3    H258263   0.073   0.543  24.403  0.5725 -0.3820  0.2272
12258TIP3   OH258264   1.649   2.037  12.119 -0.3612  0.0769 -0.1424
12258TIP3    H158265   1.745   2.029  12.117 -0.3385  0.3086 -0.0230
12258TIP3    H258266   1.627   2.031  12.212 -0.4167  0.5482 -0.1239
12259TIP3   OH258267   1.637   1.332  19.997 -0.4995 -0.0894 -0.4995
12259TIP3    H158268   1.567   1.383  20.038 -1.1113 -0.6581 -0.8197
12259TIP3    H258269   1.645   1.369  19.909  0.5056  0.8336 -0.0422
12260TIP3   OH258270   2.530   1.356   6.927  0.1697  0.3527  0.3046
12260TIP3    H158271   2.486   1.434   6.892 -0.4627  0.0730  0.4684
12260TIP3    H258272   2.583   1.324   6.854 -1.1337 -0.2236 -0.4237
12261TIP3   OH258273   0.252   1.920  36.337  0.4146  0.0460 -0.5678
12261TIP3    H158274   0.257   1.836  36.384 -0.8612 -0.0711 -0.6008
12261TIP3    H258275   0.296   1.982  36.394 -0.9127 -0.1331  0.7246
12262TIP3   OH258276   1.911   1.735  74.893 -0.2638  0.7358  0.1265
12262TIP3    H158277   1.816   1.747  74.899 -0.7512 -0.7482 -2.7827
12262TIP3    H258278   1.935   1.694  74.976 -2.2917  0.5103  0.6591
12263TIP3   OH258279   1.395   0.421   4.103 -0.2765  0.6859 -0.3664
12263TIP3    H158280   1.402   0.383   4.015 -0.8985  2.4257 -1.2194
12263TIP3    H258281   1.319   0.479   4.098  0.0917  1.3435  1.1177
12264TIP3   OH258282   1.912   2.431  20.551  0.0731  0.2446  0.3147
12264TIP3    H158283   1.991   2.429  20.497  0.0509 -0.7044  0.3053
12264TIP3    H258284   1.937   2.386  20.632 -0.2487  0.5837  0.6078
12265TIP3   OH258285   0.189   0.298  76.190 -0.5613 -0.2071 -0.5812
12265TIP3    H158286   0.194   0.384  76.148 -1.4753  0.5479  0.7717
12265TIP3    H258287   0.280   0.276  76.209 -0.3350  0.5880 -0.6989
12266TIP3   OH258288   0.572   0.536  97.647 -0.2659  0.2343  0.0314
12266TIP3    H158289   0.514   0.512  97.574  0.3689  1.9030 -1.0996
12266TIP3    H258290   0.512   0.552  97.720 -1.1538  0.6990 -0.7676
12267TIP3   OH258291   0.835   1.611  19.190 -0.0956 -0.4049  0.1153
12267TIP3    H158292   0.812   1.562  19.269  0.4582 -1.4504 -0.3449
12267TIP3    H258293   0.847   1.543  19.123 -0.5106  0.4608 -0.8565
12268TIP3   OH258294   1.934   0.769  20.793 -0.4453  0.1367 -0.3277
12268TIP3    H158295   1.957   0.728  20.877  0.2563  1.0880 -0.0305
12268TIP3    H258296   1.839   0.764  20.789 -0.3867 -1.5530 -0.3378
12269TIP3   OH258297   2.549   0.642  84.857 -0.0237 -0.2912  0.2131
12269TIP3    H158298   2.631   0.594  84.870  0.1921  0.4201  1.5840
12269TIP3    H258299   2.508   0.645  84.944 -0.1000  1.8736  0.1491
12270TIP3   OH258300   2.164   0.813 104.726 -0.0265 -0.3021  0.3272
12270TIP3    H158301   2.099   0.772 104.669 -0.1364 -0.0824  0.2933
12270TIP3    H258302   2.167   0.758 104.804 -0.0160 -0.4966  0.1917
12271TIP3   OH258303   1.022   1.159   0.523  0.7429 -0.0573 -0.6571
12271TIP3    H158304   1.116   1.172   0.528  0.5032  1.6045  0.7897
12271TIP3    H258305   0.986   1.221   0.586 -1.2174 -2.1811  0.4709
12272TIP3   OH258306   1.243   1.658 105.362 -0.3131 -0.2211  0.3791
12272TIP3    H158307   1.268   1.609 105.283 -0.4285  1.7426 -0.9323
12272TIP3    H258308   1.181   1.600 105.407 -0.5516 -1.2377 -1.1685
12273TIP3   OH258309   2.488   1.334  26.637 -0.0929 -0.3261 -0.1175
12273TIP3    H158310   2.402   1.294  26.632  0.5639 -1.6927 -1.6165
12273TIP3    H258311   2.536   1.280  26.701  0.1355 -0.6268 -0.5327
12274TIP3   OH258312   0.931   0.017   4.839 -0.7097  0.2960 -0.4519
12274TIP3    H158313   0.951   0.098   4.792 -1.0687  0.7691  0.1834
12274TIP3    H258314   0.998   0.012   4.907 -1.0886  0.4215 -0.0653
12275TIP3   OH258315   2.574   1.174  15.327 -0.3058 -0.0956 -0.3564
12275TIP3    H158316   2.542   1.089  15.297  0.0313 -0.3280 -0.0702
12275TIP3    H258317   2.574   1.228  15.248  0.7252 -0.7421 -0.8241
12276TIP3   OH258318   1.667   1.234  73.401  0.4096  0.3981 -0.5605
12276TIP3    H158319   1.708   1.321  73.399 -0.9711  1.0888  0.1034
12276TIP3    H258320   1.595   1.241  73.338 -1.6018  0.7486  1.6667
12277TIP3   OH258321   1.235   0.471 103.515  0.3696 -0.3791 -0.1426
12277TIP3    H158322   1.291   0.506 103.446 -0.1824  0.7354 -0.0558
12277TIP3    H258323   1.211   0.383 103.485  1.3299 -0.4829 -0.6525
12278TIP3   OH258324   2.052   2.070  76.117  0.1933  0.2403  0.0621
12278TIP3    H158325   2.034   2.004  76.050 -0.8612 -1.3597  1.8071
12278TIP3    H258326   2.146   2.062  76.134  0.4926  0.7308 -1.2415
12279TIP3   OH258327   1.431   0.159  83.109  0.1510 -0.3215  0.3342
12279TIP3    H158328   1.364   0.227  83.103 -1.6670 -1.9972  0.5593
12279TIP3    H258329   1.489   0.189  83.179  0.8413  2.1279 -1.1660
12280TIP3   OH258330   1.252   0.761   5.113 -0.2164  0.2476  0.1436
12280TIP3    H158331   1.336   0.720   5.089  0.2006  1.2071 -0.0977
12280TIP3    H258332   1.186   0.711   5.065  0.3511  0.3334 -0.7484
12281TIP3   OH258333   1.506   2.006  99.888 -0.2982 -0.1626  0.0038
12281TIP3    H158334   1.495   1.920  99.928 -1.1607 -0.9138 -1.7498
12281TIP3    H258335   1.547   1.989  99.803  0.8132  1.3047  0.2028
12282TIP3   OH258336   1.305   0.496  36.864  0.7034  0.1390 -0.0895
12282TIP3    H158337   1.250   0.428  36.823 -0.5454  0.6474  0.6846
12282TIP3    H258338   1.243   0.562  36.893  1.6106  0.1983  1.8699
12283TIP3   OH258339   1.682   1.579   6.793 -0.4918  0.1520  0.4047
12283TIP3    H158340   1.602   1.615   6.756 -0.1753 -0.9269 -1.4764
12283TIP3    H258341   1.662   1.487   6.811  0.1815 -0.0322  0.2780
12284TIP3   OH258342   0.436   1.432  80.667  0.0589  0.0808 -0.1863
12284TIP3    H158343   0.471   1.521  80.668  0.7764 -0.1691  1.3553
12284TIP3    H258344   0.414   1.415  80.576  0.2624  1.7035 -0.5619
12285TIP3   OH258345   0.608   1.575  14.657 -0.1777 -0.4065 -0.2079
12285TIP3    H158346   0.595   1.540  14.745 -1.1965 -0.0553 -0.2095
12285TIP3    H258347   0.695   1.616  14.660  0.1810 -1.1941  0.3613
12286TIP3   OH258348   1.927   1.889 109.243 -0.1653 -0.5634  0.0351
12286TIP3    H158349   1.896   1.942 109.170  0.4353 -1.5795 -0.9872
12286TIP3    H258350   2.022   1.906 109.247 -0.2293 -0.3216  0.7541
12287TIP3   OH258351   0.399   2.146  14.996  0.2232  0.3595 -0.5498
12287TIP3    H158352   0.450   2.215  14.956  0.3165  0.0792 -0.9162
12287TIP3    H258353   0.442   2.065  14.969  0.0084  0.1507 -0.2749
12288TIP3   OH258354   1.787   1.482   7.762  0.4493  0.4611  0.0239
12288TIP3    H158355   1.794   1.485   7.666 -2.2497 -2.5269 -0.4303
12288TIP3    H258356   1.846   1.411   7.788  0.2628  0.4596  0.4459
12289TIP3   OH258357   1.280   0.382  87.173 -0.5035  0.6219 -0.1516
12289TIP3    H158358   1.374   0.365  87.165 -0.7295 -1.6918  1.0939
12289TIP3    H258359   1.243   0.350  87.091 -0.1017  3.3742 -1.5330
12290TIP3   OH258360   1.233   1.886 108.571 -0.0454 -0.1609  0.0355
12290TIP3    H158361   1.318   1.868 108.530 -0.7893  0.6879 -2.0395
12290TIP3    H258362   1.170   1.877 108.499 -1.5708  0.3936  1.2540
12291TIP3   OH258363   0.648   1.565  76.989 -0.3245  0.2239  0.1021
12291TIP3    H158364   0.598   1.642  77.012 -1.4105 -0.4584  0.0952
12291TIP3    H258365   0.594   1.491  77.017  0.9398 -0.5373  0.6383
12292TIP3   OH258366   2.593   1.396  76.113 -0.2208  0.2891  0.0792
12292TIP3    H158367   2.597   1.352  76.028 -0.7744 -1.0234  0.7106
12292TIP3    H258368   2.614   1.328  76.177  0.1364  1.2406  1.0085
12293TIP3   OH258369   1.559   1.410  10.380 -0.3957 -0.0057 -0.2277
12293TIP3    H158370   1.498   1.369  10.319  0.4938 -1.6620 -0.0677
12293TIP3    H258371   1.529   1.384  10.466  0.3537 -0.6164 -0.1358
12294TIP3   OH258372   0.309   0.921 108.898  0.1750  0.2482  0.2326
12294TIP3    H158373   0.331   0.890 108.811  0.5351 -0.0730  0.4296
12294TIP3    H258374   0.324   1.016 108.895 -0.5114  0.3503 -0.2606
12295TIP3   OH258375   2.194   0.760 108.006  0.5317 -0.3411 -0.0284
12295TIP3    H158376   2.136   0.744 108.080 -1.9483  0.5337 -1.6730
12295TIP3    H258377   2.188   0.855 107.992  1.8563 -0.3368 -0.6832
12296TIP3   OH258378   1.407   2.132  32.215 -0.1586 -0.2669  0.4495
12296TIP3    H158379   1.431   2.201  32.152  0.1445 -0.8315 -0.0677
12296TIP3    H258380   1.369   2.063  32.161  0.5895 -0.9838  0.8278
12297TIP3   OH258381   2.470   1.036 100.122 -0.2058  0.0640 -0.5905
12297TIP3    H158382   2.543   1.035 100.183 -1.0101  0.3890  0.4057
12297TIP3    H258383   2.395   1.063 100.175 -1.0555 -0.2950 -1.5815
12298TIP3   OH258384   0.929   1.359 107.251  0.0264 -0.2188  0.2015
12298TIP3    H158385   0.910   1.301 107.178  0.8691 -1.0242  0.6030
12298TIP3    H258386   0.854   1.348 107.310  0.3596 -1.2144  0.4609
12299TIP3   OH258387   2.050   0.913  74.944  0.3919 -0.2845 -0.5179
12299TIP3    H158388   1.990   0.986  74.925 -0.1079 -0.3624  0.6487
12299TIP3    H258389   2.135   0.955  74.957  0.2067  0.0454 -0.3442
12300TIP3   OH258390   0.464   0.333  74.070 -0.0324 -0.8456  0.0203
12300TIP3    H158391   0.370   0.326  74.058 -0.1361  1.2909 -0.8905
12300TIP3    H258392   0.475   0.396  74.142  0.6567 -0.0574 -0.7400
12301TIP3   OH258393   2.371   2.518  78.881 -0.3968  0.1750 -0.3121
12301TIP3    H158394   2.418   2.578  78.824 -0.7927  1.2083  0.4016
12301TIP3    H258395   2.424   2.439  78.883  0.1260  0.4903 -1.3050
12302TIP3   OH258396   1.907   1.323  88.078  0.5837  0.1847 -0.4132
12302TIP3    H158397   1.977   1.386  88.061  1.3612 -0.5659 -0.0677
12302TIP3    H258398   1.830   1.377  88.096  1.2507  1.0348 -0.0491
12303TIP3   OH258399   1.847   1.654  10.941 -0.2746  0.6086 -0.1160
12303TIP3    H158400   1.845   1.559  10.935  0.5740  0.4651  1.3822
12303TIP3    H258401   1.902   1.682  10.868  1.4132 -0.2438  0.7734
12304TIP3   OH258402   0.190   1.329  25.260  0.0730 -0.0791 -0.4999
12304TIP3    H158403   0.097   1.347  25.269  0.0057 -0.7068  0.2069
12304TIP3    H258404   0.202   1.309  25.167 -0.3572  0.7046 -0.7320
12305TIP3   OH258405   1.576   0.561  23.774 -0.0636 -0.2219 -0.4935
12305TIP3    H158406   1.549   0.477  23.737 -0.8957 -0.4495  0.5799
12305TIP3    H258407   1.513   0.624  23.739 -1.4856 -0.5987  1.2523
12306TIP3   OH258408   0.198   1.096  89.191  0.0888  0.0395 -0.3036
12306TIP3    H158409   0.251   1.141  89.125 -0.2342  1.0825  0.1346
12306TIP3    H258410   0.116   1.076  89.145  0.0642  0.2977 -0.3788
12307TIP3   OH258411   2.229   0.984  79.454 -0.2044 -0.1650 -0.3523
12307TIP3    H158412   2.305   0.967  79.509  1.0964  2.5713 -1.1151
12307TIP3    H258413   2.155   0.985  79.515  0.3950 -2.2667  0.4872
12308TIP3   OH258414   2.001   2.618  23.558 -0.3637 -0.5223 -0.0852
12308TIP3    H158415   2.079   2.668  23.535 -0.8009 -0.5019 -1.5841
12308TIP3    H258416   2.035   2.531  23.582  0.3254  0.2152  1.8214
12309TIP3   OH258417   1.031   0.888  91.758  0.1770  0.2579 -0.6686
12309TIP3    H158418   0.953   0.914  91.710 -0.8880 -0.5407  0.5710
12309TIP3    H258419   1.035   0.948  91.833  0.9177  0.4768 -0.8717
12310TIP3   OH258420   1.182   2.619  94.389  0.0072 -0.3609  0.1953
12310TIP3    H158421   1.257   2.633  94.446  0.1938 -1.7160  0.2973
12310TIP3    H258422   1.146   2.707  94.375  1.8136  0.3584 -0.1594
12311TIP3   OH258423   1.334   1.787   8.297 -0.4081  0.1969  0.2971
12311TIP3    H158424   1.259   1.728   8.303 -0.8074  0.7325  0.6686
12311TIP3    H258425   1.311   1.862   8.352 -0.0551  0.8533 -0.4276
12312TIP3   OH258426   0.324   0.961  85.681 -0.1008  0.6979  0.6034
12312TIP3    H158427   0.251   0.999  85.630  0.0213 -1.0030 -0.9382
12312TIP3    H258428   0.344   0.879  85.637  1.3112  0.0482  2.3320
12313TIP3   OH258429   2.275   1.721   7.074 -0.3149 -0.0893 -0.6984
12313TIP3    H158430   2.280   1.634   7.114 -1.4562 -0.0506 -0.4538
12313TIP3    H258431   2.229   1.706   6.991 -1.5714  0.4370 -0.1254
12314TIP3   OH258432   1.487   0.623  89.678 -0.1732  0.1884 -0.2340
12314TIP3    H158433   1.415   0.589  89.626 -0.2002  0.3919 -0.3331
12314TIP3    H258434   1.549   0.657  89.613  0.1418 -0.2390 -0.1668
12315TIP3   OH258435   1.316   1.180  30.337 -0.0027  0.2229  0.5135
12315TIP3    H158436   1.381   1.201  30.405  0.4155  0.2774  0.1038
12315TIP3    H258437   1.303   1.263  30.290 -0.5603  0.2726  0.7544
12316TIP3   OH258438   0.209   1.788  88.798  0.2446 -0.3944  0.0694
12316TIP3    H158439   0.250   1.872  88.822  1.5623 -1.4153  1.5867
12316TIP3    H258440   0.127   1.787  88.848  0.8000 -0.5183  0.9946
12317TIP3   OH258441   2.026   2.296  11.852 -0.1349 -0.2896  0.0836
12317TIP3    H158442   1.990   2.263  11.935 -1.2952 -2.8347 -1.3338
12317TIP3    H258443   2.114   2.259  11.848 -0.4994 -1.1312 -0.3239
12318TIP3   OH258444   1.910   0.486  14.403 -0.0315  0.0857  0.2877
12318TIP3    H158445   1.912   0.449  14.491 -1.4608  1.0306  0.7545
12318TIP3    H258446   1.882   0.414  14.347 -1.1787 -0.0006  0.9357
12319TIP3   OH258447   2.623   1.512  22.574 -0.0006  0.0624 -0.3596
12319TIP3    H158448   2.714   1.510  22.601 -0.4140 -0.8558  1.0594
12319TIP3    H258449   2.574   1.488  22.652 -1.4844  0.8352 -1.0153
12320TIP3   OH258450   0.025   1.566  11.943  0.1341 -0.4040  0.2487
12320TIP3    H158451   0.030   1.473  11.922  1.7682 -0.2135 -0.2959
12320TIP3    H258452  -0.025   1.569  12.025  0.6020 -1.8153  0.6112
12321TIP3   OH258453   0.824   1.371  26.247  0.3700  0.0719 -0.2358
12321TIP3    H158454   0.761   1.351  26.317 -1.4471  0.2455 -1.7576
12321TIP3    H258455   0.888   1.301  26.253 -0.3271 -0.5050  0.9397
12322TIP3   OH258456   0.155   2.325 110.713  0.2561  0.2446  0.3954
12322TIP3    H158457   0.241   2.346 110.674  0.0462  0.0236 -0.2012
12322TIP3    H258458   0.158   2.364 110.800  0.9830  0.1984  0.3959
12323TIP3   OH258459   1.808   0.645   2.898  0.0778  0.0884  0.1629
12323TIP3    H158460   1.782   0.712   2.961 -1.2858 -0.1060 -0.1706
12323TIP3    H258461   1.880   0.685   2.849 -1.6351  1.9222 -1.0174
12324TIP3   OH258462   0.318   1.112  23.358 -0.4362 -0.2215 -0.4611
12324TIP3    H158463   0.395   1.067  23.323 -0.9036 -2.2588  0.9338
12324TIP3    H258464   0.287   1.166  23.286  1.3017 -0.6751 -1.6158
12325TIP3   OH258465   2.183   1.868  82.663  0.6129 -0.0705  0.4136
12325TIP3    H158466   2.140   1.946  82.626  0.1033 -0.0873  0.9518
12325TIP3    H258467   2.142   1.795  82.618  0.3406 -0.0694  0.6597
12326TIP3   OH258468   2.583   1.350  94.430  0.1484 -0.3536 -0.4498
12326TIP3    H158469   2.646   1.338  94.359 -0.8662 -0.9065 -1.2820
12326TIP3    H258470   2.570   1.445  94.434  0.3190 -0.3055 -0.9169
12327TIP3   OH258471   0.002   1.172 111.661 -0.7891  0.2391  0.1110
12327TIP3    H158472   0.013   1.242 111.725 -3.0196  0.2309  0.6096
12327TIP3    H258473  -0.089   1.181 111.631 -1.0673 -2.2055 -0.0288
12328TIP3   OH258474   1.191   0.141  73.917  0.3932 -0.9031 -0.0997
12328TIP3    H158475   1.270   0.180  73.879  2.2041 -1.7489  2.5249
12328TIP3    H258476   1.163   0.076  73.853  1.5823 -0.2909 -1.2752
12329TIP3   OH258477   1.763   1.920 109.966 -0.0727  0.0580 -0.2444
12329TIP3    H158478   1.851   1.926 110.004  0.3975 -2.2007 -0.7913
12329TIP3    H258479   1.773   1.951 109.876 -0.2567  1.4341  0.1862
12330TIP3   OH258480   0.967   0.958  90.637 -0.4556 -0.3040 -0.7179
12330TIP3    H158481   0.932   0.870  90.647 -1.3998  0.1087 -0.3191
12330TIP3    H258482   1.028   0.968  90.710  0.4718 -0.9952 -1.3803
12331TIP3   OH258483   2.045   0.825  96.202  0.3086  0.3522  0.2772
12331TIP3    H158484   2.082   0.785  96.124  1.9901  1.5083  0.4243
12331TIP3    H258485   1.980   0.887  96.168  0.5826  0.3986 -0.1771
12332TIP3   OH258486   0.584   0.276  11.118  0.3252  0.1349  0.2504
12332TIP3    H158487   0.609   0.365  11.143 -1.6400  0.5636  0.8421
12332TIP3    H258488   0.489   0.278  11.114  0.2675 -1.7940 -0.3718
12333TIP3   OH258489   1.388   1.868  93.617 -0.6074 -0.1411  0.0861
12333TIP3    H158490   1.367   1.783  93.656 -2.4841  0.1617 -0.1522
12333TIP3    H258491   1.346   1.931  93.675 -2.5187  0.3839 -1.7519
12334TIP3   OH258492   0.088   1.982  97.860  0.2159 -0.1471 -0.2753
12334TIP3    H158493   0.137   1.991  97.942 -2.2206 -1.8026  1.5180
12334TIP3    H258494   0.038   2.064  97.853  0.3934 -0.0196 -0.0726
12335TIP3   OH258495   0.665   0.685  16.247 -0.4225 -0.0878  0.0310
12335TIP3    H158496   0.619   0.763  16.218 -0.2221  0.8041  1.9919
12335TIP3    H258497   0.683   0.700  16.340  0.0665 -2.2476  0.3435
12336TIP3   OH258498   1.712   1.585  87.240  0.2079 -0.3080  0.1789
12336TIP3    H158499   1.678   1.515  87.296 -1.0390 -0.2333 -0.4302
12336TIP3    H258500   1.795   1.610  87.279  0.4180 -1.7654  0.7230
12337TIP3   OH258501   1.532   0.042  99.032  0.0766  0.1437  0.7087
12337TIP3    H158502   1.537   0.105  98.960  1.5296 -0.9394 -0.1969
12337TIP3    H258503   1.438   0.028  99.046 -0.2775 -0.8851 -2.1382
12338TIP3   OH258504   1.584   2.111 102.164 -0.6280  0.4249 -0.5905
12338TIP3    H158505   1.541   2.031 102.192  1.3176 -0.1633  0.9275
12338TIP3    H258506   1.631   2.088 102.084  0.6305 -0.2488  0.3055
12339TIP3   OH258507   1.464   2.125  19.137  0.0610  0.0944  0.3968
12339TIP3    H158508   1.389   2.085  19.180  0.3017  0.4370  1.1370
12339TIP3    H258509   1.514   2.050  19.102 -0.7698 -0.1203 -0.3676
12340TIP3   OH258510   0.623   1.797  21.692 -0.2330 -0.3698  0.0428
12340TIP3    H158511   0.614   1.728  21.758  0.5596 -0.1717  0.3632
12340TIP3    H258512   0.548   1.854  21.707  0.6628  0.4391  1.7081
12341TIP3   OH258513   2.045   1.890  91.660 -0.5680  0.2679  0.7408
12341TIP3    H158514   2.123   1.920  91.612 -0.3669  0.5690  1.2505
12341TIP3    H258515   1.972   1.912  91.602 -0.3355  0.7412  0.6197
12342TIP3   OH258516   2.172   1.315  35.518 -0.1070 -0.6038 -0.5852
12342TIP3    H158517   2.217   1.356  35.592 -0.5411 -0.4458 -0.3999
12342TIP3    H258518   2.086   1.290  35.554 -0.8282  0.6675 -1.3730
12343TIP3   OH258519   1.853   0.358  89.708 -0.2616  0.1050 -0.3618
12343TIP3    H158520   1.877   0.269  89.680 -2.5065 -1.9304  3.3953
12343TIP3    H258521   1.767   0.372  89.670  0.0595  0.7076 -0.8887
12344TIP3   OH258522   0.910   2.282  31.694 -0.4457 -0.4464 -0.7296
12344TIP3    H158523   0.938   2.191  31.704  0.6324 -0.0626 -0.0999
12344TIP3    H258524   0.816   2.280  31.712 -0.2591 -1.2930  0.2686
12345TIP3   OH258525   0.021   0.744 101.193  0.2016 -0.3120 -0.3046
12345TIP3    H158526   0.078   0.675 101.226  0.1974 -0.7903 -1.2596
12345TIP3    H258527  -0.065   0.702 101.184 -0.1420  0.2030  0.4254
12346TIP3   OH258528   0.452   2.014  86.078  0.3027 -0.1878 -0.2906
12346TIP3    H158529   0.518   1.948  86.057 -0.5452 -1.6848  1.4986
12346TIP3    H258530   0.495   2.073  86.139 -0.1072 -1.4809  1.3150
12347TIP3   OH258531   1.923   2.266  46.896 -0.2096 -0.6280  0.1719
12347TIP3    H158532   1.975   2.313  46.831  2.4845 -3.6646 -0.1123
12347TIP3    H258533   1.938   2.315  46.978 -0.7859  1.2109 -0.7632
12348TIP3   OH258534   2.074   0.924  13.344 -0.1269 -0.0951 -0.2413
12348TIP3    H158535   2.134   0.903  13.272 -0.1063 -2.2090  0.3311
12348TIP3    H258536   2.122   0.988  13.397  0.7659 -0.1925 -0.9116
12349TIP3   OH258537   0.388   0.337 111.808 -0.1133 -0.0176  0.6468
12349TIP3    H158538   0.304   0.304 111.777 -0.1303 -0.0232  0.6997
12349TIP3    H258539   0.450   0.314 111.739 -0.2281  0.3590  0.4095
12350TIP3   OH258540   1.576   1.555  22.353 -0.2531  0.4520  0.0185
12350TIP3    H158541   1.570   1.641  22.312  1.6372  0.4438 -0.3458
12350TIP3    H258542   1.668   1.546  22.378 -0.5027 -1.2790  0.4609
12351TIP3   OH258543   2.398   2.024 106.869 -0.0013 -0.1263  0.0341
12351TIP3    H158544   2.489   2.029 106.840 -0.5059  0.8434 -1.4968
12351TIP3    H258545   2.351   2.080 106.808 -1.5890 -0.3816  0.9876
12352TIP3   OH258546   1.990   0.676   5.431 -0.2338  0.0102  0.6828
12352TIP3    H158547   2.027   0.756   5.393 -0.8929 -0.3460 -0.7679
12352TIP3    H258548   1.896   0.682   5.413 -0.3463 -0.9077  0.8988
12353TIP3   OH258549   0.052   0.745  99.076  0.2243 -0.5862 -0.0942
12353TIP3    H158550   0.095   0.731  98.991  0.0926 -2.2933  0.0769
12353TIP3    H258551   0.061   0.661  99.121  1.0053  0.5276  1.9386
12354TIP3   OH258552   0.956   2.387  84.120 -0.2002 -0.2863 -0.1986
12354TIP3    H158553   0.994   2.440  84.190  0.0687 -0.4400 -0.2200
12354TIP3    H258554   0.862   2.388  84.137 -0.1017 -0.6644  0.4121
12355TIP3   OH258555   0.174   0.746  97.214  0.0915 -0.8874 -0.2602
12355TIP3    H158556   0.239   0.684  97.180 -0.2892 -1.4644  0.0517
12355TIP3    H258557   0.106   0.691  97.252 -1.2036 -0.3248 -1.6633
12356TIP3   OH258558   0.368   1.461  26.480  0.2937  0.2612  0.4893
12356TIP3    H158559   0.320   1.541  26.459  0.8426  0.6934  0.8522
12356TIP3    H258560   0.453   1.472  26.437 -0.5878 -1.4080 -1.9439
12357TIP3   OH258561   1.508   1.715  17.257 -0.4461 -0.2989  0.4311
12357TIP3    H158562   1.415   1.692  17.263 -0.6122  0.2455  0.0586
12357TIP3    H258563   1.554   1.633  17.273 -1.0294 -1.0710 -1.5889
12358TIP3   OH258564   2.020   1.000  20.666  0.3452 -0.0339  0.4515
12358TIP3    H158565   1.976   0.935  20.720 -0.3807 -2.3874 -2.6881
12358TIP3    H258566   1.961   1.014  20.592  2.2696  1.2306 -0.9548
12359TIP3   OH258567   1.900   2.129  75.360 -0.2950 -0.0110  0.5633
12359TIP3    H158568   1.883   2.194  75.292 -1.5518  0.9801  1.7899
12359TIP3    H258569   1.949   2.176  75.427 -3.9471  0.7644  2.9949
12360TIP3   OH258570   1.740   0.531  99.261  0.0279 -0.1568 -0.4420
12360TIP3    H158571   1.814   0.516  99.201  1.4050  0.4636  1.0277
12360TIP3    H258572   1.763   0.484  99.340 -0.9506  0.4235  0.2107
12361TIP3   OH258573   1.133   2.500  21.053 -0.3580  0.0797  0.6500
12361TIP3    H158574   1.147   2.474  21.145 -0.4927  0.3995  0.7616
12361TIP3    H258575   1.214   2.474  21.009  0.3712  1.3936  1.1815
12362TIP3   OH258576   1.708   1.158  33.060  0.1405 -0.2891  0.2907
12362TIP3    H158577   1.789   1.165  33.010 -0.3392 -1.2384 -0.6650
12362TIP3    H258578   1.658   1.236  33.035 -0.4086 -1.1075 -1.3571
12363TIP3   OH258579   0.282   0.503  98.219  0.4177  0.1919 -0.4623
12363TIP3    H158580   0.354   0.469  98.167  0.5614 -0.8501  0.3945
12363TIP3    H258581   0.210   0.512  98.156  0.7730 -0.4329 -0.9807
12364TIP3   OH258582   2.454   2.029  77.008 -0.3043  0.0936  0.0356
12364TIP3    H158583   2.492   2.007  77.093  0.9288 -0.0812 -0.5387
12364TIP3    H258584   2.500   1.972  76.946 -1.7030 -0.3238 -0.6761
12365TIP3   OH258585   2.014   1.369  24.787  0.1869  0.1123  0.0758
12365TIP3    H158586   2.059   1.296  24.745  0.6953  1.3193 -1.5831
12365TIP3    H258587   2.055   1.376  24.873  1.8271 -0.0677 -0.6444
12366TIP3   OH258588   0.409   1.191  26.399 -0.0109  0.1793 -0.2095
12366TIP3    H158589   0.498   1.181  26.365  0.7511 -0.4231  1.8289
12366TIP3    H258590   0.404   1.281  26.431  0.3854 -0.2305  1.0341
12367TIP3   OH258591   2.103   2.231  22.415 -0.6406  0.5597 -0.3036
12367TIP3    H158592   2.077   2.139  22.403 -0.2263  0.5681 -1.4210
12367TIP3    H258593   2.077   2.274  22.334  1.9016  0.7581 -1.0997
12368TIP3   OH258594   0.616   2.306  36.064  0.2521  0.0618 -0.5105
12368TIP3    H158595   0.669   2.227  36.073 -0.3537 -0.2876  0.0212
12368TIP3    H258596   0.569   2.293  35.981  1.0970  0.4333 -1.0523
12369TIP3   OH258597   1.113   2.581  14.412 -0.0636 -0.4187  0.0776
12369TIP3    H158598   1.107   2.534  14.496  1.2735  0.2740  0.6007
12369TIP3    H258599   1.199   2.623  14.415  0.6531 -1.5644 -2.2824
12370TIP3   OH258600   2.247   1.883  10.204  0.1637 -0.1618 -0.3491
12370TIP3    H158601   2.334   1.844  10.199 -0.2367 -1.9705  3.6671
12370TIP3    H258602   2.197   1.839  10.135  2.0647  0.1489 -2.0224
12371TIP3   OH258603   1.490   0.051  74.183 -0.5444 -0.0720  0.7239
12371TIP3    H158604   1.425  -0.020  74.183 -1.8659  1.0848  1.5490
12371TIP3    H258605   1.485   0.088  74.095 -1.6731  0.5636  1.0343
12372TIP3   OH258606   0.841   2.354  21.298  0.4733  0.0413 -0.0995
12372TIP3    H158607   0.778   2.300  21.344 -0.4274 -1.1070 -2.5045
12372TIP3    H258608   0.916   2.297  21.284  0.1142 -0.1469 -1.3618
12373TIP3   OH258609   2.649   1.509  28.437  0.3088 -0.1155 -0.3145
12373TIP3    H158610   2.578   1.452  28.465 -0.1770  1.0477  0.9618
12373TIP3    H258611   2.727   1.453  28.441  0.0197 -0.4538  1.9646
12374TIP3   OH258612   1.879   0.532  82.293  0.4661 -0.1957  0.0887
12374TIP3    H158613   1.855   0.471  82.223  1.2347 -0.3651 -0.0335
12374TIP3    H258614   1.961   0.572  82.264  0.1819  0.6122  0.3521
12375TIP3   OH258615   0.916   0.586  14.447 -0.1804  0.1003 -0.3781
12375TIP3    H158616   0.976   0.520  14.481  0.3435 -0.6980 -2.6599
12375TIP3    H258617   0.943   0.599  14.356 -3.0873  0.0953 -1.3595
12376TIP3   OH258618   1.856   1.439  78.407  0.0509  0.1562  0.2143
12376TIP3    H158619   1.939   1.420  78.365  0.8098  1.6196  0.9749
12376TIP3    H258620   1.818   1.353  78.427  0.7624 -0.5313 -1.2815
12377TIP3   OH258621   1.643   0.469 107.092  0.1030  0.0494  0.0173
12377TIP3    H158622   1.618   0.535 107.156  1.0744 -0.9101  1.4320
12377TIP3    H258623   1.730   0.497 107.062  0.2117 -0.2178  0.0859
12378TIP3   OH258624   0.517   1.494 107.348  0.1496 -0.2519 -0.2634
12378TIP3    H158625   0.523   1.583 107.385  1.0316 -0.7324  0.8334
12378TIP3    H258626   0.554   1.502 107.261  0.4774  0.4190 -0.0701
12379TIP3   OH258627   0.519   0.766 107.691  0.1459  0.0947 -0.0313
12379TIP3    H158628   0.436   0.720 107.679  0.4043 -0.6613  0.9965
12379TIP3    H258629   0.563   0.757 107.606 -0.9038  0.7078 -0.6681
12380TIP3   OH258630   0.129   1.900  23.558  0.3020 -0.0370 -0.2016
12380TIP3    H158631   0.119   1.897  23.653  1.9623  0.0622  0.0206
12380TIP3    H258632   0.138   1.993  23.538 -1.3017  0.0428 -0.6386
12381TIP3   OH258633   2.400   1.473 110.346  0.1284 -0.5303 -0.0604
12381TIP3    H158634   2.427   1.561 110.373  1.0162 -0.6301 -0.5930
12381TIP3    H258635   2.449   1.414 110.404 -1.7738 -0.6971  1.5047
12382TIP3   OH258636   2.222   1.229  87.391 -0.2445  0.0760  0.4023
12382TIP3    H158637   2.243   1.156  87.449  1.4704  0.0321 -0.2141
12382TIP3    H258638   2.240   1.196  87.303 -3.4829 -0.0957 -0.3195
12383TIP3   OH258639   2.083   0.828  24.458  0.0041  0.0944 -0.7560
12383TIP3    H158640   2.151   0.786  24.406  0.2113 -0.6570  0.0988
12383TIP3    H258641   2.116   0.917  24.473  0.7902 -0.2549 -0.3697
12384TIP3   OH258642   2.352   0.628  26.256  0.1193  0.0596 -0.5133
12384TIP3    H158643   2.372   0.534  26.258  1.5590  0.3405 -0.9580
12384TIP3    H258644   2.375   0.656  26.168  0.7770  1.0410 -0.0491
12385TIP3   OH258645   1.419   1.929  37.232 -0.1969 -0.1586  0.4439
12385TIP3    H158646   1.338   1.970  37.262 -0.5094 -0.3295 -0.1700
12385TIP3    H258647   1.420   1.942  37.138 -0.4833 -1.8967  0.1798
12386TIP3   OH258648   0.849   0.754  95.170  0.0288 -0.4122  1.5245
12386TIP3    H158649   0.840   0.673  95.119  0.3259 -0.2782  1.2523
12386TIP3    H258650   0.761   0.774  95.200 -0.8334  1.3907 -1.8107
12387TIP3   OH258651   1.993   2.617   7.387  0.6188  0.0696 -0.6960
12387TIP3    H158652   2.036   2.699   7.412  0.9652  0.0026 -1.0602
12387TIP3    H258653   2.064   2.552   7.387  0.2336 -0.3754  0.2355
12388TIP3   OH258654   0.617   0.070   5.478 -0.0647 -0.4705 -0.0032
12388TIP3    H158655   0.560   0.073   5.401  0.7647  3.9251 -0.7618
12388TIP3    H258656   0.559   0.048   5.551 -1.3540 -2.3754 -1.5259
12389TIP3   OH258657   0.506   0.715 104.429  0.2083  0.3563 -0.0412
12389TIP3    H158658   0.562   0.722 104.505  0.5724 -1.0541 -0.1440
12389TIP3    H258659   0.431   0.662 104.459  1.0630 -1.4985 -0.9799
12390TIP3   OH258660   0.399   0.303  93.015  0.3458  0.0054  0.0305
12390TIP3    H158661   0.404   0.393  93.046 -1.2359 -0.2277  1.0322
12390TIP3    H258662   0.486   0.286  92.979  0.8883  1.6904  0.4546
12391TIP3   OH258663   0.570   1.824  87.717 -0.4116 -0.8964 -0.1410
12391TIP3    H158664   0.593   1.859  87.631 -0.2689 -0.2570  0.1464
12391TIP3    H258665   0.485   1.864  87.736 -0.5757 -1.2582 -0.0993
12392TIP3   OH258666   0.030   1.657  48.001  0.3254  0.9901 -0.2455
12392TIP3    H158667   0.040   1.644  48.095  1.6738  1.0310 -0.3648
12392TIP3    H258668  -0.030   1.730  47.993  0.4428  1.1879  0.5927
12393TIP3   OH258669   1.126   1.858  35.823  0.1031 -0.3780  0.4012
12393TIP3    H158670   1.091   1.803  35.893  0.4504  0.1201  0.9828
12393TIP3    H258671   1.050   1.885  35.772 -0.1699 -0.6168  0.6819
12394TIP3   OH258672   2.446   0.148  70.040 -1.0353  0.4507 -0.5429
12394TIP3    H158673   2.530   0.108  70.021 -1.2545  0.8370 -2.4541
12394TIP3    H258674   2.393   0.076  70.076 -0.7925 -0.5180 -2.0575
12395TIP3   OH258675   2.072   0.598   8.947 -0.0792 -0.0391 -0.3614
12395TIP3    H158676   2.034   0.615   8.861  1.5014 -1.9197 -1.5239
12395TIP3    H258677   2.004   0.550   8.994 -0.5860  0.0902 -0.9546
12396TIP3   OH258678   0.727   1.053  84.279 -0.0418  0.2113 -0.1836
12396TIP3    H158679   0.764   1.010  84.357  1.4616  1.9657  0.1381
12396TIP3    H258680   0.666   0.989  84.244  1.3353 -1.7865  0.8209
12397TIP3   OH258681   1.383   2.184  25.375  0.0268 -0.5227  0.0583
12397TIP3    H158682   1.321   2.116  25.401 -0.7227  0.2004  0.2062
12397TIP3    H258683   1.449   2.183  25.445 -1.5459  0.8600  1.6517
12398TIP3   OH258684   2.014   1.980  24.309  0.3183 -0.0365  0.3868
12398TIP3    H158685   1.997   2.037  24.234  2.9075  0.7781  0.3148
12398TIP3    H258686   1.985   1.894  24.282 -0.6821  0.6374 -0.7558
12399TIP3   OH258687   0.835   2.456  36.067 -0.2300  0.0892  0.5828
12399TIP3    H158688   0.750   2.426  36.036 -1.1132 -0.4690  3.2935
12399TIP3    H258689   0.890   2.378  36.065 -0.2261  0.0980  0.2967
12400TIP3   OH258690   1.605   1.119 109.496 -0.0133  0.1231 -0.4863
12400TIP3    H158691   1.620   1.199 109.546  0.3786  0.0290 -0.4470
12400TIP3    H258692   1.689   1.072 109.501 -0.4366 -0.5908  0.0320
12401TIP3   OH258693   0.239   0.792  27.097 -0.1512  0.1768 -0.4797
12401TIP3    H158694   0.240   0.787  27.001 -0.2032 -0.4271 -0.4567
12401TIP3    H258695   0.240   0.885  27.116  0.6789  0.3022 -1.0569
12402TIP3   OH258696   1.110   2.499  76.459  0.1374  0.7308  0.0513
12402TIP3    H158697   1.082   2.525  76.546 -0.7381  0.3999 -0.1205
12402TIP3    H258698   1.180   2.436  76.473  0.9035  1.6654  0.4913
12403TIP3   OH258699   0.487   1.778  78.457  0.0959 -0.2552 -0.0356
12403TIP3    H158700   0.471   1.794  78.550 -0.4868 -0.8305 -0.0276
12403TIP3    H258701   0.454   1.689  78.442 -0.1514 -0.0315 -0.8641
12404TIP3   OH258702   0.358   2.219  73.682 -1.2083  0.6629 -1.2350
12404TIP3    H158703   0.406   2.222  73.765  0.9182 -0.6017 -2.3206
12404TIP3    H258704   0.282   2.165  73.701  0.4834 -1.6597 -0.5891
12405TIP3   OH258705   1.808   0.232   2.414 -0.2990 -0.1086 -0.1492
12405TIP3    H158706   1.839   0.265   2.330  1.6650 -0.8995  0.2258
12405TIP3    H258707   1.830   0.139   2.413 -2.4121 -0.6791  0.3174
12406TIP3   OH258708   2.047   2.468  32.170 -0.5049  0.0601 -0.3257
12406TIP3    H158709   2.087   2.433  32.250  1.1951  1.5382 -0.4600
12406TIP3    H258710   1.998   2.395  32.133  0.8655 -1.4136  0.6779
12407TIP3   OH258711   0.438   2.120  31.259  0.2027  0.3174  0.3100
12407TIP3    H158712   0.436   2.199  31.314 -0.8845 -0.0948  0.8857
12407TIP3    H258713   0.346   2.095  31.250  0.3678  0.2320 -1.5187
12408TIP3   OH258714   2.536   0.294   6.038  0.0316 -0.3979  0.3412
12408TIP3    H158715   2.554   0.327   6.126 -0.5708 -0.2723  0.4214
12408TIP3    H258716   2.599   0.223   6.025  0.1399 -0.3990  0.8602
12409TIP3   OH258717   0.796   2.595  16.975  0.4586 -0.3890 -0.1551
12409TIP3    H158718   0.885   2.612  16.944 -0.2255  0.4386 -1.8038
12409TIP3    H258719   0.767   2.520  16.923 -0.4339  0.5247 -1.0283
12410TIP3   OH258720   1.796   0.182   3.997 -0.0313  0.2902 -0.2928
12410TIP3    H158721   1.751   0.189   4.082  1.3451 -0.7657  0.5659
12410TIP3    H258722   1.878   0.231   4.009  0.0686  0.3348 -1.1044
12411TIP3   OH258723   0.945   0.171  68.312  0.0610 -0.4045  0.3664
12411TIP3    H158724   0.996   0.094  68.334  2.6180  1.6875  2.4365
12411TIP3    H258725   0.963   0.186  68.219 -0.9632 -2.5322 -0.2229
12412TIP3   OH258726   0.271   1.602  99.275  0.1343  0.5880  0.4591
12412TIP3    H158727   0.292   1.524  99.326  0.2609  1.0344  1.0974
12412TIP3    H258728   0.307   1.584  99.188 -0.6281 -0.4386  0.3272
12413TIP3   OH258729   0.818   1.127  13.117 -0.2049  0.1640  0.0551
12413TIP3    H158730   0.773   1.210  13.100 -1.6500 -0.1937  1.7230
12413TIP3    H258731   0.834   1.129  13.211  1.4869 -0.6443 -0.1945
12414TIP3   OH258732   1.498   0.350  78.161  0.0044 -0.3426  0.0735
12414TIP3    H158733   1.511   0.443  78.180  0.4495  0.2353 -2.7276
12414TIP3    H258734   1.536   0.305  78.237 -0.3957  1.7170  1.5941
12415TIP3   OH258735   0.497   0.108  16.274  0.3061 -0.5025 -0.0106
12415TIP3    H158736   0.485   0.014  16.280 -0.9102 -0.3735 -0.2824
12415TIP3    H258737   0.440   0.144  16.342  0.6563  0.0541  0.0010
12416TIP3   OH258738   0.079   0.790  58.831  0.6082 -0.3546 -0.2394
12416TIP3    H158739  -0.007   0.809  58.794  0.1252 -2.5124 -0.3668
12416TIP3    H258740   0.062   0.776  58.924  0.9755  0.1237 -0.0998
12417TIP3   OH258741   2.244   0.231  97.484  0.1906 -0.3502 -0.1957
12417TIP3    H158742   2.230   0.142  97.517 -0.8861  0.0189  0.4245
12417TIP3    H258743   2.274   0.219  97.394 -0.9338 -1.3357 -0.4595
12418TIP3   OH258744   1.840   1.114 110.264  0.2930  0.6285  0.0904
12418TIP3    H158745   1.767   1.053 110.264  0.7766  0.0309  0.3736
12418TIP3    H258746   1.800   1.201 110.257 -0.5336  0.4170  1.7258
12419TIP3   OH258747   2.040   1.410   2.257  0.0666  0.2809 -0.2489
12419TIP3    H158748   2.100   1.364   2.315 -0.2162  2.1754  1.6667
12419TIP3    H258749   1.955   1.369   2.273  0.3821 -0.7032 -1.0458
12420TIP3   OH258750   0.278   0.913 110.813 -0.1398 -0.0376  0.4412
12420TIP3    H158751   0.333   0.841 110.844  0.8264 -0.2692 -1.6497
12420TIP3    H258752   0.336   0.990 110.813 -0.8784  0.5491  1.6882
12421TIP3   OH258753   0.338   1.727  88.289  0.5143 -0.1627  0.4244
12421TIP3    H158754   0.432   1.724  88.270  0.7131  1.0214  1.0979
12421TIP3    H258755   0.297   1.745  88.204  1.0550  1.0469  0.3953
12422TIP3   OH258756   1.764   1.419  31.692 -0.2888  0.3802  0.1564
12422TIP3    H158757   1.717   1.344  31.658 -1.6232  0.4996  1.6415
12422TIP3    H258758   1.856   1.400  31.675 -0.8188  0.2240 -2.9687
12423TIP3   OH258759   1.413   1.030 102.796  0.0503 -0.4802 -0.1262
12423TIP3    H158760   1.423   0.989 102.710  2.9128 -0.1730 -0.0246
12423TIP3    H258761   1.428   0.959 102.859  1.0542 -0.1178  0.0641
12424TIP3   OH258762   2.680   1.002  81.553  0.5367  0.4688  0.1650
12424TIP3    H158763   2.772   1.009  81.529  0.4267  1.4009 -0.0216
12424TIP3    H258764   2.649   0.923  81.508  1.1690  0.3066  0.0056
12425TIP3   OH258765   0.649   2.205  63.679 -0.4697  0.5266  0.7684
12425TIP3    H158766   0.560   2.170  63.685 -0.7204  0.4487 -2.0964
12425TIP3    H258767   0.705   2.135  63.711 -1.0451 -2.3021 -3.6620
12426TIP3   OH258768   2.369   0.124  75.905  0.9500  0.2369  1.1865
12426TIP3    H158769   2.327   0.061  75.964 -0.0653 -1.0822 -0.8361
12426TIP3    H258770   2.406   0.070  75.835  3.2574  1.6477  1.2168
12427TIP3   OH258771   0.377   0.309 108.935  0.5210 -0.1617  0.1687
12427TIP3    H158772   0.380   0.275 109.024  0.2129 -0.4259  0.0758
12427TIP3    H258773   0.463   0.288 108.899  0.5269 -0.3584  0.2878
12428TIP3   OH258774   0.699   1.281  92.617  0.3934  0.5563 -0.3791
12428TIP3    H158775   0.661   1.212  92.561  0.1373 -0.4061  0.9366
12428TIP3    H258776   0.781   1.243  92.649 -0.6413  0.0534  1.8582
12429TIP3   OH258777   2.107   2.175 107.057 -0.0386 -0.1935 -0.6393
12429TIP3    H158778   2.106   2.182 107.153 -2.0805 -1.7803 -0.4618
12429TIP3    H258779   2.180   2.230 107.029  1.1795 -0.3882  1.8819
12430TIP3   OH258780   1.928   0.953  75.308 -0.3793  0.2567  0.2982
12430TIP3    H158781   1.885   0.870  75.286 -0.5086  0.5507 -0.5863
12430TIP3    H258782   1.869   1.020  75.275  0.8031  0.6685 -1.0944
12431TIP3   OH258783   2.174   1.181  92.020 -0.1028 -0.0038  0.0600
12431TIP3    H158784   2.211   1.269  92.023 -2.9471  1.2829  0.6333
12431TIP3    H258785   2.212   1.137  92.096 -0.5441  1.5945  1.2646
12432TIP3   OH258786   2.045   2.662   9.236 -0.9876  0.0154 -0.0083
12432TIP3    H158787   1.959   2.630   9.209 -1.0598  0.1277  0.0882
12432TIP3    H258788   2.071   2.725   9.168 -1.6611  1.1424  0.7431
12433TIP3   OH258789   0.177   0.414  63.724 -0.1066  0.1942 -0.2955
12433TIP3    H158790   0.247   0.406  63.658 -0.0302 -1.3905 -0.0469
12433TIP3    H258791   0.209   0.481  63.784  0.2079  1.0566 -1.3802
12434TIP3   OH258792   0.218   1.431  34.030  0.0503  0.0539 -0.0716
12434TIP3    H158793   0.170   1.402  34.108  0.2862 -0.4317 -0.0999
12434TIP3    H258794   0.208   1.526  34.030  1.2095  0.2147  1.3311
12435TIP3   OH258795   1.150   2.522 102.801 -0.3712  0.2620 -0.0670
12435TIP3    H158796   1.137   2.524 102.896 -0.5101 -1.0508 -0.0323
12435TIP3    H258797   1.243   2.539 102.789 -0.3458  0.3853  0.3127
12436TIP3   OH258798   1.256   1.214  80.233  0.6648  0.4481 -0.2527
12436TIP3    H158799   1.186   1.212  80.168  1.1485  1.0637 -0.8055
12436TIP3    H258800   1.245   1.299  80.277 -0.3538 -0.4271  1.2708
12437TIP3   OH258801   1.510   1.688  11.334  0.0367 -0.2871 -0.4804
12437TIP3    H158802   1.442   1.752  11.317 -0.3733 -0.8272 -0.9327
12437TIP3    H258803   1.586   1.719  11.285  0.0068  0.1279 -0.2627
12438TIP3   OH258804   1.581   1.645  83.354 -0.5714 -0.0543  0.5417
12438TIP3    H158805   1.524   1.570  83.372 -0.8148  0.7202  3.5047
12438TIP3    H258806   1.539   1.718  83.399  2.2982  0.7171  2.1929
12439TIP3   OH258807   2.235   0.400  39.815 -0.2914 -0.7684 -0.2893
12439TIP3    H158808   2.299   0.350  39.866  0.0554  0.2389  0.2888
12439TIP3    H258809   2.224   0.482  39.863 -1.4347 -0.5968 -0.7986
12440TIP3   OH258810   0.395   0.933  25.941  0.3285  0.4259  0.2708
12440TIP3    H158811   0.457   1.002  25.917  0.7364 -0.3959 -1.1049
12440TIP3    H258812   0.333   0.930  25.869 -0.3172  0.0651  0.8300
12441TIP3   OH258813   2.343   1.134   1.481 -0.1840 -0.4302  0.0030
12441TIP3    H158814   2.421   1.189   1.485  0.5591 -1.2914 -1.5773
12441TIP3    H258815   2.354   1.083   1.401 -1.3586 -2.1013  0.8459
12442TIP3   OH258816   2.171   2.372  31.572  0.3166 -0.1966 -0.0518
12442TIP3    H158817   2.175   2.300  31.635  0.2162 -0.6431 -0.5446
12442TIP3    H258818   2.209   2.447  31.618 -0.7169 -0.2406  0.9087
12443TIP3   OH258819   1.658   2.247  10.891 -0.3532  0.3728  0.0772
12443TIP3    H158820   1.688   2.188  10.821  0.7404  0.9864 -0.0022
12443TIP3    H258821   1.564   2.234  10.894 -0.1072 -1.8008  0.4455
12444TIP3   OH258822   0.044   1.722  92.368  0.0566  0.5656 -0.4563
12444TIP3    H158823   0.062   1.810  92.401  1.1446 -0.3600  1.6100
12444TIP3    H258824  -0.014   1.683  92.433  2.1149 -1.2688  0.3995
12445TIP3   OH258825   2.196   2.487 111.724  0.1881 -0.1014  0.1507
12445TIP3    H158826   2.206   2.449 111.812  0.6165 -2.9584 -1.0317
12445TIP3    H258827   2.285   2.493 111.690 -0.1821 -2.5567 -1.4152
12446TIP3   OH258828   2.310   0.840  30.823  0.5091 -0.6295  0.0980
12446TIP3    H158829   2.218   0.851  30.798  1.0565  2.0004 -1.1002
12446TIP3    H258830   2.353   0.813  30.742  1.0632 -0.0233  0.1879
12447TIP3   OH258831   0.190   2.183  78.348 -0.4057  0.0867 -0.0132
12447TIP3    H158832   0.099   2.187  78.319 -0.1442 -3.2217 -1.7539
12447TIP3    H258833   0.242   2.194  78.268  0.5706 -1.4125  0.3634
12448TIP3   OH258834   0.963   2.469  99.547  0.2592  0.3970 -0.1169
12448TIP3    H158835   1.026   2.449  99.616 -0.9995 -2.3914  0.3801
12448TIP3    H258836   0.992   2.418  99.472  0.9650  2.5041 -1.3308
12449TIP3   OH258837   0.844   0.486  30.471  0.0053 -0.0190 -0.2361
12449TIP3    H158838   0.876   0.561  30.522  2.3015 -1.0625 -0.0231
12449TIP3    H258839   0.844   0.516  30.381  1.7784  0.0154 -0.2545
12450TIP3   OH258840   0.689   0.260  78.563  0.2623  0.1832  0.2154
12450TIP3    H158841   0.740   0.317  78.504 -0.9703  2.4195  1.1918
12450TIP3    H258842   0.752   0.234  78.630  1.1171 -0.5429 -0.8204
12451TIP3   OH258843   1.374   2.464 109.456  0.1036  0.0202 -0.0527
12451TIP3    H158844   1.390   2.431 109.544 -1.6157 -0.0076  0.2792
12451TIP3    H258845   1.419   2.549 109.453  0.4646 -0.1389  0.7255
12452TIP3   OH258846   1.615   2.311  91.399 -0.5883 -0.7431 -0.3373
12452TIP3    H158847   1.644   2.402  91.395  0.5763 -0.7802  3.4017
12452TIP3    H258848   1.520   2.317  91.410 -0.3420  0.1715  1.6025
12453TIP3   OH258849   0.027   0.127  32.625  0.0599 -0.1102 -0.5548
12453TIP3    H158850  -0.056   0.137  32.579 -0.7115  2.6855  1.1840
12453TIP3    H258851   0.091   0.169  32.567 -0.0289 -0.7548 -1.1303
12454TIP3   OH258852   1.372   1.950   4.470  0.1647 -0.1992  0.0939
12454TIP3    H158853   1.304   2.016   4.457 -0.7590 -0.8114  1.5357
12454TIP3    H258854   1.454   1.996   4.456 -0.5050  0.8673 -0.4370
12455TIP3   OH258855   2.462   1.243 104.754  0.0204  0.0341  0.0684
12455TIP3    H158856   2.395   1.224 104.819  0.2721  1.8672  0.9407
12455TIP3    H258857   2.528   1.175 104.766  0.0244  0.2969  1.7085
12456TIP3   OH258858   0.269   0.316  23.698  0.3624  0.4180 -0.0621
12456TIP3    H158859   0.188   0.308  23.648 -0.2198  0.6012  0.8146
12456TIP3    H258860   0.242   0.300  23.789  1.3364  0.3436  0.2260
12457TIP3   OH258861   0.026   0.859 105.332  0.0636  0.0877  0.2344
12457TIP3    H158862   0.022   0.802 105.255  1.2804  1.3431 -0.8104
12457TIP3    H258863   0.058   0.803 105.402  0.8842 -0.6188 -0.6806
12458TIP3   OH258864   0.104   0.555   0.391 -0.5793 -0.0251 -0.2773
12458TIP3    H158865   0.109   0.459   0.398 -1.8091  0.0325  3.0705
12458TIP3    H258866   0.191   0.585   0.417 -0.0649 -0.1864 -1.7216
12459TIP3   OH258867   2.662   2.173  15.923 -0.0322  0.4373  0.0443
12459TIP3    H158868   2.693   2.188  16.012  0.2534  1.1737 -0.1708
12459TIP3    H258869   2.573   2.208  15.922  0.1154  0.8074 -0.0734
12460TIP3   OH258870   1.012   2.579  89.773  0.2041 -0.2009 -0.1660
12460TIP3    H158871   0.988   2.668  89.801 -1.7348 -0.4416 -0.9477
12460TIP3    H258872   1.073   2.593  89.700  0.5969  0.4731  0.2792
12461TIP3   OH258873   0.889   1.807  31.880 -0.0512  0.1346 -0.5694
12461TIP3    H158874   0.873   1.731  31.823 -2.4280 -0.0276  0.2013
12461TIP3    H258875   0.806   1.819  31.926  1.2674  1.3155  1.6085
12462TIP3   OH258876   1.599   1.372  75.750 -0.3041  0.1723 -0.1320
12462TIP3    H158877   1.579   1.307  75.682  0.1849  0.4546 -0.5555
12462TIP3    H258878   1.520   1.426  75.755 -0.6354 -0.3290  0.0770
12463TIP3   OH258879   2.041   2.065  27.094  0.2912 -0.5273 -0.0864
12463TIP3    H158880   2.047   2.160  27.105  0.2993 -0.4485 -0.7415
12463TIP3    H258881   1.947   2.049  27.084  0.4243 -0.3398 -1.9914
12464TIP3   OH258882   0.847   0.892  21.335  0.5559 -0.1921 -0.0382
12464TIP3    H158883   0.904   0.910  21.261  1.1220  0.2833  0.5029
12464TIP3    H258884   0.824   0.978  21.370 -0.2368 -0.3873 -0.0478
12465TIP3   OH258885   0.711   2.140  20.018 -0.1081 -0.0469 -0.3897
12465TIP3    H158886   0.622   2.105  20.030  0.0110 -0.4716 -0.7152
12465TIP3    H258887   0.703   2.199  19.942  0.0718 -0.7720 -0.9800
12466TIP3   OH258888   0.213   2.624  81.022 -0.5561 -0.1363  0.0197
12466TIP3    H158889   0.140   2.587  81.072 -0.3382 -0.5430  0.0434
12466TIP3    H258890   0.286   2.564  81.039 -0.1474  0.4099  0.2015
12467TIP3   OH258891   1.358   0.577  24.584  0.3392 -0.6925  0.2617
12467TIP3    H158892   1.423   0.507  24.578  1.8302  0.5956  0.7110
12467TIP3    H258893   1.389   0.643  24.522 -0.9188 -0.3196  0.0109
12468TIP3   OH258894   1.002   1.705  95.756 -0.2258 -0.2338  0.5068
12468TIP3    H158895   1.065   1.635  95.738 -1.3179 -1.9894  2.9833
12468TIP3    H258896   1.052   1.770  95.806  0.0920 -0.6530  0.7414
12469TIP3   OH258897   2.514   0.529  62.808  0.0890  0.4262  0.3370
12469TIP3    H158898   2.539   0.439  62.785  1.8094  1.3094 -1.7036
12469TIP3    H258899   2.441   0.549  62.749 -1.8750 -0.3158  2.4035
12470TIP3   OH258900   0.828   2.562   8.674 -0.3481  0.3956  0.3395
12470TIP3    H158901   0.891   2.620   8.631  0.6558 -0.4905  0.5734
12470TIP3    H258902   0.772   2.530   8.603  1.1050 -0.8239 -0.3318
12471TIP3   OH258903   0.052   0.267 103.085  0.1050 -0.3484  0.0632
12471TIP3    H158904  -0.014   0.307 103.141 -0.6749 -0.5811 -0.6682
12471TIP3    H258905   0.004   0.240 103.007  1.2138  0.2408 -0.8567
12472TIP3   OH258906   0.794   2.124  13.267 -0.4029  0.1441  0.0099
12472TIP3    H158907   0.748   2.090  13.191  1.0494 -1.7709 -0.0877
12472TIP3    H258908   0.839   2.203  13.235 -0.6237 -0.0741 -0.8509
12473TIP3   OH258909   1.424   1.421  95.853  0.0080 -0.2850  0.2293
12473TIP3    H158910   1.427   1.482  95.926  0.4172  0.6821 -0.5650
12473TIP3    H258911   1.491   1.355  95.873 -0.6761 -0.6864  1.2574
12474TIP3   OH258912   2.099   1.631  11.299  0.0507  0.0531 -0.0804
12474TIP3    H158913   2.086   1.611  11.391  0.7279  0.2625  0.0671
12474TIP3    H258914   2.021   1.597  11.255  0.6640 -1.9528  0.2823
12475TIP3   OH258915   0.588   2.187  83.669  0.2518 -0.5349 -0.3283
12475TIP3    H158916   0.677   2.216  83.686  0.7920 -1.1933 -1.8450
12475TIP3    H258917   0.544   2.263  83.631 -0.0038 -0.0557  0.8890
12476TIP3   OH258918   1.633   0.715 102.456 -0.0970  0.8938  0.0152
12476TIP3    H158919   1.597   0.655 102.392 -0.6728 -0.4086  1.4932
12476TIP3    H258920   1.725   0.688 102.465 -0.5509 -0.3303  1.2463
12477TIP3   OH258921   1.623   0.364  26.756 -0.6575  0.4568 -0.6040
12477TIP3    H158922   1.587   0.419  26.825 -0.7957 -0.2345 -0.1143
12477TIP3    H258923   1.565   0.288  26.753 -0.0424 -0.0182 -0.7472
12478TIP3   OH258924   0.714   2.487  89.205 -0.4243 -0.0115 -0.1392
12478TIP3    H158925   0.660   2.408  89.208 -1.5678  0.4779 -3.4879
12478TIP3    H258926   0.655   2.557  89.230  0.2214 -0.0008  1.4762
12479TIP3   OH258927   1.233   0.701  22.807 -0.2791 -0.3117 -0.1713
12479TIP3    H158928   1.235   0.693  22.711  0.7747  0.9713 -0.2826
12479TIP3    H258929   1.305   0.646  22.837  0.8077  0.9980 -0.2906
12480TIP3   OH258930   2.134   0.154  87.262  0.5551 -0.3669 -0.2309
12480TIP3    H158931   2.169   0.201  87.186  3.5064 -2.7046 -0.5402
12480TIP3    H258932   2.059   0.206  87.290  2.5406  3.5861 -1.4430
12481TIP3   OH258933   1.502   2.657  63.142  0.3607 -0.9542 -0.0069
12481TIP3    H158934   1.436   2.602  63.101  1.2103 -0.4864 -2.1720
12481TIP3    H258935   1.514   2.620  63.229 -2.1295 -1.5265  0.1652
12482TIP3   OH258936   2.211   0.093  62.826  0.0728 -0.0666  0.6337
12482TIP3    H158937   2.258   0.086  62.909 -0.4311  2.3441  1.1992
12482TIP3    H258938   2.119   0.077  62.850  0.1518 -1.3963  0.1383
12483TIP3   OH258939   1.066   0.759  30.797  0.1773  0.4413 -0.1657
12483TIP3    H158940   1.061   0.722  30.885 -1.1463  0.6833 -0.1226
12483TIP3    H258941   1.086   0.852  30.810  0.4743  0.3747 -0.1433
12484TIP3   OH258942   1.362   0.286   2.766 -0.1458  0.2313 -0.1866
12484TIP3    H158943   1.433   0.286   2.831  0.2672  0.6996 -0.6368
12484TIP3    H258944   1.406   0.293   2.682 -0.7373  0.7186 -0.4634
12485TIP3   OH258945   1.343   0.606 109.166 -0.0847  0.0170 -0.0093
12485TIP3    H158946   1.425   0.625 109.213  0.2882  0.5599 -0.8500
12485TIP3    H258947   1.277   0.601 109.235  0.2658  1.7707  0.5092
12486TIP3   OH258948   0.023   1.686  22.368 -0.3386 -0.0609 -0.7026
12486TIP3    H158949  -0.010   1.618  22.426  0.6538 -0.2093 -0.2995
12486TIP3    H258950  -0.041   1.689  22.297 -0.8703 -0.7862 -0.2750
12487TIP3   OH258951   1.799   1.835  94.979  0.3074 -0.7355 -0.2782
12487TIP3    H158952   1.787   1.812  94.887  1.1156 -0.1650 -0.5452
12487TIP3    H258953   1.761   1.762  95.027  0.3913 -1.3187 -1.0714
12488TIP3   OH258954   1.952   0.114  79.140  0.3189 -0.0979 -0.3081
12488TIP3    H158955   1.902   0.188  79.175  0.6241  0.0605 -0.2032
12488TIP3    H258956   1.979   0.065  79.218 -0.2679 -0.5796 -0.3922
12489TIP3   OH258957   1.630   2.095  35.735 -0.2779  0.4326  0.2069
12489TIP3    H158958   1.658   2.130  35.651  2.9918 -1.6523  0.2537
12489TIP3    H258959   1.668   2.154  35.800 -0.3664  0.4635  0.2308
12490TIP3   OH258960   0.010   2.051  11.985 -0.1279  0.0498  0.3309
12490TIP3    H158961   0.091   2.004  11.971 -1.1808 -1.5721 -0.6063
12490TIP3    H258962   0.020   2.132  11.934  1.0089  0.0493  0.5293
12491TIP3   OH258963   1.020   2.532  10.217 -0.2629 -0.4482 -0.2659
12491TIP3    H158964   1.021   2.623  10.188  0.5882  0.0563  1.2194
12491TIP3    H258965   0.963   2.531  10.294 -0.1412 -1.1213 -0.1746
12492TIP3   OH258966   0.339   0.566  26.695 -0.4293  0.1109  0.1725
12492TIP3    H158967   0.418   0.544  26.744  0.7449 -0.4841 -1.8682
12492TIP3    H258968   0.328   0.660  26.706 -0.0943  0.0211  1.3681
12493TIP3   OH258969   0.880   2.109  20.263  0.4022 -0.1878 -0.6205
12493TIP3    H158970   0.896   2.203  20.253  1.5368 -0.2508  0.3840
12493TIP3    H258971   0.804   2.092  20.207 -1.0677  1.6705  0.6770
12494TIP3   OH258972   2.454   0.215 105.179  0.2103  0.1191 -0.0430
12494TIP3    H158973   2.498   0.263 105.109 -0.6025  0.4944 -0.3114
12494TIP3    H258974   2.450   0.277 105.252 -0.0806  0.1633 -0.0973
12495TIP3   OH258975   1.223   1.306   2.382 -0.3812 -0.0879 -0.0125
12495TIP3    H158976   1.184   1.245   2.445  0.3082 -0.5428 -0.0126
12495TIP3    H258977   1.219   1.391   2.426 -2.0350  0.0236 -0.3111
12496TIP3   OH258978   0.783   1.947  79.269 -0.3233 -0.0897 -0.1772
12496TIP3    H158979   0.822   1.864  79.241 -1.9723 -1.0536  0.2462
12496TIP3    H258980   0.833   1.972  79.347 -0.6818 -1.4425  0.5204
12497TIP3   OH258981   0.149   0.974  76.090  0.1508  0.0214  0.3160
12497TIP3    H158982   0.204   1.040  76.132 -1.8871  1.2220  1.2602
12497TIP3    H258983   0.062   1.015  76.085 -0.9459 -2.2061 -0.0248
12498TIP3   OH258984   0.456   2.510  32.490  0.6442 -0.2232 -0.0986
12498TIP3    H158985   0.431   2.537  32.402  0.0088 -0.1712  0.0917
12498TIP3    H258986   0.459   2.592  32.540 -0.1934 -0.3746  0.2134
12499TIP3   OH258987   2.331   0.355  37.741 -0.0975  0.0320 -0.1200
12499TIP3    H158988   2.344   0.343  37.835 -1.3560 -0.1836  0.0394
12499TIP3    H258989   2.317   0.449  37.730 -1.6240 -0.1408  0.1510
12500TIP3   OH258990   0.229   1.162  68.300  0.8347  0.5132  0.0129
12500TIP3    H158991   0.283   1.097  68.256  1.3903  0.2541  1.0376
12500TIP3    H258992   0.202   1.222  68.231  0.6205 -0.5838 -0.8862
12501TIP3   OH258993   0.454   2.326  87.795  0.3844  0.2403  0.5380
12501TIP3    H158994   0.377   2.272  87.810 -0.0348  0.6473 -0.1134
12501TIP3    H258995   0.435   2.375  87.715  1.1870  0.5840  0.5456
12502TIP3   OH258996   0.651   0.448 103.633 -0.1033  0.0175  0.0319
12502TIP3    H158997   0.694   0.401 103.561 -0.5501 -1.1475  0.4867
12502TIP3    H258998   0.558   0.436 103.616 -0.2249  0.9088  0.0660
12503TIP3   OH258999   0.286   0.248 106.611 -0.3524 -0.2185 -0.4997
12503TIP3    H159000   0.330   0.332 106.596 -1.6530  0.3008 -1.5448
12503TIP3    H259001   0.239   0.261 106.694  1.2013 -0.7019  0.5019
12504TIP3   OH259002   0.159   0.588  80.447  0.5652 -0.3951  0.6200
12504TIP3    H159003   0.082   0.628  80.488 -0.3570 -1.2998 -0.1959
12504TIP3    H259004   0.196   0.657  80.393  0.4056  0.0854  1.1098
12505TIP3   OH259005   1.675   1.272  89.633 -0.3806  0.1646  0.0942
12505TIP3    H159006   1.586   1.277  89.599  0.0367  0.3986 -0.9963
12505TIP3    H259007   1.729   1.311  89.565  0.7801 -1.6906 -0.1159
12506TIP3   OH259008   0.887   1.393  18.478  0.0886 -0.5193  0.0673
12506TIP3    H159009   0.954   1.344  18.526 -1.2656 -1.0441  1.4807
12506TIP3    H259010   0.919   1.483  18.479 -0.2475 -0.3570  2.6967
12507TIP3   OH259011   2.438   2.193  88.667  0.4739 -1.0948  0.7912
12507TIP3    H159012   2.400   2.279  88.649  0.8717 -1.1339 -0.2841
12507TIP3    H259013   2.433   2.184  88.762  0.1763  0.0037  0.8929
12508TIP3   OH259014   1.027   1.158  31.594 -0.2421 -0.0685  0.0955
12508TIP3    H159015   1.055   1.067  31.594  1.0063  0.3000  0.2998
12508TIP3    H259016   1.013   1.179  31.686  2.2644  0.7383  0.3572
12509TIP3   OH259017   2.184   2.660  83.438 -0.2292  0.6244 -0.5265
12509TIP3    H159018   2.252   2.601  83.470 -2.1313 -1.4013  0.0161
12509TIP3    H259019   2.168   2.719  83.512  0.6607  0.8933 -0.5355
12510TIP3   OH259020   0.671   2.415 107.035  0.0355  0.5567 -0.2213
12510TIP3    H159021   0.742   2.446 107.091  0.7698  0.7884 -1.2553
12510TIP3    H259022   0.683   2.320 107.030  0.5066  0.6422 -0.7123
12511TIP3   OH259023   0.874   1.629  16.883  0.1467  0.0586 -0.0317
12511TIP3    H159024   0.779   1.639  16.883 -0.1133 -1.6446  2.0620
12511TIP3    H259025   0.908   1.718  16.882 -1.5066  0.7181  0.1862
12512TIP3   OH259026   1.168   1.620   2.778  0.4269 -0.0105 -0.1140
12512TIP3    H159027   1.173   1.714   2.798  0.5668  0.2831 -1.4239
12512TIP3    H259028   1.075   1.599   2.785  0.4081  0.2053  0.2869
12513TIP3   OH259029   2.266   0.559   3.987  0.0055 -0.3218 -0.1399
12513TIP3    H159030   2.306   0.485   3.942  0.5130  0.4505 -1.0113
12513TIP3    H259031   2.309   0.636   3.949 -1.2056  0.4655  0.0210
12514TIP3   OH259032   1.871   2.330  21.674  0.2363  0.3426 -0.3350
12514TIP3    H159033   1.893   2.277  21.597  2.8600 -1.1286  1.2695
12514TIP3    H259034   1.885   2.421  21.645 -2.2607  0.1503 -2.5114
12515TIP3   OH259035   0.100   1.099   2.110  0.3929  0.4669 -0.1743
12515TIP3    H159036   0.119   1.038   2.038  0.3876 -0.6467  0.7356
12515TIP3    H259037   0.036   1.160   2.073  0.5223  0.0269 -1.1714
12516TIP3   OH259038   1.885   0.590  23.696 -0.4360 -1.2205  0.0359
12516TIP3    H159039   1.811   0.599  23.756 -1.0648 -2.8760 -0.4387
12516TIP3    H259040   1.953   0.549  23.749  0.3038  0.6249  0.5709
12517TIP3   OH259041   1.055   1.527  89.483 -0.2464 -0.1521  0.4112
12517TIP3    H159042   1.032   1.591  89.550 -1.9669 -0.8805  0.5649
12517TIP3    H259043   1.070   1.579  89.404  0.1501  0.5753  0.9552
12518TIP3   OH259044   1.353   0.854  29.580  0.1820 -0.0893 -0.0390
12518TIP3    H159045   1.441   0.816  29.588  0.3418 -0.3074 -2.2757
12518TIP3    H259046   1.335   0.889  29.667  1.2225 -2.6792  1.3580
12519TIP3   OH259047   0.322   2.182   7.488  0.0857  0.1774 -0.4959
12519TIP3    H159048   0.321   2.276   7.472 -0.1966  0.3207  0.3092
12519TIP3    H259049   0.379   2.172   7.565 -0.1701 -0.2714 -0.3631
12520TIP3   OH259050   1.277   2.159  15.130  0.3397 -0.0872 -0.0728
12520TIP3    H159051   1.253   2.252  15.122 -0.1854 -0.2675 -0.6839
12520TIP3    H259052   1.207   2.121  15.183  0.2381 -0.2418 -0.3106
12521TIP3   OH259053   0.892   1.513  96.152  0.5963 -0.2154  0.2923
12521TIP3    H159054   0.888   1.435  96.097 -0.0784 -0.3856  0.5727
12521TIP3    H259055   0.985   1.525  96.170  0.9110  0.3283 -1.5586
12522TIP3   OH259056   1.928   1.524  14.560  0.0407  0.2921 -0.1485
12522TIP3    H159057   1.987   1.588  14.522 -0.3931  0.6591 -0.2177
12522TIP3    H259058   1.845   1.537  14.514 -0.0268 -0.3906 -0.2379
12523TIP3   OH259059   0.987   0.595   2.454  0.1461 -0.0199  0.3336
12523TIP3    H159060   0.930   0.520   2.472 -0.9832  0.5790 -0.5549
12523TIP3    H259061   1.072   0.557   2.434  0.1130 -0.9396  1.8051
12524TIP3   OH259062   0.823   0.453  17.725  0.3018  1.1385  0.0376
12524TIP3    H159063   0.893   0.403  17.683 -0.7671  0.6092 -1.1931
12524TIP3    H259064   0.815   0.532  17.672 -1.0940  0.4422 -0.8758
12525TIP3   OH259065   0.554   1.317  15.456  0.2588  0.2782 -0.5244
12525TIP3    H159066   0.602   1.249  15.504 -2.0492 -0.7036  0.5259
12525TIP3    H259067   0.553   1.286  15.366  1.8921  0.5295 -0.6613
12526TIP3   OH259068   1.136   1.822  37.032  0.2008  0.1587  0.5187
12526TIP3    H159069   1.046   1.792  37.021  0.2934  0.3171 -0.8779
12526TIP3    H259070   1.161   1.793  37.120 -0.5769 -1.5415  0.2138
12527TIP3   OH259071   1.493   1.007  28.855  0.4013  0.2554 -0.1741
12527TIP3    H159072   1.567   1.019  28.915  1.8656 -1.8346 -1.4214
12527TIP3    H259073   1.416   1.000  28.912  1.3805  0.8463  1.2710
12528TIP3   OH259074   0.144   2.082  20.020  0.1513  0.1034  0.5107
12528TIP3    H159075   0.160   1.994  19.986  0.6358 -0.3030  1.7443
12528TIP3    H259076   0.129   2.135  19.942  0.0410 -1.0292 -0.2666
12529TIP3   OH259077   2.402   1.865  93.769  0.2834  0.2967 -0.2742
12529TIP3    H159078   2.319   1.899  93.734 -0.0155 -0.1380 -0.0067
12529TIP3    H259079   2.405   1.775  93.738 -0.0460 -0.1331  0.9075
12530TIP3   OH259080   0.624   0.391  36.556 -0.0297  0.0643 -0.7699
12530TIP3    H159081   0.682   0.318  36.579 -1.7275 -1.1340 -0.0867
12530TIP3    H259082   0.634   0.401  36.461  1.0723 -0.2728 -0.7067
12531TIP3   OH259083   1.819   0.384   7.515  0.0584 -0.2072  0.0087
12531TIP3    H159084   1.841   0.445   7.445  1.2614 -1.2229 -0.5461
12531TIP3    H259085   1.864   0.420   7.592  0.1774 -0.0151 -0.1477
12532TIP3   OH259086   0.485   0.738 110.658 -0.2812 -0.1636 -0.2722
12532TIP3    H159087   0.567   0.697 110.631 -0.6193 -0.3340 -1.0692
12532TIP3    H259088   0.497   0.759 110.750  1.6686  2.2303 -0.9701
12533TIP3   OH259089   0.982   1.250 102.628  0.5601 -0.4804 -0.0276
12533TIP3    H159090   0.988   1.271 102.721  0.1272 -0.3398 -0.0291
12533TIP3    H259091   1.052   1.301 102.587  1.1390 -1.0027  0.2876
12534TIP3   OH259092   2.037   2.146  34.477 -0.4271  0.4095 -0.4431
12534TIP3    H159093   2.086   2.169  34.398  1.3408  3.3476  1.3154
12534TIP3    H259094   1.990   2.226  34.501 -0.0789 -0.0154  2.0030
12535TIP3   OH259095   2.501   0.694  38.680 -0.5114 -0.3718  0.0146
12535TIP3    H159096   2.486   0.745  38.760  3.8138  0.0664  0.8190
12535TIP3    H259097   2.504   0.603  38.710  3.0475 -0.0872  0.9571
12536TIP3   OH259098   2.471   1.772  16.073  0.0548  0.2322 -0.1430
12536TIP3    H159099   2.414   1.696  16.079  0.5923 -0.0488  2.8100
12536TIP3    H259100   2.505   1.770  15.983 -0.7943 -2.3479 -0.4792
12537TIP3   OH259101   2.280   2.383  94.189  0.2825 -0.1741 -0.1783
12537TIP3    H159102   2.294   2.303  94.239  0.1134 -0.4860 -0.6335
12537TIP3    H259103   2.209   2.427  94.235  0.9407  0.1430  0.5820
12538TIP3   OH259104   2.482   2.611  83.188 -0.3342 -0.0230 -0.4605
12538TIP3    H159105   2.545   2.664  83.237 -1.0568  0.5663 -0.1328
12538TIP3    H259106   2.411   2.672  83.167 -0.2008 -0.3474 -1.9613
12539TIP3   OH259107   0.493   2.424  17.566  0.3957 -0.0659  0.3589
12539TIP3    H159108   0.407   2.443  17.530  0.0047 -0.0343  1.2782
12539TIP3    H259109   0.523   2.507  17.603  0.7291 -0.1262  0.2304
12540TIP3   OH259110   1.325   1.283  91.231  0.2087  0.0047 -0.0160
12540TIP3    H159111   1.336   1.329  91.149  0.6756 -0.1978 -0.0742
12540TIP3    H259112   1.381   1.330  91.293 -1.1509  0.9761  0.5388
12541TIP3   OH259113   1.265   2.022  88.500 -0.0859  0.5644 -0.3577
12541TIP3    H159114   1.311   2.099  88.535  0.1373 -0.2628  1.2959
12541TIP3    H259115   1.336   1.961  88.478 -0.2896  0.4937 -0.8136
12542TIP3   OH259116   0.345   0.949  88.923 -0.0097  0.4418 -0.0940
12542TIP3    H159117   0.386   1.030  88.951  0.0505  0.5406 -0.4658
12542TIP3    H259118   0.254   0.972  88.907 -0.4978  0.0076  1.7440
12543TIP3   OH259119   2.579   0.713  99.831  0.3987  0.6643  0.6537
12543TIP3    H159120   2.496   0.734  99.875  0.2597 -0.3341  0.8814
12543TIP3    H259121   2.645   0.717  99.900  0.1338 -1.2275  1.0677
12544TIP3   OH259122   0.857   1.006   7.534  0.1449  0.0641 -0.5135
12544TIP3    H159123   0.836   1.097   7.556  0.9874  0.2439 -0.4016
12544TIP3    H259124   0.933   1.013   7.475  0.6489 -0.5872  0.0485
12545TIP3   OH259125   2.123   1.370  85.787 -0.0963  0.2677 -0.1560
12545TIP3    H159126   2.211   1.404  85.767  0.9462 -1.8272  0.6335
12545TIP3    H259127   2.096   1.420  85.865  0.3478  0.9596 -0.4299
12546TIP3   OH259128   1.217   2.010  29.133 -0.6852  0.2638  0.8230
12546TIP3    H159129   1.172   2.054  29.206  1.1938  1.2395  1.4636
12546TIP3    H259130   1.212   1.917  29.155 -2.1663  0.3449  0.9678
12547TIP3   OH259131   0.628   0.921  22.993 -0.4650 -0.2729  0.2246
12547TIP3    H159132   0.710   0.930  23.042 -0.5761  0.8086  0.2322
12547TIP3    H259133   0.602   0.830  23.008  0.3642 -0.4348  0.8057
12548TIP3   OH259134   2.377   0.788 111.283  0.4628 -0.2062  0.0500
12548TIP3    H159135   2.424   0.705 111.289  1.5311  0.3224 -0.6129
12548TIP3    H259136   2.426   0.848 111.339 -0.3222 -0.0133  0.5522
12549TIP3   OH259137   1.309   0.882  52.330  0.3296 -0.5400 -0.0281
12549TIP3    H159138   1.235   0.828  52.356  0.7983 -0.3425  1.8142
12549TIP3    H259139   1.279   0.972  52.340  0.7936 -0.4593  0.6888
12550TIP3   OH259140   1.774   1.828  18.697 -0.0906  0.1834  0.1357
12550TIP3    H159141   1.682   1.852  18.706  0.3843  1.7351  1.3332
12550TIP3    H259142   1.819   1.911  18.683  1.1217 -0.5702 -0.5935
12551TIP3   OH259143   1.217   1.872  97.411  0.4445 -0.0914  0.3364
12551TIP3    H159144   1.195   1.959  97.378 -0.4829 -0.1797  0.7001
12551TIP3    H259145   1.152   1.814  97.372  1.5827 -0.7750 -0.5986
12552TIP3   OH259146   2.150   2.614  16.760  0.5136 -0.0170 -0.6669
12552TIP3    H159147   2.203   2.537  16.780 -0.9787 -0.6874  0.8805
12552TIP3    H259148   2.210   2.672  16.712  2.2906 -1.2124  0.0078
12553TIP3   OH259149   0.043   1.952  97.557  0.1757 -0.4083  0.4049
12553TIP3    H159150   0.084   1.956  97.643  1.4169 -0.0095 -0.1866
12553TIP3    H259151   0.061   1.863  97.526  0.3184 -0.3396  0.2862
12554TIP3   OH259152   2.350   1.503  23.216 -0.6197  0.6062 -0.1555
12554TIP3    H159153   2.354   1.576  23.278  1.3791  0.5348 -0.1552
12554TIP3    H259154   2.276   1.525  23.159 -2.0244  1.0469  1.7360
12555TIP3   OH259155   0.101   1.115  14.697  0.1136  0.2051  0.2585
12555TIP3    H159156   0.034   1.174  14.661 -0.5465 -0.6991 -0.0364
12555TIP3    H259157   0.159   1.098  14.623 -0.0440  0.0152  0.1753
12556TIP3   OH259158   0.216   2.436 106.687  0.1902  0.4541 -0.5265
12556TIP3    H159159   0.207   2.531 106.695  0.0547  0.3112  1.8066
12556TIP3    H259160   0.307   2.423 106.659  1.0277  1.2622  1.5961
12557TIP3   OH259161   1.536   2.229   3.646  0.2257 -0.7375 -0.4642
12557TIP3    H159162   1.552   2.201   3.736  2.1443 -0.7513 -0.7781
12557TIP3    H259163   1.444   2.207   3.631 -0.4016  0.0191  1.7526
12558TIP3   OH259164   1.621   0.643  76.186 -0.0977 -0.0444  0.1960
12558TIP3    H159165   1.671   0.707  76.238 -0.3132 -0.0599  0.4282
12558TIP3    H259166   1.679   0.567  76.181 -0.0067  0.0184  0.2752
12559TIP3   OH259167   1.159   0.264  56.848 -0.0250 -0.3181  0.1363
12559TIP3    H159168   1.239   0.218  56.875  1.4618  1.1159 -1.5790
12559TIP3    H259169   1.159   0.345  56.899 -2.1668 -1.6625  2.4879
12560TIP3   OH259170   0.511   0.881  13.653  0.3087  0.3770 -0.6060
12560TIP3    H159171   0.470   0.964  13.674 -0.8405 -0.5647  1.1117
12560TIP3    H259172   0.459   0.846  13.581  0.6856  1.0363 -1.2098
12561TIP3   OH259173   0.732   1.020 111.547 -0.0126  0.1163  0.3180
12561TIP3    H159174   0.683   1.101 111.532 -1.6959 -1.0785 -0.9724
12561TIP3    H259175   0.718   1.000 111.639  1.4596  1.8956  0.9901
12562TIP3   OH259176   0.558   1.837  33.267  0.2732  0.8652 -0.0838
12562TIP3    H159177   0.643   1.879  33.280  0.2968  0.5878  0.6854
12562TIP3    H259178   0.523   1.878  33.187  0.7363  1.6209  0.0904
12563TIP3   OH259179   1.055   2.191 107.325  0.9630 -0.1092  0.0740
12563TIP3    H159180   1.057   2.218 107.233 -1.2164  1.2697  0.3511
12563TIP3    H259181   1.113   2.254 107.369  0.7608  0.2455 -0.1559
12564TIP3   OH259182   0.166   2.136  84.609  0.0272  0.0953 -0.2341
12564TIP3    H159183   0.146   2.089  84.528 -1.2307 -0.6035  0.4541
12564TIP3    H259184   0.258   2.116  84.625  0.4411  0.6308 -1.7145
12565TIP3   OH259185   0.727   1.015  95.995 -0.1164 -0.1909  0.2321
12565TIP3    H159186   0.790   0.955  95.954 -0.0349 -0.9105  1.3483
12565TIP3    H259187   0.653   1.017  95.935  0.4072 -0.4298 -0.4323
12566TIP3   OH259188   1.181   0.441  12.255  0.3526  0.1550  0.7047
12566TIP3    H159189   1.128   0.453  12.334 -0.7051  0.7738 -0.0729
12566TIP3    H259190   1.120   0.406  12.191  0.9168  0.7628 -0.1834
12567TIP3   OH259191   2.470   0.520  27.813 -0.2414  0.2403 -0.2528
12567TIP3    H159192   2.490   0.514  27.906 -0.1853  1.3459 -0.1779
12567TIP3    H259193   2.434   0.434  27.790 -0.9054  0.1822  0.9423
12568TIP3   OH259194   2.313   0.542   1.295  0.1355 -0.1223  0.0707
12568TIP3    H159195   2.324   0.450   1.273  0.4173  0.1624 -1.0362
12568TIP3    H259196   2.308   0.543   1.391 -0.4989 -1.3420  0.0672
12569TIP3   OH259197   2.328   1.564  30.417  0.0595 -0.4659 -0.2943
12569TIP3    H159198   2.300   1.655  30.417 -1.7455 -0.9861 -1.5565
12569TIP3    H259199   2.372   1.552  30.333 -0.0766 -0.8596 -0.3111
12570TIP3   OH259200   1.606   1.413   8.434  0.0027 -0.0629 -0.6031
12570TIP3    H159201   1.548   1.446   8.365 -0.4666 -0.0233 -0.1958
12570TIP3    H259202   1.568   1.447   8.515  0.9252  0.4421 -0.3671
12571TIP3   OH259203   0.059   1.454 103.217  0.0458 -0.0625 -0.3874
12571TIP3    H159204   0.014   1.502 103.147  0.1508 -0.2974 -0.6224
12571TIP3    H259205   0.066   1.364 103.183 -0.7778 -0.4127  0.3317
12572TIP3   OH259206   0.366   2.029  27.368  0.3954 -0.9082 -0.3512
12572TIP3    H159207   0.294   1.985  27.324  0.3751 -0.6932 -0.5381
12572TIP3    H259208   0.430   1.960  27.385  1.7683 -0.5572 -3.4624
12573TIP3   OH259209   2.579   0.825  99.506 -0.7148 -0.0487  0.3283
12573TIP3    H159210   2.641   0.771  99.555 -0.2003  0.5348  0.3415
12573TIP3    H259211   2.634   0.889  99.460 -1.2496 -0.1013 -0.3982
12574TIP3   OH259212   1.260   2.405  89.577  0.0827 -0.0964 -0.5407
12574TIP3    H159213   1.351   2.402  89.548 -0.6269  0.7546 -3.1525
12574TIP3    H259214   1.255   2.339  89.646  2.5480 -0.5338 -0.6781
12575TIP3   OH259215   0.628   0.852  34.954 -0.3055  0.3922 -0.0128
12575TIP3    H159216   0.543   0.854  34.910 -0.7351  1.5391  0.8162
12575TIP3    H259217   0.652   0.760  34.954 -0.9673  0.1835 -1.3353
12576TIP3   OH259218   2.310   2.679  96.652 -0.3989  0.0898  0.1996
12576TIP3    H159219   2.352   2.594  96.667 -0.8407 -0.0441  0.7181
12576TIP3    H259220   2.278   2.706  96.738 -1.6530  0.0275 -0.2173
12577TIP3   OH259221   1.577   2.200 112.018  0.0102  0.0578  0.5245
12577TIP3    H159222   1.500   2.198 112.076  0.8319 -0.6187  1.6476
12577TIP3    H259223   1.604   2.291 112.017 -0.7352  0.2799  0.2226
12578TIP3   OH259224   2.241   1.962  12.559 -0.2183 -0.2394  0.0325
12578TIP3    H159225   2.228   1.904  12.485  0.4355  1.2560 -1.3142
12578TIP3    H259226   2.336   1.966  12.570 -0.3149 -1.0693  1.5124
12579TIP3   OH259227   2.518   0.664 101.995 -0.0421 -0.1660 -0.4795
12579TIP3    H159228   2.484   0.730 102.055 -0.9419 -1.5599  0.6026
12579TIP3    H259229   2.491   0.694 101.908 -0.4465  0.8617 -0.0052
12580TIP3   OH259230   0.956   1.649   3.828  0.2245 -0.4252  0.1917
12580TIP3    H159231   0.891   1.719   3.820 -0.5757 -1.1300  0.3321
12580TIP3    H259232   0.934   1.589   3.757  1.2500 -0.2675 -0.2694
12581TIP3   OH259233   0.175   0.731  33.846 -0.0899 -0.1835 -0.3196
12581TIP3    H159234   0.209   0.736  33.756  0.4607 -1.4115 -0.1987
12581TIP3    H259235   0.214   0.806  33.891  1.9863 -1.1714 -0.3580
12582TIP3   OH259236   2.113   2.550  79.944  0.8197 -0.3832  0.4228
12582TIP3    H159237   2.195   2.515  79.908  0.1851 -1.4036 -0.0668
12582TIP3    H259238   2.064   2.580  79.867  0.0014 -1.3874  0.5373
12583TIP3   OH259239   0.786   0.677  73.756  0.1850  0.2173 -0.4615
12583TIP3    H159240   0.817   0.728  73.831 -0.7622 -1.4778  1.1593
12583TIP3    H259241   0.703   0.640  73.785  0.9628 -2.4705 -1.4135
12584TIP3   OH259242   0.420   2.171  14.616  0.1184  0.3171 -0.1074
12584TIP3    H159243   0.464   2.093  14.650 -1.5996 -0.3001  0.8102
12584TIP3    H259244   0.473   2.244  14.650  2.0721 -0.3792 -1.4379
12585TIP3   OH259245   1.346   2.643  23.879 -0.1238 -0.0616 -0.0945
12585TIP3    H159246   1.380   2.650  23.968  1.4051  1.1967 -0.7182
12585TIP3    H259247   1.400   2.575  23.838  0.7272  0.9478 -0.6872
12586TIP3   OH259248   0.732   2.371  35.323  0.0132  0.3131  0.1689
12586TIP3    H159249   0.816   2.353  35.282 -0.3018  0.1254 -0.4083
12586TIP3    H259250   0.713   2.463  35.301 -0.4466  0.0317 -0.6482
12587TIP3   OH259251   1.336   0.661  90.960 -0.2493 -0.2096 -0.3779
12587TIP3    H159252   1.355   0.719  91.035  0.5588 -0.4734 -0.3662
12587TIP3    H259253   1.409   0.677  90.899 -1.0580  0.2291 -1.2510
12588TIP3   OH259254   1.600   2.567  95.029 -0.2266  0.2504  0.0501
12588TIP3    H159255   1.663   2.532  95.091  0.9420  0.1713 -1.1424
12588TIP3    H259256   1.650   2.626  94.973 -1.5613  1.5066  0.1181
12589TIP3   OH259257   1.824   0.044 102.149 -0.2316 -0.2689 -0.4381
12589TIP3    H159258   1.748   0.034 102.207 -0.7857 -0.1447 -1.1317
12589TIP3    H259259   1.842   0.138 102.149 -1.4240  0.0032 -1.9213
12590TIP3   OH259260   1.481   0.900  31.239  0.0015 -0.2420 -0.0378
12590TIP3    H159261   1.558   0.937  31.195  1.2348 -0.6248  1.6979
12590TIP3    H259262   1.419   0.973  31.242  0.6571  0.3649 -0.6062
12591TIP3   OH259263   0.041   2.343  76.906  0.9473 -0.3757  0.8992
12591TIP3    H159264   0.017   2.435  76.919 -2.5470 -1.0890  0.3794
12591TIP3    H259265   0.097   2.344  76.828  0.4336  1.2386  0.5116
12592TIP3   OH259266   0.569   1.718   6.862 -0.1729  0.1010  0.1434
12592TIP3    H159267   0.524   1.679   6.787  0.8625 -0.5572 -0.1526
12592TIP3    H259268   0.654   1.675   6.864  0.3306  1.0910  0.8893
12593TIP3   OH259269   0.858   1.416  92.443  0.1034  0.0765 -0.0545
12593TIP3    H159270   0.934   1.359  92.430  0.8178  0.7884  0.8296
12593TIP3    H259271   0.802   1.368  92.504  0.9205  0.4947  1.0538
12594TIP3   OH259272   0.248   0.790   7.493 -0.5785 -0.0539 -0.0924
12594TIP3    H159273   0.308   0.800   7.419 -0.4701  0.7324  0.0842
12594TIP3    H259274   0.301   0.749   7.561 -0.0899  1.0318  0.2092
12595TIP3   OH259275   0.078   2.421  85.122 -0.9877 -0.0484  0.0109
12595TIP3    H159276   0.159   2.460  85.154 -0.7809  1.3103 -2.0167
12595TIP3    H259277   0.106   2.339  85.082 -0.8421 -0.2885  0.5885
12596TIP3   OH259278   2.195   1.113  23.856 -0.2535 -0.7593 -0.2907
12596TIP3    H159279   2.285   1.097  23.883  0.0899 -2.6280 -2.3091
12596TIP3    H259280   2.159   1.025  23.838 -1.4351  0.1237 -2.6251
12597TIP3   OH259281   1.063   2.165  79.812 -0.0966 -0.1697  0.0686
12597TIP3    H159282   0.972   2.139  79.795 -0.1907  0.2756 -0.1040
12597TIP3    H259283   1.061   2.202  79.900 -0.0940 -0.0897  0.0337
12598TIP3   OH259284   0.533   0.611  26.050  0.0297 -0.1378 -0.0975
12598TIP3    H159285   0.527   0.695  26.094  1.2836  0.1161 -0.3759
12598TIP3    H259286   0.626   0.589  26.052 -0.1693 -1.1191 -0.7531
12599TIP3   OH259287   1.420   2.084  24.083 -0.7946 -0.2304 -0.0372
12599TIP3    H159288   1.409   2.179  24.078 -1.6007 -0.3523 -0.7237
12599TIP3    H259289   1.451   2.059  23.996 -2.1720 -0.7902 -0.3877
12600TIP3   OH259290   0.268   2.147  94.058 -0.6109 -0.6405 -0.2593
12600TIP3    H159291   0.255   2.233  94.018 -1.1979 -1.7198 -2.5572
12600TIP3    H259292   0.306   2.166  94.143  0.0888  1.8707 -1.0362
12601TIP3   OH259293   0.681   1.811  90.600 -0.0088  0.2659 -0.4307
12601TIP3    H159294   0.769   1.785  90.626  0.0873  0.9539 -0.0544
12601TIP3    H259295   0.654   1.743  90.537  0.9629  0.3040 -0.9103
12602TIP3   OH259296   1.353   2.480 111.687  0.0586  0.1488  0.2647
12602TIP3    H159297   1.281   2.488 111.625  0.6603  0.9372 -0.3424
12602TIP3    H259298   1.376   2.570 111.710  1.1496 -0.0718  0.0934
12603TIP3   OH259299   0.816   1.808   9.331  0.1412 -0.6000 -0.0526
12603TIP3    H159300   0.790   1.865   9.404  0.0320  0.0685 -0.6007
12603TIP3    H259301   0.843   1.726   9.373 -0.0959 -0.2906  0.7248
12604TIP3   OH259302   2.603   2.516 106.793 -0.5482  0.1465 -0.0850
12604TIP3    H159303   2.669   2.583 106.773 -1.9796  1.3553 -1.0105
12604TIP3    H259304   2.628   2.441 106.739  1.9333 -0.7268  2.0455
12605TIP3   OH259305   0.121   1.678  29.251 -0.0387 -0.1843 -0.0358
12605TIP3    H159306   0.069   1.629  29.315  2.3222  0.4668  2.5757
12605TIP3    H259307   0.086   1.767  29.254  0.3904 -0.0330  0.7989
12606TIP3   OH259308   2.087   2.192  94.027 -0.3301  0.0011 -0.2473
12606TIP3    H159309   2.167   2.228  94.065 -0.4762  0.1246 -0.0545
12606TIP3    H259310   2.052   2.264  93.975  0.1846 -0.3541 -1.1077
12607TIP3   OH259311   2.511   2.150 108.746 -0.5392 -0.3112 -0.2953
12607TIP3    H159312   2.470   2.063 108.751 -1.0221 -0.0575  0.2461
12607TIP3    H259313   2.538   2.169 108.836 -0.0101 -0.1009 -0.4943
12608TIP3   OH259314   0.014   0.354   0.765 -0.1298  0.3443  0.0895
12608TIP3    H159315   0.047   0.442   0.750  0.5110  0.1555  0.3704
12608TIP3    H259316  -0.056   0.364   0.829  1.2772  0.4268  1.6729
12609TIP3   OH259317   0.654   2.511  69.625 -0.2440  0.2243 -0.3007
12609TIP3    H159318   0.595   2.438  69.607  1.1327 -0.6623 -1.4013
12609TIP3    H259319   0.709   2.481  69.697 -2.4748  1.8882  2.2832
12610TIP3   OH259320   0.164   1.314  92.543 -0.0112 -0.0672 -0.1897
12610TIP3    H159321   0.193   1.401  92.516 -0.1071  0.6340  1.8206
12610TIP3    H259322   0.225   1.254  92.499  1.8479  1.1641  0.5808
12611TIP3   OH259323   1.797   0.714 104.900 -0.0187  0.1018 -0.2207
12611TIP3    H159324   1.787   0.673 104.986  0.6049  0.8111  0.1965
12611TIP3    H259325   1.711   0.703 104.859 -0.0276 -1.1632  0.0671
12612TIP3   OH259326   2.599   0.945  75.250  0.4752 -0.8683  0.2136
12612TIP3    H159327   2.587   1.038  75.227  1.4785 -0.5328  0.9753
12612TIP3    H259328   2.590   0.899  75.166  0.3439 -0.0550 -0.2424
12613TIP3   OH259329   2.126   1.207   5.747 -0.5703 -0.0836  0.1689
12613TIP3    H159330   2.040   1.246   5.729  0.0110  0.8667 -0.6078
12613TIP3    H259331   2.176   1.276   5.789 -0.3011 -0.7661  0.9979
12614TIP3   OH259332   0.392   2.044  89.264 -0.6286 -0.1255 -0.6121
12614TIP3    H159333   0.391   2.023  89.357 -0.5532 -0.8364 -0.7634
12614TIP3    H259334   0.300   2.056  89.241 -0.6010  0.6753 -0.3148
12615TIP3   OH259335   0.388   0.207  32.076 -0.1596 -0.1586  1.0220
12615TIP3    H159336   0.431   0.254  32.148 -0.0782  2.1275 -0.3945
12615TIP3    H259337   0.456   0.151  32.040  1.2076  2.0362 -0.0258
12616TIP3   OH259338   0.968   0.314  31.394  0.0949  0.0672  0.0346
12616TIP3    H159339   0.988   0.234  31.443 -0.2423  0.1449  0.3023
12616TIP3    H259340   0.900   0.357  31.445 -0.6949 -0.1541 -0.8154
12617TIP3   OH259341   1.795   2.588  77.982 -0.2403  0.2448 -0.3840
12617TIP3    H159342   1.800   2.532  77.904  0.2165  0.8198 -0.7706
12617TIP3    H259343   1.832   2.535  78.052 -1.3441 -0.5639 -0.3782
12618TIP3   OH259344   1.699   2.489  23.921  0.6398 -0.6238 -0.0774
12618TIP3    H159345   1.651   2.519  23.844 -1.4769  0.0082  1.3981
12618TIP3    H259346   1.691   2.394  23.918 -0.6926 -0.5308  0.1087
12619TIP3   OH259347   1.796   1.882  13.951 -0.1838  0.0514  0.6704
12619TIP3    H159348   1.840   1.870  13.867  0.5617  0.3035  1.0118
12619TIP3    H259349   1.774   1.975  13.954 -0.1738  0.0510  0.7728
12620TIP3   OH259350   1.524   2.389  10.357  0.5939 -0.2413  0.3758
12620TIP3    H159351   1.465   2.446  10.308  0.9573 -0.8225 -0.7556
12620TIP3    H259352   1.541   2.315  10.299  2.1061 -0.2944  0.8434
12621TIP3   OH259353   0.226   2.472  25.036 -0.0026  0.3065 -0.5381
12621TIP3    H159354   0.238   2.398  25.097 -3.6729  1.5049  1.9850
12621TIP3    H259355   0.157   2.443  24.977  1.6656  0.1822 -2.5248
12622TIP3   OH259356   1.931   1.159   5.302  0.1182 -0.6331  0.1476
12622TIP3    H159357   1.959   1.239   5.258 -0.9087 -0.9597 -1.1764
12622TIP3    H259358   1.942   1.177   5.395 -0.4796  1.1922 -0.0920
12623TIP3   OH259359   0.944   1.912  97.076 -0.2613  0.2618 -0.0004
12623TIP3    H159360   0.879   1.961  97.027  1.5665  0.0379 -2.9248
12623TIP3    H259361   0.945   1.825  97.035  1.4933  0.1253  0.2211
12624TIP3   OH259362   0.958   2.230 100.917 -0.2655  0.5525  0.2293
12624TIP3    H159363   0.944   2.136 100.916  2.8295 -0.0308 -2.5482
12624TIP3    H259364   0.905   2.263 100.844 -0.3625  0.7888  0.4048
12625TIP3   OH259365   0.641   0.832   5.742 -0.2106 -0.4504 -0.6250
12625TIP3    H159366   0.620   0.884   5.819 -1.2700  0.9897 -1.8409
12625TIP3    H259367   0.588   0.753   5.752 -2.5396  0.9553 -1.2028
12626TIP3   OH259368   1.168   0.575  64.071 -0.0674  0.0858 -0.0710
12626TIP3    H159369   1.099   0.515  64.101 -0.2035  0.2476 -0.0596
12626TIP3    H259370   1.194   0.541  63.985  0.4382 -0.4780  0.2953
12627TIP3   OH259371   0.738   2.243  15.145  0.0526 -0.5552  0.0355
12627TIP3    H159372   0.724   2.150  15.164  1.0739 -0.7901 -0.3054
12627TIP3    H259373   0.823   2.246  15.102 -0.8416  0.2831 -1.8095
12628TIP3   OH259374   0.459   2.414  88.944  0.3651 -0.2483  0.2272
12628TIP3    H159375   0.379   2.362  88.957  0.8153 -1.7229 -2.2596
12628TIP3    H259376   0.497   2.421  89.031 -1.0569 -1.9340  1.0589
12629TIP3   OH259377   1.738   1.745  16.468 -0.4264 -0.1304 -0.0074
12629TIP3    H159378   1.828   1.733  16.497 -0.9286  0.1909  1.8133
12629TIP3    H259379   1.712   1.660  16.434  0.1430 -0.6016  0.7134
12630TIP3   OH259380   2.064   1.023 101.038  0.0021 -0.2646  0.2287
12630TIP3    H159381   2.001   1.089 101.067 -1.4870 -0.8664 -1.5099
12630TIP3    H259382   2.089   0.977 101.118 -1.2212  0.4384  1.0350
12631TIP3   OH259383   1.907   1.449  74.895 -0.2698 -0.3542  0.2096
12631TIP3    H159384   1.963   1.471  74.820 -1.1427 -1.0330 -0.6624
12631TIP3    H259385   1.818   1.451  74.860 -1.0263  2.3546  1.9407
12632TIP3   OH259386   0.861   0.484   9.069  0.0112 -0.4958 -0.1200
12632TIP3    H159387   0.793   0.454   9.129 -1.1663  0.7339 -0.8158
12632TIP3    H259388   0.837   0.445   8.985 -0.0973  0.3256 -0.4702
12633TIP3   OH259389   1.910   0.044  78.688  0.3899 -0.1879  0.5337
12633TIP3    H159390   1.859   0.103  78.743  0.7129  0.9541 -0.3687
12633TIP3    H259391   1.928   0.094  78.608  2.7909 -0.5879  0.7622
12634TIP3   OH259392   1.100   2.639  19.480  0.2523 -0.2791 -0.0924
12634TIP3    H159393   1.181   2.591  19.494  0.1796 -0.7273 -1.1741
12634TIP3    H259394   1.121   2.703  19.412 -0.1915 -0.1172 -0.0832
12635TIP3   OH259395   2.097   0.668  79.280 -0.1940  0.0403 -0.2902
12635TIP3    H159396   2.088   0.594  79.220 -0.1142 -0.0709 -0.1663
12635TIP3    H259397   2.007   0.697  79.296 -0.2677 -0.4511  0.1872
12636TIP3   OH259398   0.876   0.682  88.839  0.0759  0.0986 -0.0511
12636TIP3    H159399   0.783   0.676  88.818 -0.2103  2.3105  0.2568
12636TIP3    H259400   0.888   0.623  88.913 -0.8543 -0.9419 -0.7000
12637TIP3   OH259401   1.217   0.522 104.187  0.3309  0.0866 -0.8475
12637TIP3    H159402   1.148   0.574 104.228  0.2153  0.3277 -1.3282
12637TIP3    H259403   1.281   0.506 104.256 -0.3317 -0.3670 -0.3280
12638TIP3   OH259404   0.670   2.395   9.810 -0.1105 -0.5548 -0.3285
12638TIP3    H159405   0.734   2.457   9.845 -0.3183 -0.1235 -0.7042
12638TIP3    H259406   0.646   2.431   9.725 -0.0500 -1.2818 -0.6621
12639TIP3   OH259407   2.099   1.480 109.494 -0.8353  0.2955 -0.3982
12639TIP3    H159408   2.071   1.390 109.483 -1.1300  0.3224  0.0568
12639TIP3    H259409   2.110   1.514 109.405  0.4830 -0.5377 -0.5720
12640TIP3   OH259410   1.693   1.796  28.953  0.5799 -0.0627 -0.0265
12640TIP3    H159411   1.781   1.787  28.916  0.2211  0.1022 -0.9521
12640TIP3    H259412   1.635   1.765  28.883 -0.1423  0.5657  0.2880
12641TIP3   OH259413   2.140   2.304  28.405  0.1986  0.0239  0.6977
12641TIP3    H159414   2.128   2.294  28.310  0.7540 -1.0484  0.7333
12641TIP3    H259415   2.200   2.378  28.414  0.2734  0.0273  0.2047
12642TIP3   OH259416   1.335   1.025  34.112 -0.7838  0.1000  0.4942
12642TIP3    H159417   1.422   0.994  34.136 -0.4669  0.4241 -0.2373
12642TIP3    H259418   1.275   0.964  34.157 -0.1783 -0.6419  0.3181
12643TIP3   OH259419   2.591   1.820 108.209 -0.3714  0.1685 -0.1980
12643TIP3    H159420   2.660   1.756 108.188 -1.4700 -0.7429 -1.1868
12643TIP3    H259421   2.619   1.900 108.165  1.1053  0.4662  1.1893
12644TIP3   OH259422   1.435   0.537 107.654 -0.2330 -0.6984  0.2100
12644TIP3    H159423   1.354   0.562 107.697 -0.0601 -0.6488  0.5123
12644TIP3    H259424   1.503   0.589 107.697 -0.1802  0.1498 -0.8366
12645TIP3   OH259425   1.110   1.602  88.671  0.4390  0.5723 -0.4449
12645TIP3    H159426   1.040   1.657  88.706  0.2272 -0.1526  0.3022
12645TIP3    H259427   1.189   1.654  88.682  0.2184  0.7990  0.1096
12646TIP3   OH259428   2.196   1.474  74.372  0.0009  0.1983  0.5723
12646TIP3    H159429   2.107   1.473  74.409 -0.3288  3.4731  0.1354
12646TIP3    H259430   2.182   1.473  74.277  0.7473 -4.4503  0.2485
12647TIP3   OH259431   0.510   0.663  96.183  0.1111 -0.4716  0.0417
12647TIP3    H159432   0.546   0.634  96.099  2.2415  1.4223  0.2073
12647TIP3    H259433   0.581   0.648  96.245 -0.8780 -0.3869  1.2314
12648TIP3   OH259434   1.775   1.112 106.037 -0.3260 -0.2007  0.7391
12648TIP3    H159435   1.814   1.120 106.124  1.8996  0.5031 -0.2626
12648TIP3    H259436   1.758   1.019 106.027 -0.4648 -0.3128  1.8570
12649TIP3   OH259437   2.350   0.963  23.242 -0.1479  0.3773  0.3057
12649TIP3    H159438   2.362   1.058  23.238 -2.0753  0.6273 -1.1587
12649TIP3    H259439   2.360   0.941  23.335 -1.0332  2.2371  0.8910
12650TIP3   OH259440   2.266   2.619   4.742 -0.1068  0.5569  0.4120
12650TIP3    H159441   2.327   2.577   4.803  1.3084  1.3509 -0.3976
12650TIP3    H259442   2.304   2.606   4.656 -0.4335  2.1043 -0.0097
12651TIP3   OH259443   1.964   1.523  30.739  0.2461 -0.2760  0.4924
12651TIP3    H159444   1.965   1.538  30.644  0.9887  2.0533  0.8315
12651TIP3    H259445   1.940   1.430  30.747  2.3358 -1.1572 -2.0214
12652TIP3   OH259446   1.546   2.318  85.354 -0.2711  0.6067 -0.2925
12652TIP3    H159447   1.482   2.389  85.363 -2.3516 -0.9189 -2.0082
12652TIP3    H259448   1.511   2.263  85.284  1.7128 -1.6414  0.3572
12653TIP3   OH259449   0.037   1.788  10.050  0.1439  0.0660  0.5291
12653TIP3    H159450  -0.056   1.808  10.037  0.4717  0.1819 -2.2572
12653TIP3    H259451   0.044   1.694  10.031  0.7426  0.2695 -0.2851
12654TIP3   OH259452   1.774   0.477  16.304 -0.0450 -0.0196 -0.2909
12654TIP3    H159453   1.866   0.503  16.294  0.0083  0.3259  0.9711
12654TIP3    H259454   1.751   0.503  16.393 -1.2330 -0.5383 -0.4282
12655TIP3   OH259455   1.836   1.408  84.354  0.0583  0.3928  0.1919
12655TIP3    H159456   1.773   1.446  84.416 -0.7365 -2.0649  1.0006
12655TIP3    H259457   1.914   1.391  84.406 -0.3782 -1.0762  0.3907
12656TIP3   OH259458   2.026   1.566   6.293 -0.0411  0.2600  0.4758
12656TIP3    H159459   1.978   1.546   6.374 -1.4162 -0.9067 -0.5796
12656TIP3    H259460   1.975   1.635   6.252 -0.9132 -1.0083 -0.6689
12657TIP3   OH259461   1.243   1.701   9.423 -0.1624 -0.0949  0.0583
12657TIP3    H159462   1.210   1.720   9.335  0.0991  0.3642  0.0572
12657TIP3    H259463   1.339   1.705   9.414 -0.1485  0.8053  0.5485
12658TIP3   OH259464   1.876   0.071  20.362 -0.8203 -0.2248 -0.6164
12658TIP3    H159465   1.923   0.081  20.279  0.2167  0.2739  0.0186
12658TIP3    H259466   1.797   0.021  20.339 -1.1843  0.9794 -2.1263
12659TIP3   OH259467   0.336   0.603  92.507 -0.3485 -0.2768 -0.3379
12659TIP3    H159468   0.285   0.526  92.484 -0.6081 -0.3108  0.3223
12659TIP3    H259469   0.423   0.586  92.470 -0.8221 -0.1826 -1.5284
12660TIP3   OH259470   2.254   0.116  27.298 -0.5824  0.0244  0.0773
12660TIP3    H159471   2.209   0.200  27.290 -0.9778 -0.0650  1.2207
12660TIP3    H259472   2.328   0.123  27.237 -1.0347  0.9121 -0.3887
12661TIP3   OH259473   0.289   0.158  86.014  0.3354 -0.1036  0.3128
12661TIP3    H159474   0.249   0.237  86.050 -0.3333 -0.1558 -0.3025
12661TIP3    H259475   0.270   0.162  85.920 -0.9173 -1.6902  0.4653
12662TIP3   OH259476   0.415   2.328  69.653 -0.4679  0.2690 -0.2795
12662TIP3    H159477   0.435   2.273  69.577 -0.1205 -0.1638  0.1178
12662TIP3    H259478   0.465   2.290  69.724 -3.0715 -1.2136  0.9125
12663TIP3   OH259479   1.035   2.451  21.612  0.0427 -0.5902 -0.0506
12663TIP3    H159480   1.129   2.467  21.614  0.0001 -0.2369 -0.7358
12663TIP3    H259481   1.026   2.358  21.595  0.2654 -0.5478 -0.4017
12664TIP3   OH259482   0.020   2.217  14.038  0.3067 -0.2664  0.2493
12664TIP3    H159483   0.104   2.260  14.053 -0.3319  0.7430  1.0432
12664TIP3    H259484  -0.023   2.271  13.972  0.2215 -0.7143 -0.0700
12665TIP3   OH259485   2.130   0.614  81.688 -0.1965  0.2690  0.1042
12665TIP3    H159486   2.039   0.638  81.707 -0.5254  0.6541 -1.7675
12665TIP3    H259487   2.179   0.695  81.704 -0.6641  0.9963 -1.8254
12666TIP3   OH259488   0.348   2.446  19.425 -0.1117  0.1187  0.5952
12666TIP3    H159489   0.260   2.457  19.387 -0.0072  1.0184  0.5878
12666TIP3    H259490   0.399   2.403  19.356 -0.2070  0.7751  0.1040
12667TIP3   OH259491   1.227   0.050 104.310 -0.4233 -0.5729 -0.3547
12667TIP3    H159492   1.261   0.055 104.220 -1.1067  0.1228 -0.5842
12667TIP3    H259493   1.251  -0.038 104.340 -0.9591 -1.1405 -1.5271
12668TIP3   OH259494   0.493   0.281  76.555  0.9242 -0.0362  0.3763
12668TIP3    H159495   0.504   0.264  76.648  1.9219 -0.0766  0.2627
12668TIP3    H259496   0.541   0.211  76.511 -1.7552 -1.6352 -0.2601
12669TIP3   OH259497   0.757   1.777  85.960  0.1953 -0.0620 -0.5917
12669TIP3    H159498   0.689   1.726  85.916  1.5210 -1.2403 -1.3744
12669TIP3    H259499   0.726   1.785  86.050  0.0139 -2.4903 -0.3588
12670TIP3   OH259500   1.881   1.005  11.616  0.1492  0.0648 -0.1794
12670TIP3    H159501   1.892   0.990  11.522 -1.2960 -1.1640 -0.1885
12670TIP3    H259502   1.853   1.097  11.622  1.6901  0.6198 -0.7898
12671TIP3   OH259503   1.997   2.198  20.302 -0.4476 -0.2387 -0.0202
12671TIP3    H159504   1.957   2.283  20.322 -1.0595 -0.5834  0.2682
12671TIP3    H259505   2.027   2.206  20.212 -0.8532  0.1568 -0.1234
12672TIP3   OH259506   0.954   2.153  30.103  0.5412  0.7326  0.0842
12672TIP3    H159507   0.995   2.237  30.124 -0.9039  1.1595  1.3760
12672TIP3    H259508   0.925   2.162  30.012  1.8779  0.9820 -0.3345
12673TIP3   OH259509   0.825   0.458   5.434 -0.4319 -0.3825 -0.2757
12673TIP3    H159510   0.819   0.538   5.382 -0.6016  1.7642  2.7673
12673TIP3    H259511   0.735   0.443   5.466 -0.1641 -1.0317  0.2060
12674TIP3   OH259512   1.187   2.393  14.045  0.2919  0.1714  0.3704
12674TIP3    H159513   1.121   2.368  14.110 -0.5135 -0.0302 -0.5005
12674TIP3    H259514   1.254   2.439  14.095  0.0075 -0.5450  1.4398
12675TIP3   OH259515   0.748   1.177   0.866  0.4075  0.3255 -0.0728
12675TIP3    H159516   0.698   1.256   0.886  1.1042  0.6434  0.4581
12675TIP3    H259517   0.683   1.107   0.867 -0.5422  1.0769 -2.2426
12676TIP3   OH259518   1.919   1.586  17.826  0.2924 -0.2630 -0.3063
12676TIP3    H159519   2.000   1.638  17.823 -0.9603  1.8104 -0.5434
12676TIP3    H259520   1.914   1.557  17.917  1.3682 -0.5552 -0.3201
12677TIP3   OH259521   0.532   0.127  51.258 -0.3939 -0.0798  0.0263
12677TIP3    H159522   0.575   0.065  51.316 -1.0446  0.2399  0.8835
12677TIP3    H259523   0.592   0.201  51.252  0.4953 -0.8884 -1.2032
12678TIP3   OH259524   0.677   0.692  15.266 -0.2492 -0.1553  0.4898
12678TIP3    H159525   0.679   0.612  15.214 -0.5605 -0.0210  0.2679
12678TIP3    H259526   0.614   0.674  15.336 -1.5463  0.4469 -0.4827
12679TIP3   OH259527   0.679   1.716  99.302 -0.0242 -0.7688  0.4092
12679TIP3    H159528   0.661   1.666  99.382  0.4838 -1.9258 -0.1747
12679TIP3    H259529   0.600   1.769  99.289 -0.3354 -0.9670  1.3780
12680TIP3   OH259530   0.563   0.941  10.734  0.1135 -0.3228  0.2851
12680TIP3    H159531   0.513   0.914  10.811  0.2011  0.5893  0.6733
12680TIP3    H259532   0.530   1.028  10.713  0.3249 -0.4239 -0.5166
12681TIP3   OH259533   1.887   0.084  14.784 -0.2733  0.5893 -0.1653
12681TIP3    H159534   1.809   0.051  14.828 -0.4859  0.0443 -0.9339
12681TIP3    H259535   1.955   0.083  14.852 -0.9584  1.2142  0.5413
12682TIP3   OH259536   2.152   0.840  34.840 -0.4983 -0.3765  0.0232
12682TIP3    H159537   2.058   0.857  34.850  0.1337  3.2051  1.4018
12682TIP3    H259538   2.162   0.749  34.867 -3.5832 -0.9930 -0.4876
12683TIP3   OH259539   1.572   0.912  85.580 -0.0578 -0.4847  0.0247
12683TIP3    H159540   1.651   0.861  85.595  1.0502  0.8873 -0.9937
12683TIP3    H259541   1.587   0.995  85.626 -0.6834 -0.0130 -0.6009
12684TIP3   OH259542   0.922   1.222  18.255  0.0865  0.0650  0.1172
12684TIP3    H159543   0.922   1.275  18.175  1.1639  1.7756  1.1947
12684TIP3    H259544   0.884   1.279  18.322  0.3557 -0.8928  1.1125
12685TIP3   OH259545   0.016   0.708   5.747  0.1556  0.1918  0.1537
12685TIP3    H159546  -0.030   0.780   5.789  0.2057  0.0477  0.4617
12685TIP3    H259547  -0.054   0.651   5.713  0.1046  0.1022  0.4007
12686TIP3   OH259548   1.298   2.011  38.110  0.8574  0.3184  0.1171
12686TIP3    H159549   1.353   1.983  38.037  0.7731 -0.7358  0.4418
12686TIP3    H259550   1.212   1.975  38.089  0.9513 -0.4181  0.9787
12687TIP3   OH259551   0.069   0.745  25.442 -0.3777  0.2442 -0.2143
12687TIP3    H159552   0.085   0.657  25.407 -0.2472  0.5910 -1.0699
12687TIP3    H259553  -0.003   0.734  25.504  0.7736 -0.7504  0.9938
12688TIP3   OH259554   2.250   0.597  92.298  0.2841  0.8126 -0.4987
12688TIP3    H159555   2.227   0.507  92.323  0.0902  1.0718  0.2881
12688TIP3    H259556   2.234   0.648  92.378  1.8766  1.3001 -0.4616
12689TIP3   OH259557   2.123   0.533   1.745  0.3182  0.4091  0.2393
12689TIP3    H159558   2.133   0.616   1.700  0.5414 -0.6088 -1.6677
12689TIP3    H259559   2.211   0.496   1.748 -0.1827 -1.1030 -1.7130
12690TIP3   OH259560   2.433   1.477 106.745 -0.3529 -0.4966  0.1484
12690TIP3    H159561   2.449   1.421 106.669 -0.7156 -1.7491  0.9598
12690TIP3    H259562   2.447   1.419 106.821 -2.7654 -0.0828  0.9922
12691TIP3   OH259563   1.133   0.269   4.182 -0.7071  0.1339 -0.5599
12691TIP3    H159564   1.077   0.335   4.223  0.4677 -0.1170  1.5941
12691TIP3    H259565   1.186   0.319   4.119 -1.0051  0.9553 -0.1742
12692TIP3   OH259566   0.031   0.523  20.951  0.0010 -0.4335  0.7174
12692TIP3    H159567   0.122   0.495  20.949  0.2967  0.5200 -0.0860
12692TIP3    H259568   0.006   0.521  21.044  0.5810 -1.4732  0.8578
12693TIP3   OH259569   0.442   0.004  22.142  0.2199  0.5125  0.1632
12693TIP3    H159570   0.466  -0.084  22.170 -1.0393 -0.1153 -0.6105
12693TIP3    H259571   0.408   0.046  22.221 -0.8514 -0.3404  0.1870
12694TIP3   OH259572   0.107   1.571  10.854  0.0729  0.1333 -0.1410
12694TIP3    H159573   0.032   1.627  10.831 -0.0922 -0.3120 -0.7282
12694TIP3    H259574   0.172   1.590  10.787 -0.0294 -0.4542 -0.4167
12695TIP3   OH259575   1.199   1.320   3.683  0.0192 -0.0506 -0.3586
12695TIP3    H159576   1.247   1.401   3.699 -0.7306  0.1926  0.7664
12695TIP3    H259577   1.267   1.254   3.667  0.6694  0.5723 -0.2115
12696TIP3   OH259578   0.139   1.940  69.776  0.2370 -0.2559  0.0410
12696TIP3    H159579   0.142   1.852  69.738 -0.6482  0.1418 -1.0247
12696TIP3    H259580   0.157   1.998  69.702 -0.8412  0.5198  0.3617
12697TIP3   OH259581   0.402   1.052  97.860 -0.0137 -0.1444  0.3662
12697TIP3    H159582   0.316   1.092  97.871  0.1328  0.6394 -1.0937
12697TIP3    H259583   0.432   1.081  97.774  0.6365 -2.4485 -0.2616
12698TIP3   OH259584   0.227   1.705  31.318  0.5564 -0.2175 -0.3078
12698TIP3    H159585   0.214   1.617  31.282  0.8741 -0.8096  0.9659
12698TIP3    H259586   0.158   1.714  31.384  1.6844 -0.2964  0.9324
12699TIP3   OH259587   0.188   1.160  93.445 -0.2515 -0.4672 -0.4350
12699TIP3    H159588   0.132   1.121  93.378  0.1408 -1.2149 -0.3391
12699TIP3    H259589   0.167   1.253  93.442 -2.4073 -0.8680  0.4406
12700TIP3   OH259590   1.681   1.522 109.402 -0.2079 -0.1065 -0.1087
12700TIP3    H159591   1.724   1.607 109.415  0.3250 -0.6130  1.8279
12700TIP3    H259592   1.588   1.541 109.410 -0.1095  0.3253  0.0593
12701TIP3   OH259593   0.825   1.039  93.451  0.8224 -0.0296  0.1023
12701TIP3    H159594   0.763   1.109  93.470 -0.6903 -1.1495 -0.5340
12701TIP3    H259595   0.826   0.986  93.531  0.2404 -0.5162 -0.2025
12702TIP3   OH259596   2.519   1.386 101.268 -0.2559  0.6249 -0.3036
12702TIP3    H159597   2.594   1.331 101.245 -1.0782 -0.3490 -0.7221
12702TIP3    H259598   2.445   1.325 101.276 -1.5721  1.8139 -2.4747
12703TIP3   OH259599   2.323   0.116  87.468 -1.0348 -0.2601  0.6242
12703TIP3    H159600   2.343   0.208  87.478 -0.5908 -0.2972  0.1347
12703TIP3    H259601   2.268   0.112  87.389 -1.2916 -0.3827  0.8050
12704TIP3   OH259602   2.209   1.274  78.957 -0.4835 -0.0421 -0.0652
12704TIP3    H159603   2.290   1.241  78.918  0.5039  0.2356  1.6281
12704TIP3    H259604   2.192   1.214  79.030 -1.7180  0.0174 -0.2884
12705TIP3   OH259605   1.386   2.430  81.814 -0.5568 -0.1980  0.1278
12705TIP3    H159606   1.373   2.519  81.848  0.0902  0.2262 -0.6901
12705TIP3    H259607   1.381   2.374  81.891  1.5365  0.7920  1.0843
12706TIP3   OH259608   0.092   2.165  24.492  0.5945 -0.4392 -0.5578
12706TIP3    H159609   0.106   2.181  24.586  0.4614  0.9339 -0.7381
12706TIP3    H259610  -0.001   2.181  24.479  0.9773  1.6128 -1.2663
12707TIP3   OH259611   2.511   0.335  23.684  0.0536  0.5446  0.5651
12707TIP3    H159612   2.478   0.245  23.676  0.6934  0.4650 -1.7819
12707TIP3    H259613   2.436   0.391  23.666 -0.3384  0.5255  1.9988
12708TIP3   OH259614   2.102   2.030   2.519 -0.1376  0.2327 -0.1287
12708TIP3    H159615   2.152   2.026   2.601 -0.0509 -0.2860 -0.2038
12708TIP3    H259616   2.166   2.010   2.451 -0.6281 -1.3825 -0.1472
12709TIP3   OH259617   1.625   2.215  87.060 -0.2160 -0.6523  0.1416
12709TIP3    H159618   1.719   2.216  87.044  0.1339 -1.4847  1.9190
12709TIP3    H259619   1.586   2.239  86.976  1.5244 -1.6857 -1.0186
12710TIP3   OH259620   2.274   0.113  18.156 -0.6867 -0.1587 -0.2240
12710TIP3    H159621   2.315   0.034  18.192 -0.4702 -0.1223 -0.3888
12710TIP3    H259622   2.330   0.138  18.083 -1.0585 -0.1667 -0.5187
12711TIP3   OH259623   2.662   1.997  81.456  0.1934 -0.6429 -0.2784
12711TIP3    H159624   2.663   2.019  81.363 -1.1906  0.4877 -0.0574
12711TIP3    H259625   2.640   1.904  81.459 -1.8734 -0.2212 -1.0476
12712TIP3   OH259626   1.895   2.519  14.418  0.3255 -0.5038 -0.1594
12712TIP3    H159627   1.834   2.573  14.468  0.2614 -1.0862  0.4118
12712TIP3    H259628   1.886   2.549  14.328 -0.3394 -0.1601  0.0159
12713TIP3   OH259629   0.447   1.118  10.991 -0.3701  0.2009 -0.2116
12713TIP3    H159630   0.521   1.095  11.047  0.0143  0.0808 -0.7565
12713TIP3    H259631   0.390   1.041  10.994 -0.8825  0.6124  0.8583
12714TIP3   OH259632   0.616   0.662  68.660  0.2713 -0.2018 -0.5658
12714TIP3    H159633   0.630   0.754  68.636  1.8952 -0.3607 -0.3707
12714TIP3    H259634   0.606   0.617  68.576 -1.2493  0.2380 -0.6360
12715TIP3   OH259635   0.349   2.656   1.233 -0.1505  0.4162  0.1685
12715TIP3    H159636   0.261   2.625   1.212 -0.1668  1.0473 -0.7568
12715TIP3    H259637   0.365   2.625   1.322 -1.0110 -0.3491  0.0685
12716TIP3   OH259638   0.982   1.697  18.723 -0.5491  0.1895  0.2580
12716TIP3    H159639   1.036   1.768  18.758  0.0098 -0.8661  1.5973
12716TIP3    H259640   1.004   1.694  18.629  1.4003  0.0681  0.6846
12717TIP3   OH259641   1.830   0.270  18.449  0.3386 -0.2673 -0.2029
12717TIP3    H159642   1.835   0.299  18.539 -1.5978  0.3546 -0.2481
12717TIP3    H259643   1.918   0.240  18.428  0.5872 -1.4558  2.2203
12718TIP3   OH259644   2.465   0.202  77.444 -0.1651  0.1862  0.1778
12718TIP3    H159645   2.408   0.251  77.385 -0.0175 -1.4704 -1.4513
12718TIP3    H259646   2.525   0.156  77.385  1.9176  0.7209  1.7875
12719TIP3   OH259647   2.092   2.101  34.770 -0.1552  0.6331 -0.8357
12719TIP3    H159648   2.116   2.169  34.834  0.1414  0.2093 -0.4927
12719TIP3    H259649   2.030   2.144  34.712  1.2133  1.7003 -1.5812
12720TIP3   OH259650   2.383   2.397  93.916  0.1926 -0.2658  0.1763
12720TIP3    H159651   2.475   2.372  93.925 -0.0427 -1.3820 -0.3907
12720TIP3    H259652   2.350   2.397  94.006  0.4126 -1.2209  0.2675
12721TIP3   OH259653   0.830   1.272   2.192 -0.3625  0.1110 -0.5224
12721TIP3    H159654   0.867   1.234   2.112 -1.4699 -0.7056 -0.6777
12721TIP3    H259655   0.820   1.198   2.251  0.0666  0.6461  0.2398
12722TIP3   OH259656   1.101   0.004   1.537  0.7462  0.0832 -0.2176
12722TIP3    H159657   1.089  -0.013   1.443  1.6225  2.5157 -0.8306
12722TIP3    H259658   1.178   0.061   1.542  0.1927  0.7365  1.8993
12723TIP3   OH259659   1.689   1.408  10.000 -0.1262  0.0971 -0.5934
12723TIP3    H159660   1.768   1.361  10.025  1.1660  2.0927 -0.6993
12723TIP3    H259661   1.701   1.428   9.907 -0.1360  1.4826 -0.3205
12724TIP3   OH259662   2.047   1.956 101.428  0.5608  0.4260 -0.4644
12724TIP3    H159663   1.995   1.909 101.493  0.4076  0.9706 -0.1872
12724TIP3    H259664   2.111   1.892 101.398 -0.7218 -0.5012 -1.3490
12725TIP3   OH259665   1.476   1.281 110.146 -0.1468 -0.5610 -0.0653
12725TIP3    H159666   1.392   1.264 110.188 -0.0646  1.5170  1.0964
12725TIP3    H259667   1.455   1.291 110.054 -1.1900 -0.0536  0.2155
12726TIP3   OH259668   0.804   0.786  84.736 -0.1388  0.8110 -0.0000
12726TIP3    H159669   0.845   0.769  84.820  0.2794  1.6655 -0.0299
12726TIP3    H259670   0.711   0.795  84.756 -0.1236  0.3697  0.2755
12727TIP3   OH259671   1.092   1.632  29.679  0.3244 -0.3553  0.0447
12727TIP3    H159672   1.140   1.553  29.705 -0.8469 -0.7706  1.0902
12727TIP3    H259673   1.153   1.704  29.695  1.4735 -1.0404 -1.0911
12728TIP3   OH259674   2.592   1.473 104.081 -0.3037  0.1884 -0.2661
12728TIP3    H159675   2.500   1.485 104.105 -0.0786 -1.5627  1.7127
12728TIP3    H259676   2.593   1.391 104.033  0.2884 -0.0822  0.2038
12729TIP3   OH259677   2.434   1.505 102.213 -0.0312  0.0387  0.3684
12729TIP3    H159678   2.361   1.442 102.216 -0.1433  0.1060 -0.7200
12729TIP3    H259679   2.512   1.450 102.211 -0.1667 -0.1796 -2.5511
12730TIP3   OH259680   0.939   2.440  81.728  0.3718 -0.3610  0.5827
12730TIP3    H159681   0.981   2.416  81.810  2.7885  1.4984 -0.0187
12730TIP3    H259682   0.959   2.368  81.669  5.1499  1.4398 -0.4120
12731TIP3   OH259683   2.659   0.016 110.225  0.2020  0.2955 -0.2954
12731TIP3    H159684   2.565   0.027 110.211  0.1035  0.6738  0.5879
12731TIP3    H259685   2.691  -0.024 110.144 -1.0138 -1.5755  0.0806
12732TIP3   OH259686   1.719   2.232  35.399  0.1199 -0.5394 -0.0003
12732TIP3    H159687   1.771   2.207  35.322  1.7272 -1.2650  1.2775
12732TIP3    H259688   1.665   2.155  35.417 -1.2725  0.1165 -1.1650
12733TIP3   OH259689   0.653   1.910 101.980  0.2527 -0.3679 -0.4787
12733TIP3    H159690   0.654   2.002 101.954  0.7102 -0.2381 -0.0164
12733TIP3    H259691   0.744   1.881 101.969  0.0454 -0.8634 -0.9502
12734TIP3   OH259692   2.489   0.702 111.703  0.3666 -0.6326 -0.0050
12734TIP3    H159693   2.483   0.629 111.641 -1.9257 -1.6513  1.3003
12734TIP3    H259694   2.494   0.661 111.789 -1.6012  0.6771  0.8120
12735TIP3   OH259695   2.185   0.357   5.758 -0.3921 -0.0195 -0.5985
12735TIP3    H159696   2.209   0.448   5.774  0.6026 -0.4237  0.3628
12735TIP3    H259697   2.093   0.360   5.731 -0.4064  1.2511 -0.4511
12736TIP3   OH259698   0.109   0.926  83.281  0.2014  0.3079 -0.1276
12736TIP3    H159699   0.015   0.942  83.280  0.2899  0.9023  0.6169
12736TIP3    H259700   0.149   1.011  83.299  0.8984  0.0982 -0.6012
12737TIP3   OH259701   0.320   1.597  13.636  0.3446 -0.1710  0.1152
12737TIP3    H159702   0.276   1.673  13.598 -2.3976 -2.4078 -1.5920
12737TIP3    H259703   0.291   1.595  13.727 -1.3814 -0.3068 -0.3919
12738TIP3   OH259704   0.598   0.865   7.064  0.2220 -0.6846  0.4835
12738TIP3    H159705   0.524   0.805   7.056 -0.7784  0.5718 -0.2153
12738TIP3    H259706   0.619   0.865   7.158 -1.9573  0.3551  1.0432
12739TIP3   OH259707   1.137   2.066  97.197 -0.1248 -0.1242 -0.0641
12739TIP3    H159708   1.151   2.101  97.109  0.6139  0.1174  0.1424
12739TIP3    H259709   1.055   2.017  97.190 -0.6034  0.7212 -0.6398
12740TIP3   OH259710   2.482   0.633  74.252  0.4350 -0.2857 -0.2326
12740TIP3    H159711   2.533   0.580  74.313  0.0306 -1.2302 -0.6911
12740TIP3    H259712   2.427   0.689  74.307 -0.1452 -1.3338  0.2805
12741TIP3   OH259713   1.532   1.903  76.066 -0.6273 -0.3791 -0.0223
12741TIP3    H159714   1.624   1.878  76.059 -0.9703 -2.2981  1.3455
12741TIP3    H259715   1.510   1.887  76.158 -2.2311  0.3785 -0.2396
12742TIP3   OH259716   1.968   1.605  21.889  0.0034  0.5043 -0.0683
12742TIP3    H159717   2.002   1.674  21.946  0.8765  0.3678 -0.4021
12742TIP3    H259718   1.886   1.641  21.854  1.2453  2.0886 -1.5237
12743TIP3   OH259719   1.980   2.049  93.081 -0.1603  0.2629  0.0450
12743TIP3    H159720   2.029   1.975  93.117  0.6299 -0.2573 -1.9340
12743TIP3    H259721   1.978   2.032  92.986 -0.8770  2.2535 -0.3442
12744TIP3   OH259722   2.659   0.679  89.701  0.2138 -0.2504  0.4518
12744TIP3    H159723   2.745   0.692  89.661 -0.4939  0.6885 -0.8440
12744TIP3    H259724   2.602   0.741  89.656 -1.4143 -1.6846  0.4268
12745TIP3   OH259725   1.890   2.568  14.138 -0.0098 -0.9092 -0.2609
12745TIP3    H159726   1.967   2.574  14.082  1.4009 -0.3521  1.6432
12745TIP3    H259727   1.852   2.656  14.135  0.0429 -0.8901 -0.3750
12746TIP3   OH259728   1.144   1.001 111.406 -0.1519  0.4311 -0.8796
12746TIP3    H159729   1.082   1.016 111.477 -1.3393  0.0670 -1.8042
12746TIP3    H259730   1.189   1.085 111.395  1.0891  0.1096  1.2034
12747TIP3   OH259731   0.609   1.219  95.551  0.9157  0.0581 -0.0137
12747TIP3    H159732   0.668   1.277  95.504  2.2633 -0.5939  0.8042
12747TIP3    H259733   0.665   1.147  95.581 -0.1086 -0.1381  1.5595
12748TIP3   OH259734   1.896   1.190  63.431  0.1819 -0.2005 -0.0880
12748TIP3    H159735   1.847   1.114  63.401 -0.4817  0.5480 -0.9594
12748TIP3    H259736   1.864   1.207  63.519 -0.4223 -0.3057 -0.2879
12749TIP3   OH259737   0.796   1.972  36.424  0.4006  0.2762  0.0155
12749TIP3    H159738   0.784   2.001  36.334  0.3491 -0.0199 -0.0734
12749TIP3    H259739   0.853   1.896  36.417 -1.8374 -1.4762 -0.0318
12750TIP3   OH259740   1.298   1.388  79.645  0.2847  0.4548 -0.3809
12750TIP3    H159741   1.296   1.347  79.732  1.4945  0.9204 -0.1072
12750TIP3    H259742   1.252   1.326  79.588  1.0876 -0.7494  0.2320
12751TIP3   OH259743   0.190   0.053  34.038 -0.2103  0.2761  0.4102
12751TIP3    H159744   0.188   0.007  34.122 -2.0694 -0.3292  0.0967
12751TIP3    H259745   0.167  -0.015  33.974  0.3036  0.9262 -0.4808
12752TIP3   OH259746   1.638   1.549  15.646  0.2573  0.9056 -0.0038
12752TIP3    H159747   1.689   1.629  15.659 -0.6247  1.6015 -0.6625
12752TIP3    H259748   1.547   1.579  15.638  0.1498  0.1221 -2.6761
12753TIP3   OH259749   1.244   0.489 110.905 -0.1160 -0.8050  0.0643
12753TIP3    H159750   1.219   0.398 110.894  1.0086 -0.9810 -1.4046
12753TIP3    H259751   1.162   0.538 110.898 -0.4297 -1.5298 -1.9123
12754TIP3   OH259752   0.867   0.989   9.421  0.1746  0.1714 -0.4998
12754TIP3    H159753   0.825   0.964   9.339  0.1702  0.5392 -0.6130
12754TIP3    H259754   0.943   0.932   9.427 -1.2679 -1.7499  0.5872
12755TIP3   OH259755   0.023   0.069  93.384 -0.3001  0.2279  0.0336
12755TIP3    H159756  -0.063   0.084  93.345 -0.0657 -2.0524 -1.6121
12755TIP3    H259757   0.028  -0.026  93.394  1.3792  0.4411  1.7177
12756TIP3   OH259758   2.238   1.835  86.472  0.2783 -0.3429 -0.5567
12756TIP3    H159759   2.231   1.744  86.502 -0.1989 -0.1035  0.0699
12756TIP3    H259760   2.317   1.868  86.514  0.4195 -0.4445 -0.7403
12757TIP3   OH259761   2.182   1.885  93.156  0.1404 -0.0089 -0.1065
12757TIP3    H159762   2.203   1.927  93.239  2.2810  1.2923 -1.2200
12757TIP3    H259763   2.213   1.795  93.166 -0.0704 -0.0060  0.6486
12758TIP3   OH259764   1.603   1.397  87.668  0.1743  0.1821 -0.2729
12758TIP3    H159765   1.593   1.397  87.763  1.6097  0.9460 -0.1010
12758TIP3    H259766   1.583   1.487  87.642  0.9607  0.2785 -0.5527
12759TIP3   OH259767   0.218   0.845  29.622  0.4409  0.0353 -0.3848
12759TIP3    H159768   0.303   0.801  29.626 -0.3585 -1.4902  1.2874
12759TIP3    H259769   0.167   0.805  29.692 -1.5602  1.1721 -1.1076
12760TIP3   OH259770   0.694   0.573  84.541 -0.1924 -0.0489 -0.1267
12760TIP3    H159771   0.712   0.649  84.487  3.1849 -1.1554 -0.7700
12760TIP3    H259772   0.716   0.498  84.486  2.9002 -1.2404  2.4253
12761TIP3   OH259773   2.038   2.674  10.358  0.3030 -0.4007  0.3446
12761TIP3    H159774   2.057   2.690  10.451 -0.5038  1.2267  0.2727
12761TIP3    H259775   1.946   2.699  10.348  0.4920 -0.1663 -0.9668
12762TIP3   OH259776   0.355   2.575  18.595 -0.1544 -0.0784  0.2194
12762TIP3    H159777   0.304   2.587  18.516  0.8941 -1.4437 -0.7028
12762TIP3    H259778   0.346   2.482  18.616  0.8428 -0.0578  0.7996
12763TIP3   OH259779   1.957   2.400 108.160 -0.2619  0.0973  0.1914
12763TIP3    H159780   2.020   2.354 108.105  1.0695 -0.0068  1.7128
12763TIP3    H259781   1.872   2.365 108.135  0.4399 -0.9748 -0.7740
12764TIP3   OH259782   1.854   1.083  89.715  0.3142  0.1011  0.2797
12764TIP3    H159783   1.777   1.131  89.684 -0.5920 -0.1273  2.0265
12764TIP3    H259784   1.923   1.149  89.718 -0.2234  0.6838  0.1400
12765TIP3   OH259785   0.611   2.511   2.220  0.0859  0.2070  0.5560
12765TIP3    H159786   0.580   2.457   2.146  0.0436  0.2968  0.5071
12765TIP3    H259787   0.618   2.599   2.183 -1.0063  0.4749  0.9354
12766TIP3   OH259788   2.044   1.368  21.186  0.3678  0.2437  0.0788
12766TIP3    H159789   2.075   1.279  21.171  0.9715  0.2470  1.2335
12766TIP3    H259790   1.993   1.362  21.267  0.5868  0.9836  0.2758
12767TIP3   OH259791   1.275   1.483 106.797 -0.0423 -0.1154  0.2024
12767TIP3    H159792   1.186   1.448 106.802 -0.3824  0.7811  0.6823
12767TIP3    H259793   1.269   1.553 106.732  0.9299 -1.7279 -1.7487
12768TIP3   OH259794   1.864   2.470   5.123  0.2057  0.1149  0.2500
12768TIP3    H159795   1.867   2.565   5.111  0.5261  0.0765  0.0170
12768TIP3    H259796   1.793   2.456   5.185  1.1956  0.6528  1.5622
12769TIP3   OH259797   2.028   0.629   2.310  0.6152 -0.4965  0.0109
12769TIP3    H159798   2.021   0.534   2.322  2.3779 -0.5070  1.2038
12769TIP3    H259799   2.026   0.641   2.215 -2.3309 -1.4349 -0.1731
12770TIP3   OH259800   2.632   1.150 111.254  0.3201 -0.1180 -0.1048
12770TIP3    H159801   2.544   1.157 111.290  1.1771  1.1354  1.8967
12770TIP3    H259802   2.644   1.230 111.203  0.6391  0.2107  0.4760
12771TIP3   OH259803   0.082   0.979 105.633 -0.2514  0.5356  0.2815
12771TIP3    H159804   0.103   0.889 105.607 -1.0940  0.2310  0.6191
12771TIP3    H259805   0.057   0.973 105.725 -1.5218  0.8993 -0.0153
12772TIP3   OH259806   0.706   2.392  85.639 -0.1771  0.4552  0.0054
12772TIP3    H159807   0.789   2.350  85.664  0.1053  0.4642 -0.9015
12772TIP3    H259808   0.656   2.323  85.596  0.0418  0.8826 -0.9441
12773TIP3   OH259809   0.931   2.518  28.693 -0.4277  0.5095  0.5007
12773TIP3    H159810   0.992   2.592  28.684  0.7189 -0.2896  1.3249
12773TIP3    H259811   0.940   2.490  28.785  0.0708 -1.3744 -0.0712
12774TIP3   OH259812   1.690   0.259  83.605  0.4529 -0.2458 -0.3236
12774TIP3    H159813   1.748   0.227  83.536  0.9122 -0.7546  0.2767
12774TIP3    H259814   1.683   0.185  83.666 -1.6730 -0.5712 -0.8834
12775TIP3   OH259815   1.831   1.851  31.417  0.4152 -0.3624  0.4268
12775TIP3    H159816   1.816   1.762  31.448  1.7010 -0.7915 -0.1195
12775TIP3    H259817   1.873   1.840  31.332  0.0858  0.7776  0.0992
12776TIP3   OH259818   2.146   0.270 103.785 -0.5589  0.3799  0.4172
12776TIP3    H159819   2.185   0.184 103.799 -1.2472 -0.4574 -2.1119
12776TIP3    H259820   2.166   0.290 103.693 -1.8204  2.1619  0.4809
12777TIP3   OH259821   0.843   2.249 100.221 -0.1885 -0.1371  0.3549
12777TIP3    H159822   0.814   2.335 100.249 -0.2416  0.2717 -0.9054
12777TIP3    H259823   0.938   2.249 100.236 -0.0858  0.3940 -0.2567
12778TIP3   OH259824   2.221   1.403  37.001 -0.1656 -0.2879  0.3736
12778TIP3    H159825   2.180   1.458  37.068 -0.0122  1.5489 -0.9800
12778TIP3    H259826   2.224   1.458  36.923  2.4253 -1.3021 -0.3258
12779TIP3   OH259827   2.265   1.237  96.438 -0.3207 -0.2798 -0.3660
12779TIP3    H159828   2.304   1.240  96.526 -0.2466  1.5768 -0.4155
12779TIP3    H259829   2.323   1.290  96.384 -0.7297 -0.8524 -1.3943
12780TIP3   OH259830   2.263   0.735  30.284  0.2402 -0.0604 -0.8050
12780TIP3    H159831   2.195   0.736  30.352 -0.3196  0.6320 -1.3511
12780TIP3    H259832   2.296   0.645  30.284  0.7756  0.1064  0.8810
12781TIP3   OH259833   0.706   0.288  20.591  0.2247 -0.1340  0.2340
12781TIP3    H159834   0.617   0.272  20.558  0.3405  0.8576 -0.6032
12781TIP3    H259835   0.703   0.377  20.625  0.8290 -0.2031  0.4767
12782TIP3   OH259836   2.685   0.888  83.706 -0.2931 -0.2830 -0.0502
12782TIP3    H159837   2.770   0.852  83.680  0.1138 -0.2373  1.1187
12782TIP3    H259838   2.676   0.862  83.798 -1.5254 -0.2333 -0.1419
12783TIP3   OH259839   1.270   2.215   7.705  0.3109 -0.0412  0.6027
12783TIP3    H159840   1.342   2.195   7.646 -0.4527  1.2164 -0.8121
12783TIP3    H259841   1.223   2.287   7.663 -1.5317 -0.5380  1.6971
12784TIP3   OH259842   0.845   0.847  96.363  0.0959  0.0643 -0.4183
12784TIP3    H159843   0.773   0.788  96.386  0.2242  0.0520 -0.0417
12784TIP3    H259844   0.871   0.887  96.446 -0.1353  0.8235 -0.7038
12785TIP3   OH259845   1.569   1.313  18.916 -0.3791  0.2516 -0.2558
12785TIP3    H159846   1.546   1.401  18.887  0.7821  0.2573 -1.2284
12785TIP3    H259847   1.517   1.299  18.995 -1.3325  1.4152 -0.6546
12786TIP3   OH259848   2.170   0.188   3.401 -0.6472  0.3487  0.0355
12786TIP3    H159849   2.147   0.225   3.316 -0.0094 -1.7601 -1.1431
12786TIP3    H259850   2.125   0.103   3.403 -0.4297  0.2389  1.7052
12787TIP3   OH259851   1.574   0.349   9.460  0.4479  0.1999  0.4345
12787TIP3    H159852   1.560   0.255   9.471 -2.7513  0.6025  0.6863
12787TIP3    H259853   1.655   0.367   9.508  1.4825 -2.4810 -0.1430
12788TIP3   OH259854   1.857   1.554  35.587  0.1777 -0.2064 -0.3720
12788TIP3    H159855   1.894   1.466  35.596 -0.4435 -0.4254  0.0664
12788TIP3    H259856   1.931   1.607  35.557  1.1069 -0.4519  1.3220
12789TIP3   OH259857   0.098   0.228  90.692 -0.0870 -0.2018  0.1240
12789TIP3    H159858   0.126   0.226  90.783 -1.7836 -0.2637  0.6916
12789TIP3    H259859   0.076   0.137  90.671  0.5816 -0.2389 -0.4619
12790TIP3   OH259860   1.172   0.250 102.922 -0.1960  0.1312  0.0365
12790TIP3    H159861   1.114   0.319 102.891  1.1420  0.7727 -1.1274
12790TIP3    H259862   1.216   0.218 102.843  3.0979  1.5925  1.1289
12791TIP3   OH259863   1.075   0.869   9.059 -0.0212  0.1993 -0.4168
12791TIP3    H159864   1.004   0.850   9.120 -1.2859 -0.9654 -2.1500
12791TIP3    H259865   1.109   0.783   9.035  0.0939  0.5848 -1.7245
12792TIP3   OH259866   0.173   1.927  33.775  0.4721 -0.4008 -0.0315
12792TIP3    H159867   0.207   1.870  33.705 -1.9977 -0.5068 -1.2550
12792TIP3    H259868   0.184   1.875  33.855  0.4423 -1.6227 -0.7834
12793TIP3   OH259869   0.451   2.014  31.764  0.4121  0.4542 -0.1258
12793TIP3    H159870   0.425   2.104  31.746 -0.4435  0.1613 -0.4049
12793TIP3    H259871   0.387   1.961  31.716  1.9346 -0.3013 -1.4359
12794TIP3   OH259872   1.376   2.249  10.827  0.3566 -0.1054 -0.2505
12794TIP3    H159873   1.382   2.259  10.732  0.5821 -1.0475 -0.3382
12794TIP3    H259874   1.388   2.156  10.843  1.1575  0.1487  0.7637
12795TIP3   OH259875   0.294   1.776 107.303 -0.1906 -0.6202  0.3573
12795TIP3    H159876   0.250   1.769 107.218 -0.7499  1.1629  0.4530
12795TIP3    H259877   0.386   1.787 107.282 -0.3942  0.3935 -0.0698
12796TIP3   OH259878   0.680   2.406  21.083  0.3310  0.0739 -0.1653
12796TIP3    H159879   0.742   2.390  21.154 -0.5256 -0.1478  0.5518
12796TIP3    H259880   0.628   2.481  21.112 -0.3769 -0.3484 -0.2917
12797TIP3   OH259881   2.562   2.617  35.236  0.1511 -0.6376  0.2219
12797TIP3    H159882   2.591   2.691  35.183  1.2216 -0.9479  0.3553
12797TIP3    H259883   2.513   2.562  35.174 -0.5754  0.1306  0.1077
12798TIP3   OH259884   0.093   2.574   1.195 -0.1686 -0.0117  0.5586
12798TIP3    H159885   0.037   2.563   1.118  0.6907 -1.1948  0.0743
12798TIP3    H259886   0.049   2.642   1.247 -0.2388  1.5792 -1.4487
12799TIP3   OH259887   2.123   1.761  85.965  0.2853  0.2309 -0.4077
12799TIP3    H159888   2.032   1.772  85.990 -0.2711 -0.6927 -1.8414
12799TIP3    H259889   2.142   1.669  85.985  1.2637  0.7075  0.9196
12800TIP3   OH259890   1.596   0.859  13.041  0.0491 -0.1108  0.0391
12800TIP3    H159891   1.576   0.926  13.106 -2.0814 -0.8404  0.2168
12800TIP3    H259892   1.573   0.898  12.957  0.9262  0.1363 -0.0963
12801TIP3   OH259893   1.351   0.366 108.375 -0.4799  0.3343  0.0425
12801TIP3    H159894   1.331   0.339 108.465 -2.4173  0.2072 -0.3775
12801TIP3    H259895   1.301   0.305 108.321  1.5017 -0.2838 -1.2065
12802TIP3   OH259896   1.430   0.187  85.634  0.4785 -0.2153 -0.2283
12802TIP3    H159897   1.396   0.252  85.574 -0.5671 -0.1047  0.4592
12802TIP3    H259898   1.363   0.179  85.702  0.3661 -2.3089 -0.5189
12803TIP3   OH259899   2.543   0.264 106.778 -0.3122  0.1083 -0.0762
12803TIP3    H159900   2.490   0.339 106.752  2.0325  2.0677  0.3798
12803TIP3    H259901   2.591   0.239 106.699  0.0047  0.0536  0.1261
12804TIP3   OH259902   1.490   1.696  28.777  0.1320  0.1563 -0.4720
12804TIP3    H159903   1.403   1.735  28.785  0.5041  0.9438 -0.1705
12804TIP3    H259904   1.502   1.682  28.683  0.9983  3.1685 -0.8945
12805TIP3   OH259905   2.046   1.404  86.526 -0.2392 -0.2048 -0.2137
12805TIP3    H159906   1.997   1.338  86.576  0.4777 -0.6834 -0.1307
12805TIP3    H259907   1.978   1.453  86.479 -0.7855 -0.9746 -0.2552
12806TIP3   OH259908   0.980   0.008 106.517 -0.3747 -0.2065 -0.0674
12806TIP3    H159909   1.003   0.100 106.523 -0.0581 -0.3804  2.3135
12806TIP3    H259910   1.051  -0.032 106.467  0.0133  0.6730 -0.2261
12807TIP3   OH259911   0.618   0.302 108.825  0.0574  0.1065  0.2146
12807TIP3    H159912   0.709   0.332 108.829 -0.1455  0.6426  1.1473
12807TIP3    H259913   0.624   0.207 108.838  0.5187  0.0637 -0.2642
12808TIP3   OH259914   2.590   1.555  97.858 -0.2058  0.2852 -0.3808
12808TIP3    H159915   2.529   1.567  97.931  2.5261  0.6847  2.0544
12808TIP3    H259916   2.614   1.462  97.863 -0.2758  0.2333 -1.0193
12809TIP3   OH259917   0.386   1.143  16.662 -0.0619 -0.1443 -0.1681
12809TIP3    H159918   0.333   1.220  16.680 -0.0608 -0.5824  1.8552
12809TIP3    H259919   0.455   1.145  16.728  0.0425 -1.7894 -0.1962
12810TIP3   OH259920   2.428   0.535  73.835  0.1603 -0.3047  0.7859
12810TIP3    H159921   2.396   0.536  73.925  0.7010 -0.2600  0.9798
12810TIP3    H259922   2.366   0.590  73.787  0.3066  0.3140  1.2844
12811TIP3   OH259923   2.333   2.361  36.651  0.3085 -0.1821  0.2730
12811TIP3    H159924   2.320   2.453  36.673 -0.3372 -0.5085  1.3205
12811TIP3    H259925   2.382   2.325  36.725 -0.1260 -0.8632  0.2355
12812TIP3   OH259926   0.973   1.208   3.791 -0.4513 -0.1931 -0.1912
12812TIP3    H159927   1.007   1.186   3.878 -0.0937 -0.5479 -0.4161
12812TIP3    H259928   1.041   1.261   3.751 -0.5281 -0.1979 -0.3287
12813TIP3   OH259929   2.097   0.342   3.184  0.0303  0.1644  0.2262
12813TIP3    H159930   2.164   0.321   3.120 -0.5885 -1.6692  0.1379
12813TIP3    H259931   2.028   0.386   3.133  0.2556  0.1992 -0.0498
12814TIP3   OH259932   0.165   2.639  38.191 -0.3189 -0.3064  0.1117
12814TIP3    H159933   0.212   2.720  38.175 -1.0512 -0.1383 -1.3521
12814TIP3    H259934   0.078   2.667  38.221 -0.0477 -0.5897  1.2064
12815TIP3   OH259935   0.823   2.606   5.616  0.0264  0.1821  0.1584
12815TIP3    H159936   0.767   2.675   5.581  1.7090  0.8919 -1.2446
12815TIP3    H259937   0.789   2.526   5.577 -0.0600  0.5855 -0.6122
12816TIP3   OH259938   0.205   2.170  22.994 -0.8281 -0.1079  0.0578
12816TIP3    H159939   0.256   2.110  22.939  0.8540  1.3830 -0.1301
12816TIP3    H259940   0.146   2.213  22.933 -0.7319 -0.2528 -0.1403
12817TIP3   OH259941   1.666   1.654  22.080 -0.2542  0.1584 -0.6936
12817TIP3    H159942   1.650   1.733  22.131  2.9997 -0.2624  1.2948
12817TIP3    H259943   1.700   1.685  21.996  1.0620  0.9773  0.0982
12818TIP3   OH259944   0.759   1.966  23.000  0.2360  0.0608 -0.3112
12818TIP3    H159945   0.703   1.974  23.077  2.2359  0.1597  1.2189
12818TIP3    H259946   0.786   1.874  22.999 -0.1962 -0.0692 -1.2388
12819TIP3   OH259947   1.523   1.143  82.805 -0.1421 -0.0407 -0.1753
12819TIP3    H159948   1.470   1.069  82.835 -0.8956  0.6550  0.2558
12819TIP3    H259949   1.558   1.182  82.885 -1.5447  1.3701 -0.2001
12820TIP3   OH259950   2.400   2.003  78.827  0.0865 -0.1974  0.1356
12820TIP3    H159951   2.335   1.936  78.805  0.0914 -0.1891  0.0946
12820TIP3    H259952   2.471   1.991  78.765  0.4906 -0.7302  0.6926
12821TIP3   OH259953   2.371   1.006  25.331 -0.3004 -0.0783 -0.4021
12821TIP3    H159954   2.286   0.963  25.323  0.2417 -1.2937  0.0765
12821TIP3    H259955   2.356   1.096  25.302 -1.8360 -0.1650  0.0531
12822TIP3   OH259956   1.344   0.161 103.125  0.0893  0.1215 -0.1623
12822TIP3    H159957   1.392   0.084 103.092  0.2793  0.3602 -0.4459
12822TIP3    H259958   1.268   0.167 103.068 -0.2034 -0.1716  0.1979
12823TIP3   OH259959   2.055   1.739   1.591  0.2674 -0.3615 -0.1630
12823TIP3    H159960   2.100   1.656   1.572 -0.6893 -1.1954  1.0309
12823TIP3    H259961   2.104   1.777   1.664  0.6703  0.1145 -0.6715
12824TIP3   OH259962   1.373   0.345  83.550 -0.8966  0.0603  0.1252
12824TIP3    H159963   1.465   0.333  83.570 -0.9384  0.3791  0.5337
12824TIP3    H259964   1.372   0.379  83.461 -0.6430 -0.3054 -0.0173
12825TIP3   OH259965   1.275   0.358  99.367 -0.1039 -0.0320 -0.3066
12825TIP3    H159966   1.187   0.337  99.400 -1.3169  0.5042 -2.9911
12825TIP3    H259967   1.278   0.453  99.365  0.0053 -0.0551 -1.5211
12826TIP3   OH259968   0.572   0.518  67.750  0.8449  0.0491 -0.0685
12826TIP3    H159969   0.554   0.598  67.700  0.3372 -0.4560 -0.7194
12826TIP3    H259970   0.538   0.536  67.838 -0.4748  0.0814 -0.5664
12827TIP3   OH259971   0.982   0.569  13.456  0.1399  0.6425  0.1232
12827TIP3    H159972   0.925   0.569  13.379  0.5441 -0.3837 -0.2035
12827TIP3    H259973   0.923   0.555  13.530 -0.1076  0.2123 -0.1490
12828TIP3   OH259974   0.989   0.346  11.883  0.0347 -0.0104  0.2064
12828TIP3    H159975   0.996   0.253  11.860 -1.1324 -0.3521  1.0702
12828TIP3    H259976   0.985   0.392  11.799 -0.1435 -0.8218 -0.2394
12829TIP3   OH259977   2.432   2.507   1.311 -0.3891 -0.0905  0.0372
12829TIP3    H159978   2.427   2.590   1.265  1.4652 -0.4034 -0.7957
12829TIP3    H259979   2.427   2.441   1.242 -0.6955 -0.6602  0.5928
12830TIP3   OH259980   1.720   1.586  29.288  0.1133 -0.0687 -0.4325
12830TIP3    H159981   1.638   1.566  29.242 -0.6082  1.6145  0.0526
12830TIP3    H259982   1.739   1.678  29.265  0.6129  0.2998  1.3085
12831TIP3   OH259983   1.983   1.948  97.185 -0.3265 -0.1595  0.1019
12831TIP3    H159984   2.060   1.975  97.136 -1.1767  1.1327 -0.5909
12831TIP3    H259985   1.909   1.972  97.129 -1.2547 -1.0563  0.8837
12832TIP3   OH259986   0.470   0.838  91.483  0.0988 -0.0916  0.1325
12832TIP3    H159987   0.471   0.742  91.482  2.7359 -0.2001  1.7337
12832TIP3    H259988   0.516   0.864  91.404  1.4052 -0.2757  0.8025
12833TIP3   OH259989   0.256   2.292  30.977 -0.4506 -0.3888  0.1947
12833TIP3    H159990   0.186   2.250  30.927  0.1270 -1.1565  0.0066
12833TIP3    H259991   0.250   2.385  30.954 -1.4458 -0.4320  0.2421
12834TIP3   OH259992   2.681   2.483  32.055  0.1971  0.0511  0.0596
12834TIP3    H159993   2.600   2.499  32.103  0.2252 -0.6193  0.3414
12834TIP3    H259994   2.742   2.452  32.121 -0.3159 -2.7634 -0.6716
12835TIP3   OH259995   2.348   0.090  58.628  0.5530  0.3122  0.2281
12835TIP3    H159996   2.363   0.065  58.718 -1.1614 -0.3737  0.3635
12835TIP3    H259997   2.418   0.153  58.608  1.6675 -0.4394  1.6169
12836TIP3   OH259998   0.143   0.707 105.864  0.1090 -0.1282 -0.0336
12836TIP3    H159999   0.168   0.616 105.885  0.1040  0.0814  0.9473
12836TIP3    H260000   0.117   0.744 105.948  1.2455  1.1410 -0.2103
12837TIP3   OH260001   1.652   1.563  76.365  0.3035 -0.2668 -0.5083
12837TIP3    H160002   1.671   1.602  76.280 -0.7301  1.0514 -0.1773
12837TIP3    H260003   1.736   1.528  76.395  0.7277 -0.5212 -1.9398
12838TIP3   OH260004   1.563   0.884  35.688  0.0959 -0.5014  0.2701
12838TIP3    H160005   1.623   0.945  35.730 -0.1926 -0.0807  0.0743
12838TIP3    H260006   1.594   0.798  35.715  0.9489 -0.3036 -0.0499
12839TIP3   OH260007   1.226   2.365  25.101  0.6543  0.1400 -0.2179
12839TIP3    H160008   1.236   2.386  25.008 -1.7587  0.8489 -0.3782
12839TIP3    H260009   1.153   2.302  25.103  1.2921 -0.5954  1.1332
12840TIP3   OH260010   0.615   2.376  10.448 -1.0512 -0.2276 -0.2760
12840TIP3    H160011   0.635   2.283  10.444 -0.8724 -0.1576 -1.7733
12840TIP3    H260012   0.650   2.411  10.366  1.2760  1.6530  1.3894
12841TIP3   OH260013   0.997   0.058  79.259 -0.0856 -0.8898  0.6040
12841TIP3    H160014   0.963  -0.026  79.227 -1.6914 -0.1291  0.1780
12841TIP3    H260015   1.088   0.040  79.282  0.3318 -2.1653 -1.7455
12842TIP3   OH260016   1.812   2.221   3.097 -0.1276  0.0714  0.0547
12842TIP3    H160017   1.838   2.145   3.148  1.0735  1.1515  1.1236
12842TIP3    H260018   1.812   2.191   3.006  0.1913 -1.2220  0.4640
12843TIP3   OH260019   1.990   0.826  85.871 -0.2545  0.4626 -0.5564
12843TIP3    H160020   2.043   0.788  85.940  1.2582 -2.4719 -3.1037
12843TIP3    H260021   1.900   0.801  85.892  0.2319 -0.7429  0.1423
12844TIP3   OH260022   0.165   1.267 104.272  0.0526  0.1630 -0.2625
12844TIP3    H160023   0.116   1.290 104.193 -1.9061 -0.8821  0.5685
12844TIP3    H260024   0.195   1.177 104.257 -0.0193  0.0878  0.0263
12845TIP3   OH260025   1.975   2.434  86.149  0.4366 -0.1057 -0.6428
12845TIP3    H160026   2.026   2.505  86.110  0.5270  0.1913 -0.0021
12845TIP3    H260027   2.031   2.357  86.139 -0.4687 -0.5390 -3.1088
12846TIP3   OH260028   0.339   1.004  28.127  0.0482  0.4883  0.0571
12846TIP3    H160029   0.318   0.942  28.197 -1.0593  0.8741  0.0941
12846TIP3    H260030   0.268   1.068  28.130 -0.5798 -0.0398 -2.0738
12847TIP3   OH260031   1.217   0.612  94.859 -0.6742 -0.1300 -0.0025
12847TIP3    H160032   1.265   0.624  94.777 -2.1130  0.9326 -0.7190
12847TIP3    H260033   1.146   0.552  94.836 -0.6652 -0.3983  0.6562
12848TIP3   OH260034   1.419   1.368  77.355  0.9550 -0.2175 -0.2204
12848TIP3    H160035   1.417   1.441  77.416 -0.3980  0.1035 -0.6165
12848TIP3    H260036   1.410   1.408  77.269  0.6381 -0.8145 -0.4716
12849TIP3   OH260037   0.382   2.376 110.553 -0.2093 -0.2436 -0.1385
12849TIP3    H160038   0.304   2.404 110.507 -0.6050 -1.3595 -0.1766
12849TIP3    H260039   0.454   2.394 110.493 -0.4073  0.8815 -0.0590
12850TIP3   OH260040   2.055   1.845  81.039 -0.1613  0.3817  0.4570
12850TIP3    H160041   2.014   1.806  81.115 -0.4576  0.1094  0.1594
12850TIP3    H260042   2.004   1.814  80.965  0.6634 -0.0854  0.0658
12851TIP3   OH260043   0.257   1.800  92.562 -0.4138  0.2122  0.0523
12851TIP3    H160044   0.202   1.858  92.614  0.9325  3.2339 -1.6367
12851TIP3    H260045   0.254   1.716  92.608 -4.4531  0.8441  1.3010
12852TIP3   OH260046   2.298   0.825 107.552  0.2106  0.2042  0.1292
12852TIP3    H160047   2.260   0.747 107.593 -0.3759  0.3188 -0.1981
12852TIP3    H260048   2.348   0.791 107.478  0.0723  0.1243  0.0723
12853TIP3   OH260049   0.914   0.395  22.343  0.0798  0.4162 -0.3431
12853TIP3    H160050   1.010   0.396  22.342  0.1673 -2.0564 -0.2675
12853TIP3    H260051   0.890   0.319  22.289 -1.7068 -0.5925  1.7023
12854TIP3   OH260052   1.875   2.459 100.303 -0.0868 -0.2131 -0.2293
12854TIP3    H160053   1.822   2.464 100.382  1.3736 -1.0238  0.8343
12854TIP3    H260054   1.923   2.542 100.300  0.2466 -0.3952  0.0212
12855TIP3   OH260055   2.380   0.798  76.374 -0.9634 -0.0800  0.1358
12855TIP3    H160056   2.390   0.889  76.343 -2.0605  0.0007 -0.0093
12855TIP3    H260057   2.341   0.752  76.300 -0.3464 -0.6919  0.1809
12856TIP3   OH260058   1.277   2.124  16.390  0.9514 -0.4227  0.2943
12856TIP3    H160059   1.218   2.151  16.461  0.7406  0.1290 -0.0870
12856TIP3    H260060   1.264   2.029  16.383  0.2217 -0.3302  0.3216
12857TIP3   OH260061   1.133   0.040  22.236 -0.8760  0.0439 -0.1293
12857TIP3    H160062   1.079  -0.039  22.238  1.0117 -1.4837 -2.7355
12857TIP3    H260063   1.107   0.085  22.155 -1.0442  1.4680  0.6785
12858TIP3   OH260064   0.277   0.285  86.794 -0.4603 -0.0240 -0.4259
12858TIP3    H160065   0.335   0.304  86.720  1.4420  0.6654  1.1517
12858TIP3    H260066   0.315   0.207  86.835 -2.3290 -1.2899 -0.9250
12859TIP3   OH260067   0.166   2.507  16.322 -0.2742 -0.0420 -0.2103
12859TIP3    H160068   0.187   2.525  16.414 -1.9076  1.0236 -0.0035
12859TIP3    H260069   0.251   2.509  16.278  0.3276  1.7123  0.9116
12860TIP3   OH260070   1.243   2.160  90.621  0.3238  0.0599 -0.2752
12860TIP3    H160071   1.207   2.238  90.664  0.3771  0.1418 -0.3808
12860TIP3    H260072   1.165   2.113  90.589  0.1956 -0.6407  0.9850
12861TIP3   OH260073   2.071   1.720  33.607 -0.3368  0.1884  0.2075
12861TIP3    H160074   2.087   1.814  33.619  0.5113 -0.0690  1.2460
12861TIP3    H260075   2.157   1.684  33.586 -0.7688 -0.2809 -0.8023
12862TIP3   OH260076   1.928   0.403  11.109 -0.9038  0.3916  0.1677
12862TIP3    H160077   1.923   0.376  11.017  1.0146  0.9454 -0.1289
12862TIP3    H260078   1.889   0.491  11.110 -1.6954  0.0560  0.0658
12863TIP3   OH260079   0.973   0.701   0.041 -0.3147 -0.0854  0.2564
12863TIP3    H160080   0.970   0.732   0.132  0.5651 -2.4341  1.1739
12863TIP3    H260081   1.067   0.699   0.020 -0.5596  2.4314 -1.5321
12864TIP3   OH260082   0.175   1.494  31.886 -0.4548 -0.5745 -0.2130
12864TIP3    H160083   0.256   1.445  31.873 -1.0050 -1.4541 -0.4133
12864TIP3    H260084   0.111   1.448  31.832 -1.3649 -0.6279  0.8758
12865TIP3   OH260085   1.892   1.631 102.612  0.2700 -0.4308  0.1506
12865TIP3    H160086   1.971   1.653 102.562  0.2901  1.1818  0.8314
12865TIP3    H260087   1.912   1.546 102.652  1.7156  0.0067  0.4162
12866TIP3   OH260088   0.893   2.466  90.548 -0.2493 -0.0708 -0.3913
12866TIP3    H160089   0.908   2.407  90.474  1.9281 -0.2799  0.1320
12866TIP3    H260090   0.908   2.553  90.512  1.8525 -0.2291 -0.0603
12867TIP3   OH260091   0.155   0.234   2.148 -0.0792 -0.3613 -0.2822
12867TIP3    H160092   0.149   0.282   2.231  1.6349 -2.3500  1.1301
12867TIP3    H260093   0.240   0.260   2.112 -0.1905 -0.5530 -0.6830
12868TIP3   OH260094   1.981   0.234  16.945  0.0326  0.0594  0.2819
12868TIP3    H160095   1.962   0.325  16.967  1.2974  0.4241 -0.0390
12868TIP3    H260096   2.073   0.223  16.971 -0.0769 -1.0866  0.2015
12869TIP3   OH260097   0.294   1.233  74.982  0.1668  0.3043  0.5082
12869TIP3    H160098   0.357   1.305  74.977  0.8044 -0.2744 -0.1492
12869TIP3    H260099   0.294   1.207  75.074 -1.6228  2.4615  1.1857
12870TIP3   OH260100   1.959   2.380  81.616 -0.5058  0.1160 -0.1793
12870TIP3    H160101   1.885   2.346  81.566  0.0212 -1.6909  0.1661
12870TIP3    H260102   2.030   2.386  81.552 -0.9526  1.9665 -0.5346
12871TIP3   OH260103   1.371   2.243 101.714 -0.0664 -0.2568 -0.5770
12871TIP3    H160104   1.356   2.309 101.646  0.5680  0.0340 -0.4470
12871TIP3    H260105   1.311   2.267 101.784  1.0391  0.9799  0.0063
12872TIP3   OH260106   1.119   0.131  28.694 -0.4521 -0.0929 -0.0323
12872TIP3    H160107   1.191   0.092  28.645 -2.1670 -2.0235 -1.1908
12872TIP3    H260108   1.089   0.203  28.638  0.9535  1.2087  0.8011
12873TIP3   OH260109   2.151   1.284  22.949 -0.2850  0.7953  0.0003
12873TIP3    H160110   2.184   1.195  22.936  0.0118  0.7295  1.0780
12873TIP3    H260111   2.104   1.280  23.032  0.8139  1.9185  0.7177
12874TIP3   OH260112   1.285   1.471  17.963 -0.1624  0.3100  0.1632
12874TIP3    H160113   1.273   1.516  18.047 -1.4079  0.7424 -0.2198
12874TIP3    H260114   1.209   1.496  17.911  0.3100 -0.3878 -0.9123
12875TIP3   OH260115   1.301   2.404 108.687  0.1320 -0.7038  0.3493
12875TIP3    H160116   1.322   2.411 108.780  1.4326 -2.6458  0.2542
12875TIP3    H260117   1.294   2.310 108.671 -1.5702 -0.3526 -1.2276
12876TIP3   OH260118   2.318   2.615  36.738  0.1922 -0.1200 -0.2464
12876TIP3    H160119   2.236   2.660  36.757 -0.4120 -1.6530  1.0741
12876TIP3    H260120   2.383   2.662  36.791 -0.0040  0.5192 -0.5627
12877TIP3   OH260121   1.692   0.727  82.848 -0.0421 -0.4625 -0.2839
12877TIP3    H160122   1.709   0.815  82.813  0.3840 -0.5146 -0.2194
12877TIP3    H260123   1.779   0.692  82.867 -0.2241 -0.8050 -0.0767
12878TIP3   OH260124   0.002   1.248  94.687 -0.4875  0.0142  0.0507
12878TIP3    H160125   0.063   1.302  94.737  1.2400 -1.3146 -0.5320
12878TIP3    H260126  -0.004   1.292  94.602 -1.4390  0.8824  0.5452
12879TIP3   OH260127   0.379   0.114 100.093  0.1362 -0.8990 -0.4629
12879TIP3    H160128   0.304   0.124 100.035  1.6657  0.3606 -2.3707
12879TIP3    H260129   0.369   0.185 100.157 -1.0559 -1.6900  0.2639
12880TIP3   OH260130   0.211   0.141  95.594 -0.6266  0.2441 -0.0640
12880TIP3    H160131   0.119   0.139  95.618 -0.2265  1.8890  1.8513
12880TIP3    H260132   0.226   0.231  95.566  0.4490  0.0481 -0.1625
12881TIP3   OH260133   1.380   1.845   2.069 -0.2286 -0.1289 -0.4940
12881TIP3    H160134   1.419   1.879   1.988 -0.1606  2.2785  0.4735
12881TIP3    H260135   1.298   1.893   2.078 -0.2281 -0.3603  0.8853
12882TIP3   OH260136   0.916   1.357  91.265 -0.4696 -0.1057  0.2387
12882TIP3    H160137   0.980   1.416  91.304  0.0637 -0.0626 -0.6722
12882TIP3    H260138   0.854   1.415  91.220  0.1235 -0.2287 -0.7610
12883TIP3   OH260139   1.908   0.800  30.187 -0.4484 -0.0402  0.2788
12883TIP3    H160140   1.936   0.888  30.213 -1.4515 -0.4604  3.2238
12883TIP3    H260141   1.964   0.777  30.113  1.0599  2.3815  0.5659
12884TIP3   OH260142   2.439   0.381  33.044 -0.4085  0.3384  0.5045
12884TIP3    H160143   2.344   0.396  33.048 -0.4717  0.0559  0.0793
12884TIP3    H260144   2.473   0.428  33.120 -1.0263 -0.6737  1.4390
12885TIP3   OH260145   1.064   0.375  84.963  0.2843 -0.1336  0.0374
12885TIP3    H160146   1.006   0.411  84.896 -0.8778  0.6572  1.4179
12885TIP3    H260147   1.014   0.304  85.003  0.8429 -0.3988  0.2846
12886TIP3   OH260148   1.665   2.040   7.774  0.4246  0.5073 -0.0227
12886TIP3    H160149   1.622   2.092   7.706 -0.0077 -1.7650 -1.5972
12886TIP3    H260150   1.593   2.005   7.827  0.3941 -1.2454 -1.1267
12887TIP3   OH260151   2.658   1.464   2.670  0.0473 -0.1284  0.2157
12887TIP3    H160152   2.659   1.413   2.751 -1.2765 -1.5059 -0.5754
12887TIP3    H260153   2.567   1.461   2.641  0.6590 -0.5381 -1.8284
12888TIP3   OH260154   2.538   0.491  95.881  0.1510 -0.0148 -0.2582
12888TIP3    H160155   2.467   0.426  95.882  0.5217 -0.4528  1.7079
12888TIP3    H260156   2.594   0.466  95.954  2.1673  0.5446 -1.5559
12889TIP3   OH260157   1.243   1.930  12.519  0.4540 -0.1536  0.1793
12889TIP3    H160158   1.190   1.874  12.462  0.5914 -0.2469  0.1429
12889TIP3    H260159   1.304   1.974  12.459  2.1265 -1.9491  0.4965
12890TIP3   OH260160   2.126   1.113  96.066 -0.1966 -0.6373  0.3151
12890TIP3    H160161   2.220   1.099  96.073 -0.0239  1.0820  2.4129
12890TIP3    H260162   2.090   1.077  96.147 -1.3474 -1.1528 -0.3966
12891TIP3   OH260163   1.479   1.692  20.306  0.2428  0.0747  0.1037
12891TIP3    H160164   1.459   1.610  20.351  0.7168  0.3721  0.8805
12891TIP3    H260165   1.401   1.746  20.318 -0.8994 -0.9341 -2.1111
12892TIP3   OH260166   2.421   2.649  10.519  0.4274 -0.2132 -0.3044
12892TIP3    H160167   2.390   2.596  10.446  1.6070 -1.0014 -0.2597
12892TIP3    H260168   2.384   2.607  10.597  1.1428 -0.8453 -0.2898
12893TIP3   OH260169   2.411   0.668  14.500 -0.0978 -0.1185  0.1720
12893TIP3    H160170   2.325   0.632  14.520  0.2560 -0.6154  0.8523
12893TIP3    H260171   2.445   0.612  14.430 -0.1222 -0.2272  0.2475
12894TIP3   OH260172   2.640   1.639  21.437 -0.1282 -0.0152 -0.2037
12894TIP3    H160173   2.711   1.625  21.374 -1.2723 -1.1922 -1.2699
12894TIP3    H260174   2.561   1.648  21.384 -1.0245 -0.3139  1.0263
12895TIP3   OH260175   2.040   0.277  23.578 -0.5371 -0.8266  0.1227
12895TIP3    H160176   2.029   0.255  23.670  1.5144 -2.8870 -0.0193
12895TIP3    H260177   1.958   0.251  23.536 -0.3489 -2.8837  0.9327
12896TIP3   OH260178   0.706   1.178  24.857 -0.2925 -0.4107  0.5584
12896TIP3    H160179   0.720   1.264  24.817 -1.2650 -0.3440  0.3405
12896TIP3    H260180   0.700   1.118  24.783  1.1567 -0.8083  0.7324
12897TIP3   OH260181   1.772   2.019  18.041 -0.4686 -0.0299  0.5302
12897TIP3    H160182   1.785   2.107  18.007 -2.7204  0.0931 -0.1476
12897TIP3    H260183   1.787   1.962  17.966 -0.9970 -0.0778  0.4594
12898TIP3   OH260184   0.979   2.501 100.991 -0.5151  0.0258 -0.0190
12898TIP3    H160185   1.011   2.417 100.958 -0.5731 -0.5456  1.3169
12898TIP3    H260186   0.998   2.499 101.085 -1.4667  1.0636  0.2159
12899TIP3   OH260187   0.233   1.017  70.007  0.3404  0.8875  0.3208
12899TIP3    H160188   0.243   0.922  70.013  0.5353  0.9906  4.4245
12899TIP3    H260189   0.145   1.035  70.040 -0.2651  2.1472 -1.7682
12900TIP3   OH260190   1.514   1.267   2.379  0.7667  0.6247 -0.0556
12900TIP3    H160191   1.421   1.288   2.388 -0.0927 -2.0869 -1.6381
12900TIP3    H260192   1.525   1.184   2.425  2.6057  1.1941  0.6412
12901TIP3   OH260193   0.849   1.651  30.817 -0.6113 -0.6426  0.1837
12901TIP3    H160194   0.768   1.668  30.863 -1.4351  0.1730 -1.4530
12901TIP3    H260195   0.822   1.632  30.727  1.0093  0.4105 -0.5863
12902TIP3   OH260196   2.050   1.937 112.175  0.4668 -0.1523  0.3188
12902TIP3    H160197   1.996   1.976 112.107  0.7666  2.0135  1.2411
12902TIP3    H260198   1.997   1.945 112.255  0.4006 -2.0274  0.5207
12903TIP3   OH260199   2.161   0.014  87.683 -0.0622  0.0892  0.2244
12903TIP3    H160200   2.113   0.082  87.730 -1.8793 -0.1848 -1.1191
12903TIP3    H260201   2.213   0.061  87.618  0.7327  0.3159  0.9991
12904TIP3   OH260202   0.023   2.326  84.099 -0.0920 -0.2956 -0.1053
12904TIP3    H160203   0.027   2.278  84.017  1.1050  0.3399 -0.4384
12904TIP3    H260204   0.022   2.418  84.073 -1.1841 -0.0939  0.5656
12905TIP3   OH260205   2.328   1.804  28.111  0.4843  0.0820 -0.4760
12905TIP3    H160206   2.306   1.891  28.146  0.3577 -0.1256 -0.0340
12905TIP3    H260207   2.374   1.761  28.183 -2.3102 -1.4227  0.5362
12906TIP3   OH260208   0.519   0.913  16.505  0.1984  0.3826  0.2188
12906TIP3    H160209   0.470   0.916  16.587 -0.9713 -1.1650 -0.3880
12906TIP3    H260210   0.453   0.922  16.437  1.2141  2.2426 -0.5910
12907TIP3   OH260211   0.877   0.104  11.152 -0.4918 -0.0406 -0.6245
12907TIP3    H160212   0.961   0.064  11.172 -0.8883 -0.0021  1.2950
12907TIP3    H260213   0.828   0.037  11.104 -0.3130 -1.0241  0.5432
12908TIP3   OH260214   0.791   1.498  19.467 -0.4154  0.4248  0.0096
12908TIP3    H160215   0.777   1.423  19.410  2.2445  0.3077 -0.6180
12908TIP3    H260216   0.851   1.466  19.535  1.5246  2.1433 -0.7916
12909TIP3   OH260217   1.587   1.868  78.059  0.0244  0.5543  0.1937
12909TIP3    H160218   1.674   1.836  78.084 -0.1114  0.6135  0.7654
12909TIP3    H260219   1.539   1.872  78.142 -0.5200  0.5392 -0.1171
12910TIP3   OH260220   2.548   0.668  21.823  0.3996  0.4149 -0.1064
12910TIP3    H160221   2.547   0.620  21.741  1.5680 -0.8230  0.5593
12910TIP3    H260222   2.488   0.621  21.880  1.4769 -0.2402  0.5198
12911TIP3   OH260223   2.203   1.131   7.513  0.4686  0.3087 -0.1256
12911TIP3    H160224   2.177   1.041   7.533 -0.8188  0.8136  0.5784
12911TIP3    H260225   2.128   1.168   7.466  0.7880  1.1548  0.0132
12912TIP3   OH260226   1.015   1.942  14.451  0.3273 -0.2633 -0.0672
12912TIP3    H160227   0.945   2.003  14.427 -0.5169 -1.1947 -0.0197
12912TIP3    H260228   1.054   1.981  14.529  0.1931  0.5142 -0.3770
12913TIP3   OH260229   1.535   1.966   9.610 -0.1990  0.0670  0.2590
12913TIP3    H160230   1.484   1.907   9.665  0.9625 -0.1698  1.1034
12913TIP3    H260231   1.549   2.044   9.664  0.5545  0.0200  0.1445
12914TIP3   OH260232   1.860   2.663 107.446 -0.6318 -0.0699  0.1265
12914TIP3    H160233   1.789   2.599 107.445  1.0813 -2.1908  2.3894
12914TIP3    H260234   1.937   2.615 107.416  0.3838  1.4333  0.1911
12915TIP3   OH260235   2.205   1.649   0.337 -0.4467 -0.2103  0.1939
12915TIP3    H160236   2.129   1.702   0.359 -0.6968 -0.2676 -0.5368
12915TIP3    H260237   2.195   1.628   0.245 -0.1218 -1.1628  0.3638
12916TIP3   OH260238   2.057   0.189  21.593 -0.0483 -0.0643 -0.0319
12916TIP3    H160239   2.081   0.182  21.686 -0.4613  0.5813  0.1307
12916TIP3    H260240   2.137   0.166  21.546  0.4748  0.6511  0.4951
12917TIP3   OH260241   1.049   1.287   8.942  0.5708  0.2949  0.2827
12917TIP3    H160242   1.006   1.349   8.883  1.1375  0.0679 -0.3883
12917TIP3    H260243   1.125   1.334   8.976  0.8098  0.0865  0.0399
12918TIP3   OH260244   1.534   2.611  94.160  0.2155  0.0342 -0.1780
12918TIP3    H160245   1.547   2.700  94.127  2.8481 -0.8476 -1.8585
12918TIP3    H260246   1.623   2.576  94.171 -0.6935 -1.7718  2.3491
12919TIP3   OH260247   2.539   1.314  18.331  0.7160 -0.0707  0.1230
12919TIP3    H160248   2.602   1.348  18.394 -0.0394  0.9990  0.3276
12919TIP3    H260249   2.524   1.387  18.270 -1.0688  0.0638  0.6759
12920TIP3   OH260250   0.299   1.089 100.999  0.0178  0.0612 -0.0628
12920TIP3    H160251   0.309   1.181 101.022  0.2144  0.0730 -0.1947
12920TIP3    H260252   0.232   1.057 101.060  0.7917  0.0069  0.7802
12921TIP3   OH260253   0.489   0.144  19.011  0.0311  0.3121  0.5789
12921TIP3    H160254   0.500   0.178  18.922  0.5751  1.0509  0.9316
12921TIP3    H260255   0.536   0.205  19.067  1.5002 -1.2869  1.1786
12922TIP3   OH260256   0.466   0.936  96.107  0.4279  0.2448  0.5339
12922TIP3    H160257   0.480   0.851  96.148  0.0483 -0.5368 -0.8666
12922TIP3    H260258   0.554   0.971  96.093  0.5791  0.1686  1.2773
12923TIP3   OH260259   1.403   1.539  15.072 -0.0970 -0.2876 -0.1268
12923TIP3    H160260   1.392   1.462  15.017 -3.4466  0.6715 -1.0686
12923TIP3    H260261   1.439   1.605  15.013  0.2279 -0.3877 -0.0417
12924TIP3   OH260262   0.065   0.524  98.694 -0.2127  0.0006  0.1726
12924TIP3    H160263   0.079   0.611  98.731 -0.8849 -0.9206  2.8572
12924TIP3    H260264   0.073   0.536  98.599  2.1850  2.4738  0.5637
12925TIP3   OH260265   1.666   1.452  86.719  0.5865 -0.0755 -0.1323
12925TIP3    H160266   1.581   1.409  86.724  0.9570 -1.0667 -1.6342
12925TIP3    H260267   1.691   1.466  86.811 -0.7590 -0.6251  0.3486
12926TIP3   OH260268   2.230   0.311  25.669 -0.2711  0.2163  0.3942
12926TIP3    H160269   2.281   0.247  25.719 -1.4061 -1.0688 -0.0147
12926TIP3    H260270   2.180   0.258  25.607 -0.5435  1.6006 -0.6158
12927TIP3   OH260271   2.361   0.461  77.313  0.0360  0.0028 -0.5291
12927TIP3    H160272   2.267   0.479  77.307 -0.1734 -1.0469 -0.5524
12927TIP3    H260273   2.384   0.485  77.403 -0.1149  0.8365 -0.7024
12928TIP3   OH260274   1.669   1.530   3.466 -0.3835  0.1633  0.4016
12928TIP3    H160275   1.654   1.562   3.555  1.2948 -0.1678  0.8378
12928TIP3    H260276   1.764   1.531   3.456 -0.5164 -0.4471 -1.1581
12929TIP3   OH260277   2.333   0.871  92.877  0.1942 -0.2439  0.3789
12929TIP3    H160278   2.356   0.887  92.968 -0.8188  1.9426  0.3061
12929TIP3    H260279   2.412   0.891  92.828  1.1842 -2.7321  0.7793
12930TIP3   OH260280   1.472   0.180  86.552  0.0962  0.4587 -0.2742
12930TIP3    H160281   1.454   0.164  86.644 -0.8712 -0.4276 -0.5934
12930TIP3    H260282   1.388   0.166  86.508  0.6343  0.4149 -1.3384
12931TIP3   OH260283   2.605   1.036 100.786  0.5531  0.1299  0.0170
12931TIP3    H160284   2.538   1.002 100.844  0.2911  0.4776 -0.0794
12931TIP3    H260285   2.646   1.107 100.835  1.6369 -0.8151  0.5460
12932TIP3   OH260286   2.057   0.576  15.063 -0.4018  0.0642 -0.4191
12932TIP3    H160287   1.979   0.530  15.092  0.1579 -0.1366  0.8370
12932TIP3    H260288   2.130   0.522  15.095  0.2554  0.3304 -1.4205
12933TIP3   OH260289   2.136   1.688 102.458  0.4649  0.3324  0.6551
12933TIP3    H160290   2.231   1.684 102.459  0.5556 -0.1051 -2.1779
12933TIP3    H260291   2.116   1.774 102.421 -0.0883 -0.8366 -1.9967
12934TIP3   OH260292   1.039   1.206  89.412 -0.0001  0.2202  0.6874
12934TIP3    H160293   1.061   1.295  89.439 -1.8227  1.2753 -1.0713
12934TIP3    H260294   1.062   1.202  89.319  0.3995 -1.3099  0.8084
12935TIP3   OH260295   0.111   0.287  93.535 -0.6560 -0.3938  0.0688
12935TIP3    H160296   0.086   0.226  93.465 -0.0858 -2.0598  1.2504
12935TIP3    H260297   0.202   0.264  93.555 -0.2724  1.1748  0.2627
12936TIP3   OH260298   0.457   0.014   5.240 -0.3510  0.6547 -0.4198
12936TIP3    H160299   0.493   0.041   5.156  1.2230 -1.3130 -0.4555
12936TIP3    H260300   0.414  -0.070   5.222 -0.4502  0.4604  0.6496
12937TIP3   OH260301   1.766   2.090  94.905 -1.1664 -0.7554 -0.5024
12937TIP3    H160302   1.781   2.000  94.933  0.4525 -0.7794 -1.3063
12937TIP3    H260303   1.769   2.087  94.809 -2.4678 -0.0400 -0.5944
12938TIP3   OH260304   2.356   1.610  26.947  0.4868 -0.0699 -0.4564
12938TIP3    H160305   2.411   1.686  26.968  1.4706 -0.9700  0.4012
12938TIP3    H260306   2.286   1.613  27.012 -0.1606  0.7692 -1.1893
12939TIP3   OH260307   0.619   0.392  36.220  0.0151 -0.4815  0.2143
12939TIP3    H160308   0.576   0.307  36.211 -1.3164  0.1513  0.4562
12939TIP3    H260309   0.617   0.429  36.131 -0.0581 -0.3975  0.2511
12940TIP3   OH260310   2.664   0.229  35.797 -0.0174  0.2070  0.2356
12940TIP3    H160311   2.727   0.157  35.790  0.2612  0.5048 -0.4230
12940TIP3    H260312   2.578   0.187  35.786  0.1280 -0.0543  0.0783
12941TIP3   OH260313   0.636   1.556   4.431  0.1559 -0.0932  0.1920
12941TIP3    H160314   0.585   1.625   4.387 -0.2581 -0.5353 -0.0292
12941TIP3    H260315   0.716   1.548   4.379  0.2177  0.2326  0.2310
12942TIP3   OH260316   2.405   1.163   2.445  0.2559 -0.5479 -0.2325
12942TIP3    H160317   2.339   1.117   2.393 -0.2977 -1.4898  1.2337
12942TIP3    H260318   2.487   1.117   2.425  0.0188 -1.0146 -0.1458
12943TIP3   OH260319   2.295   0.978  63.177  0.3770  0.2187 -0.3980
12943TIP3    H160320   2.298   0.937  63.090  1.1881  0.5477 -0.5317
12943TIP3    H260321   2.385   1.008  63.192  1.4514 -3.5356  2.3474
12944TIP3   OH260322   0.695   0.459   8.432  0.5150  0.1717  0.7509
12944TIP3    H160323   0.652   0.539   8.464 -0.2903  0.0867 -0.0628
12944TIP3    H260324   0.765   0.491   8.375 -0.6001  0.3354 -0.5951
12945TIP3   OH260325   2.360   0.874  80.340 -0.0930  0.0245 -0.2800
12945TIP3    H160326   2.410   0.806  80.294 -1.2228 -1.1548  0.1432
12945TIP3    H260327   2.373   0.853  80.433 -1.8202 -0.7127 -0.1637
12946TIP3   OH260328   2.563   0.869  79.247 -0.3437  0.4333  0.1216
12946TIP3    H160329   2.582   0.908  79.333  1.2464 -0.0280  0.0214
12946TIP3    H260330   2.471   0.845  79.252 -0.0133 -0.6857  2.1934
12947TIP3   OH260331   0.529   0.761  24.908 -0.2392  0.5469  0.2103
12947TIP3    H160332   0.535   0.796  24.997 -0.7432 -0.2134  0.5588
12947TIP3    H260333   0.593   0.810  24.858 -0.4058  1.4408  0.8529
12948TIP3   OH260334   0.833   0.445  19.037 -0.2844 -0.3255  0.5068
12948TIP3    H160335   0.809   0.538  19.039 -0.9676 -0.4487 -0.6541
12948TIP3    H260336   0.920   0.441  19.077  0.5958  1.1084 -1.1435
12949TIP3   OH260337   1.322   2.566  51.752  0.3931  0.1556  0.4454
12949TIP3    H160338   1.302   2.633  51.687  1.2179 -0.2309 -0.2262
12949TIP3    H260339   1.254   2.500  51.740  0.6014  0.0378 -0.1019
12950TIP3   OH260340   0.583   0.045  21.029 -0.2207 -0.0169 -0.6494
12950TIP3    H160341   0.673   0.078  21.039 -0.4959  0.5986 -0.1571
12950TIP3    H260342   0.528   0.115  21.063 -0.8369 -0.8467  0.1034
12951TIP3   OH260343   2.624   1.994  25.721 -0.5455 -0.0989 -0.0142
12951TIP3    H160344   2.593   2.081  25.748 -0.4718  0.2169 -0.9115
12951TIP3    H260345   2.719   2.004  25.715 -0.7349  0.8357 -3.5701
12952TIP3   OH260346   1.650   0.602  84.473  0.5592 -0.4608 -0.1872
12952TIP3    H160347   1.719   0.602  84.539  0.1825  1.3860  0.2841
12952TIP3    H260348   1.583   0.544  84.508  0.3017  0.6060  1.1854
12953TIP3   OH260349   2.355   0.860  63.457  0.0558  0.4596  0.3059
12953TIP3    H160350   2.369   0.913  63.534 -1.6444 -0.1100  1.0647
12953TIP3    H260351   2.427   0.796  63.458 -1.4279 -1.3872  3.0980
12954TIP3   OH260352   0.948   2.491  99.910  0.4954 -0.3447  0.2629
12954TIP3    H160353   1.014   2.451  99.855  1.1951 -0.0207  0.8474
12954TIP3    H260354   0.885   2.421  99.927  0.7029 -0.6644 -0.2722
12955TIP3   OH260355   0.135   2.391  35.806 -0.4123  0.2029 -0.3224
12955TIP3    H160356   0.066   2.341  35.849 -0.4579  0.9000  0.4531
12955TIP3    H260357   0.092   2.434  35.732 -0.7693  0.4449  0.0187
12956TIP3   OH260358   0.854   2.142  24.374  0.9500  0.5131 -0.0449
12956TIP3    H160359   0.833   2.229  24.408 -0.3670 -0.1153  0.8323
12956TIP3    H260360   0.851   2.085  24.451 -1.7553 -0.8897 -1.0302
12957TIP3   OH260361   1.341   1.423  78.232 -0.5831 -0.8872 -0.2251
12957TIP3    H160362   1.412   1.467  78.280 -0.4041 -0.7368 -0.6194
12957TIP3    H260363   1.261   1.468  78.262 -0.1787  2.1756 -3.1283
12958TIP3   OH260364   1.040   1.444  85.764  0.2238  0.0933  0.0916
12958TIP3    H160365   1.089   1.366  85.739  2.8474  1.9055 -0.8056
12958TIP3    H260366   0.967   1.447  85.702  0.5352 -1.2063 -0.3711
12959TIP3   OH260367   2.091   0.920 106.622  0.4710  0.3634 -0.2681
12959TIP3    H160368   2.111   0.877 106.539 -0.4745  1.8873 -1.3209
12959TIP3    H260369   2.170   0.910 106.674  1.0589 -0.6644 -1.3213
12960TIP3   OH260370   0.307   2.363  11.828 -0.0463 -0.1953  0.2585
12960TIP3    H160371   0.307   2.394  11.738 -0.1991 -1.7201 -0.2983
12960TIP3    H260372   0.215   2.346  11.848 -0.1646  1.3160  1.1637
12961TIP3   OH260373   1.640   1.928   8.222  0.0498 -0.0918 -0.0710
12961TIP3    H160374   1.622   2.022   8.223 -0.7644 -0.2297 -0.7041
12961TIP3    H260375   1.616   1.897   8.309  2.0453  0.5750  0.7674
12962TIP3   OH260376   0.875   1.213  33.242  0.3261  0.8175 -0.1435
12962TIP3    H160377   0.865   1.284  33.179 -1.0170 -0.0640 -0.9771
12962TIP3    H260378   0.794   1.214  33.293  1.1930  1.2226  1.3019
12963TIP3   OH260379   2.469   1.325  12.549  0.1581 -0.0796 -0.9118
12963TIP3    H160380   2.390   1.282  12.517  0.1602 -1.1962  0.4635
12963TIP3    H260381   2.439   1.413  12.574 -0.8048 -0.6715  0.1205
12964TIP3   OH260382   2.639   0.327  94.891  0.1211  0.0636  0.2381
12964TIP3    H160383   2.586   0.406  94.885 -0.3143 -0.2699 -0.4384
12964TIP3    H260384   2.584   0.265  94.940  0.3887  0.1247  0.6174
12965TIP3   OH260385   1.285   0.586   1.674  0.2948  0.3124 -0.0354
12965TIP3    H160386   1.306   0.677   1.695 -0.5623 -0.0495  2.8089
12965TIP3    H260387   1.337   0.534   1.734 -1.3829 -0.9275  0.4329
12966TIP3   OH260388   0.683   0.293  14.805  0.5842 -0.3390 -0.2108
12966TIP3    H160389   0.652   0.356  14.740  0.6865 -0.7495 -0.6637
12966TIP3    H260390   0.617   0.294  14.874 -0.4978 -1.2555 -1.1955
12967TIP3   OH260391   0.987   0.204  42.535 -0.1555 -0.2546 -0.5213
12967TIP3    H160392   0.928   0.157  42.593 -0.7708  0.6593 -0.3951
12967TIP3    H260393   1.028   0.135  42.482  2.6588 -1.4979  2.9007
12968TIP3   OH260394   2.486   0.497 102.748 -0.0879  0.5983 -0.0384
12968TIP3    H160395   2.523   0.470 102.664  1.8454 -0.4315  1.0600
12968TIP3    H260396   2.468   0.590 102.738  1.1785  0.7537 -1.2377
12969TIP3   OH260397   0.805   2.682  91.364 -0.3088 -0.4028  0.2602
12969TIP3    H160398   0.875   2.632  91.322 -0.1954  0.1482 -0.2244
12969TIP3    H260399   0.725   2.651  91.322 -0.1322  0.6969 -0.9645
12970TIP3   OH260400   1.448   1.783  82.850  0.2395  0.3993 -0.0945
12970TIP3    H160401   1.499   1.831  82.784  1.8535 -2.3482 -0.9970
12970TIP3    H260402   1.507   1.776  82.925  0.1955 -0.5266 -0.1404
12971TIP3   OH260403   0.681   1.620   4.906 -0.2062  0.5080  0.7445
12971TIP3    H160404   0.768   1.587   4.931  0.7071  2.3129  0.1302
12971TIP3    H260405   0.644   1.653   4.988 -1.0651 -1.7398  1.3351
12972TIP3   OH260406   2.485   1.628   7.987 -0.2478  0.4425 -0.4458
12972TIP3    H160407   2.480   1.607   8.080  1.1083 -0.1651 -0.4797
12972TIP3    H260408   2.450   1.551   7.943  2.3933 -0.8732 -0.4906
12973TIP3   OH260409   0.649   1.429  35.142 -0.3556  0.5831 -0.1136
12973TIP3    H160410   0.604   1.381  35.212 -1.0677  0.0313 -0.9374
12973TIP3    H260411   0.733   1.455  35.181  0.3782 -1.9461  0.1293
12974TIP3   OH260412   2.343   2.113  20.617  0.3462 -0.3881  0.0351
12974TIP3    H160413   2.272   2.063  20.657  0.3614 -0.2758  0.2040
12974TIP3    H260414   2.389   2.051  20.561  0.7365 -0.7199  0.7087
12975TIP3   OH260415   0.204   1.109 106.331 -0.0745  0.1110 -0.0259
12975TIP3    H160416   0.232   1.027 106.289 -1.8747  0.5478 -2.2361
12975TIP3    H260417   0.247   1.178 106.280  1.3486  0.6158  1.7593
12976TIP3   OH260418   1.347   1.808  17.841  0.1676 -0.0235  1.0259
12976TIP3    H160419   1.378   1.898  17.847 -0.6267  0.1805  2.5201
12976TIP3    H260420   1.412   1.757  17.891  0.2480 -0.1738  0.7665
12977TIP3   OH260421   0.617   1.620  29.093 -0.0124  0.0299  0.0539
12977TIP3    H160422   0.622   1.674  29.015 -0.4659 -1.5905 -1.1464
12977TIP3    H260423   0.524   1.618  29.116 -0.2468 -1.4780 -0.8723
12978TIP3   OH260424   1.538   2.186  95.838 -0.0307  0.2077  0.2151
12978TIP3    H160425   1.574   2.114  95.889  0.0188 -0.1362 -0.3005
12978TIP3    H260426   1.452   2.155  95.809  0.0466  0.3050 -0.1182
12979TIP3   OH260427   0.096   1.000 111.971  0.4982 -0.1398 -0.3018
12979TIP3    H160428   0.040   1.034 112.041  0.7722 -0.5710  0.1345
12979TIP3    H260429   0.041   1.001 111.893  0.2717  0.6040 -0.1388
12980TIP3   OH260430   1.495   1.130   5.462  0.4955  0.0316 -0.3353
12980TIP3    H160431   1.459   1.093   5.381  0.2203  1.7782 -1.0469
12980TIP3    H260432   1.554   1.062   5.495 -1.0020 -1.5822 -0.8412
12981TIP3   OH260433   2.015   1.261   6.373  0.2254 -0.1849 -0.0146
12981TIP3    H160434   1.985   1.173   6.348 -0.7416  0.1890 -0.2128
12981TIP3    H260435   1.991   1.269   6.465  2.4840 -1.0092  0.7313
12982TIP3   OH260436   1.502   1.626  90.725 -0.2209  0.1496  0.2517
12982TIP3    H160437   1.418   1.607  90.682 -0.5501  0.6714  0.6553
12982TIP3    H260438   1.565   1.631  90.653 -0.3001 -1.3843  0.0269
12983TIP3   OH260439   0.439   2.062  86.807 -0.8468  0.1781  0.2356
12983TIP3    H160440   0.499   2.089  86.738 -0.8649  0.3486  0.2835
12983TIP3    H260441   0.483   1.988  86.850 -1.2849 -0.5963 -0.6077
12984TIP3   OH260442   2.536   0.045  13.425 -0.2780  0.2346  0.4451
12984TIP3    H160443   2.461   0.028  13.368  0.0464 -0.4181  0.2044
12984TIP3    H260444   2.537   0.140  13.436 -0.4412  0.3482 -0.4940
12985TIP3   OH260445   1.537   2.349  52.953  0.7355  1.1647 -0.1397
12985TIP3    H160446   1.546   2.388  53.040  0.5936  1.5711 -0.3077
12985TIP3    H260447   1.569   2.416  52.892 -2.6032  2.4384 -0.7187
12986TIP3   OH260448   1.148   1.951 111.333 -0.7610 -0.7187  0.6992
12986TIP3    H160449   1.145   2.025 111.273 -0.2450 -0.2108  1.2925
12986TIP3    H260450   1.138   1.990 111.420  1.5052 -1.0883  1.1989
12987TIP3   OH260451   1.508   0.148  82.210 -0.5209  0.4037 -0.0067
12987TIP3    H160452   1.603   0.157  82.202 -0.6514  0.7462 -1.6007
12987TIP3    H260453   1.488   0.181  82.297  0.7961  0.5335  0.2705
12988TIP3   OH260454   0.924   0.974  76.639 -0.6794 -0.2115  0.1047
12988TIP3    H160455   0.932   1.012  76.726  0.2922  0.0961 -0.1021
12988TIP3    H260456   0.888   1.045  76.585 -0.5070 -0.1344  0.0855
12989TIP3   OH260457   1.643   1.884 100.387 -0.1366  0.1272 -0.0423
12989TIP3    H160458   1.649   1.798 100.345 -1.8785  0.1574 -0.4099
12989TIP3    H260459   1.703   1.939 100.337 -1.1660 -0.1722 -1.6965
12990TIP3   OH260460   2.224   1.271  97.046 -0.8411 -0.0761 -0.8183
12990TIP3    H160461   2.225   1.175  97.045 -0.2051 -0.0799 -0.0473
12990TIP3    H260462   2.145   1.293  97.096 -0.0163 -0.2226  0.5926
12991TIP3   OH260463   1.657   1.793  81.768  0.4541 -0.1647 -0.2823
12991TIP3    H160464   1.660   1.703  81.737  2.4685 -0.9714  1.9139
12991TIP3    H260465   1.722   1.796  81.838  0.7528  3.1210 -0.5525
12992TIP3   OH260466   1.880   1.170 109.708  0.3453 -0.0592 -0.8574
12992TIP3    H160467   1.818   1.236 109.676  0.5273  0.4185 -0.2560
12992TIP3    H260468   1.935   1.218 109.770 -0.4622 -1.1144  0.7332
12993TIP3   OH260469   2.480   0.585 111.949 -0.1272  0.7160  0.2814
12993TIP3    H160470   2.527   0.502 111.946 -0.2110  0.6885 -0.5825
12993TIP3    H260471   2.517   0.631 112.024 -0.5286 -0.3554  1.1551
12994TIP3   OH260472   1.737   1.179  19.290 -0.8862  0.1746  0.0874
12994TIP3    H160473   1.697   1.125  19.222 -2.0742  0.9003  0.1788
12994TIP3    H260474   1.705   1.143  19.372  0.9282 -1.0023  0.3309
12995TIP3   OH260475   1.425   2.433  34.904  0.3038 -0.4793 -0.1572
12995TIP3    H160476   1.363   2.462  34.970  2.1489  0.9825  1.0293
12995TIP3    H260477   1.409   2.490  34.829  0.6524  0.3840  0.4085
12996TIP3   OH260478   1.730   0.241  10.526  0.2658  0.2073  0.0009
12996TIP3    H160479   1.652   0.288  10.497  0.6046  1.4010  0.9415
12996TIP3    H260480   1.788   0.309  10.560  1.7269 -0.6550 -0.6669
12997TIP3   OH260481   0.085   1.133  87.573  0.2259  0.9501  0.0822
12997TIP3    H160482   0.172   1.136  87.612 -0.4437 -0.5568  1.8813
12997TIP3    H260483   0.034   1.195  87.625  0.0781  1.3465 -0.5369
12998TIP3   OH260484   1.483   1.553  21.264 -0.0850  0.1947 -0.0831
12998TIP3    H160485   1.544   1.592  21.201 -0.3599 -0.6270 -0.8737
12998TIP3    H260486   1.406   1.531  21.213 -0.4588 -0.1467  0.6184
12999TIP3   OH260487   1.055   2.008 109.326 -0.0627 -0.2139  0.3660
12999TIP3    H160488   1.099   2.086 109.292  0.5232 -1.2292 -1.3342
12999TIP3    H260489   0.980   2.042 109.374  1.2909  1.4776  1.4092
13000TIP3   OH260490   0.911   0.626 110.216  0.0540 -0.2084 -0.4729
13000TIP3    H160491   0.896   0.628 110.122  0.3257 -0.7456 -0.5260
13000TIP3    H260492   0.954   0.709 110.235 -1.1618  0.4794 -0.6136
13001TIP3   OH260493   2.133   0.578  91.698  0.7141  0.7267  0.0868
13001TIP3    H160494   2.056   0.634  91.692  0.1942  0.1571  1.1781
13001TIP3    H260495   2.192   0.611  91.630 -0.0503  1.8474 -0.0614
13002TIP3   OH260496   1.492   1.409  28.816 -0.2349 -0.1532 -0.2124
13002TIP3    H160497   1.511   1.497  28.847 -0.9622  0.1303 -0.5487
13002TIP3    H260498   1.548   1.398  28.739  0.5763 -0.3593  0.3882
13003TIP3   OH260499   1.950   1.348 108.936  0.1090  0.1141  0.3735
13003TIP3    H160500   2.010   1.293 108.987  1.4987  1.1851 -0.0286
13003TIP3    H260501   1.890   1.385 109.001  0.0407 -0.7556  0.8228
13004TIP3   OH260502   2.371   0.518 100.078  0.5446 -0.4491  0.2257
13004TIP3    H160503   2.416   0.517 100.163 -0.5066 -0.1941  0.8145
13004TIP3    H260504   2.381   0.608 100.047  0.2611 -0.3293  0.4706
13005TIP3   OH260505   2.176   0.517 105.186 -0.1422 -0.4355 -0.1478
13005TIP3    H160506   2.115   0.519 105.112  0.1958 -0.4882 -0.4275
13005TIP3    H260507   2.123   0.483 105.259  0.2032 -3.1581 -1.0263
13006TIP3   OH260508   1.530   1.353  32.669 -0.0003 -0.5159 -0.0666
13006TIP3    H160509   1.610   1.382  32.626 -0.7383  2.0536  0.1122
13006TIP3    H260510   1.527   1.404  32.750 -1.4923 -1.0090  0.2192
13007TIP3   OH260511   1.973   2.058   5.985 -0.1953  0.2569  0.3334
13007TIP3    H160512   1.921   2.068   6.064 -0.5184 -0.0323  0.1592
13007TIP3    H260513   2.064   2.065   6.015 -0.2714 -0.9792  0.9027
13008TIP3   OH260514   2.273   1.731 108.554 -0.1173 -0.4368 -0.3788
13008TIP3    H160515   2.352   1.720 108.500 -0.4189 -1.3024 -0.6533
13008TIP3    H260516   2.285   1.816 108.597  0.4986 -0.0957 -1.1965
13009TIP3   OH260517   1.205   2.347  86.903  0.0725 -0.1736  0.0805
13009TIP3    H160518   1.197   2.439  86.877 -1.0354 -0.3591 -0.2860
13009TIP3    H260519   1.290   2.320  86.869  0.0865  0.5139 -0.4527
13010TIP3   OH260520   1.921   0.228  81.521 -0.1557  0.2529 -0.1579
13010TIP3    H160521   1.851   0.189  81.573 -2.4201 -0.5235 -3.4094
13010TIP3    H260522   1.988   0.160  81.516 -1.8316 -1.4451 -1.6202
13011TIP3   OH260523   1.924   0.147 108.673 -0.3407  0.1898  0.0366
13011TIP3    H160524   1.829   0.142 108.677 -0.3265 -0.3351 -0.1627
13011TIP3    H260525   1.954   0.100 108.751 -0.2378 -0.1764 -0.2188
13012TIP3   OH260526   0.329   2.463  17.337 -0.0505  0.9079  0.1399
13012TIP3    H160527   0.265   2.427  17.276  1.5800 -0.7187 -0.6969
13012TIP3    H260528   0.403   2.488  17.281  0.1733  2.5497  1.1029
13013TIP3   OH260529   0.144   0.634  14.153 -0.4226  0.4076  0.3832
13013TIP3    H160530   0.192   0.601  14.229  0.6293  1.4059  0.1860
13013TIP3    H260531   0.161   0.728  14.152 -0.9280  0.5115 -0.7323
13014TIP3   OH260532   2.552   0.886  13.816 -0.6101  0.3237 -0.4602
13014TIP3    H160533   2.566   0.794  13.796  1.3347  0.6150 -0.5538
13014TIP3    H260534   2.474   0.886  13.873 -0.6521 -1.3532 -0.4587
13015TIP3   OH260535   1.770   0.714 108.741 -0.4639 -0.5435  0.2921
13015TIP3    H160536   1.693   0.753 108.781 -0.4072 -0.8659  0.7180
13015TIP3    H260537   1.751   0.620 108.738 -0.1186 -0.6155  0.3262
13016TIP3   OH260538   1.655   2.187  33.934 -0.0457  0.1465  0.0030
13016TIP3    H160539   1.735   2.240  33.930  0.5007 -0.7066 -0.5582
13016TIP3    H260540   1.584   2.251  33.924  0.6222  0.7177 -1.3405
13017TIP3   OH260541   1.745   1.148 102.631 -0.6285  0.9601  0.0855
13017TIP3    H160542   1.736   1.080 102.697 -1.6721  0.2010 -0.8015
13017TIP3    H260543   1.839   1.153 102.615 -0.5554 -0.7318 -0.2697
13018TIP3   OH260544   2.626   2.563  49.557  0.1208  0.6635  0.6166
13018TIP3    H160545   2.627   2.577  49.462  1.0899 -1.0999  0.3156
13018TIP3    H260546   2.596   2.647  49.593 -1.5689  0.9762 -1.2868
13019TIP3   OH260547   2.141   1.600  91.191 -0.0902 -0.0370 -0.0457
13019TIP3    H160548   2.177   1.542  91.124 -1.2269 -0.0687 -0.6487
13019TIP3    H260549   2.197   1.678  91.188 -0.3571  0.1178 -1.2962
13020TIP3   OH260550   0.890   0.119  77.637  0.1267  0.2613 -0.0586
13020TIP3    H160551   0.930   0.203  77.662  0.0429  0.5108 -0.7338
13020TIP3    H260552   0.797   0.139  77.627  0.2243  0.2772 -1.0010
13021TIP3   OH260553   2.466   2.111  75.954 -0.2796 -0.6456 -0.2237
13021TIP3    H160554   2.518   2.163  75.893  0.9806 -0.3899  1.0094
13021TIP3    H260555   2.524   2.098  76.029 -2.0508 -0.2744  1.2685
13022TIP3   OH260556   0.342   2.109 109.557 -0.1146 -0.3035  0.0231
13022TIP3    H160557   0.344   2.204 109.547 -0.1582 -0.2290  0.6557
13022TIP3    H260558   0.434   2.082 109.553 -0.1232 -0.2669 -0.4298
13023TIP3   OH260559   1.366   0.239  18.123  0.0450 -0.4114  0.1277
13023TIP3    H160560   1.410   0.202  18.047 -0.9985 -0.8136 -0.3054
13023TIP3    H260561   1.351   0.164  18.181 -0.9616 -0.4694 -0.1912
13024TIP3   OH260562   1.741   2.080  33.026 -0.1073 -0.5077 -0.0743
13024TIP3    H160563   1.790   2.069  32.944 -0.2149  0.3316 -0.2587
13024TIP3    H260564   1.791   2.029  33.090  1.8801  1.4691  0.0779
13025TIP3   OH260565   1.564   1.591  96.321 -0.2739  0.2130 -0.1302
13025TIP3    H160566   1.595   1.649  96.390 -0.9682 -1.3515  1.5711
13025TIP3    H260567   1.500   1.535  96.364 -0.9229 -0.6503 -2.1263
13026TIP3   OH260568   0.833   1.235  23.714  0.3872  0.1377  0.0765
13026TIP3    H160569   0.760   1.176  23.731  0.4966 -0.2907 -0.8931
13026TIP3    H260570   0.865   1.210  23.627  1.8287  0.1573  0.5689
13027TIP3   OH260571   1.385   2.082 102.801 -0.2369 -0.2096 -0.7815
13027TIP3    H160572   1.333   2.023 102.746 -1.4545  0.6056 -0.5660
13027TIP3    H260573   1.327   2.101 102.875  0.6201  0.2493 -0.2160
13028TIP3   OH260574   1.653   1.278  83.994  0.7319 -0.0372 -0.6064
13028TIP3    H160575   1.725   1.220  84.021 -0.0112 -0.3730  0.7254
13028TIP3    H260576   1.686   1.321  83.915  2.1321 -0.6869 -0.4113
13029TIP3   OH260577   1.938   0.986  78.603 -0.0043  0.4760  0.0688
13029TIP3    H160578   2.024   1.022  78.621  0.1500 -0.2709  0.8916
13029TIP3    H260579   1.952   0.891  78.601 -0.7441  0.3661 -0.1113
13030TIP3   OH260580   1.406   1.219  11.581  0.0676  0.0960 -0.9337
13030TIP3    H160581   1.393   1.140  11.632 -1.3370  1.0903  0.3359
13030TIP3    H260582   1.322   1.234  11.538 -0.0649  1.4957 -0.2349
13031TIP3   OH260583   2.042   1.031  30.276  0.0031  0.3544 -0.7402
13031TIP3    H160584   2.130   1.068  30.266 -0.8686  2.3429 -1.5389
13031TIP3    H260585   2.017   1.053  30.366 -0.4233  1.5844 -1.1410
13032TIP3   OH260586   1.780   0.676  13.190 -0.3679 -0.0168  0.1626
13032TIP3    H160587   1.721   0.714  13.125 -0.7771 -1.7048 -0.5175
13032TIP3    H260588   1.807   0.750  13.245 -0.8002  1.2749 -1.3073
13033TIP3   OH260589   1.081   0.465  26.054 -0.3882  0.4001  0.2281
13033TIP3    H160590   1.176   0.475  26.045 -0.2537 -1.1820 -0.5588
13033TIP3    H260591   1.070   0.377  26.091 -1.5746 -0.1755 -1.3722
13034TIP3   OH260592   1.839   1.609  93.960  0.2232 -0.2653  0.5321
13034TIP3    H160593   1.927   1.638  93.937  0.4411  0.0828  1.7562
13034TIP3    H260594   1.826   1.530  93.907  1.4186 -0.5434  0.6172
13035TIP3   OH260595   1.827   1.980  74.445 -0.1838  0.0960  0.8121
13035TIP3    H160596   1.857   2.066  74.416 -0.4814  0.0550  0.3779
13035TIP3    H260597   1.882   1.960  74.521  1.1392 -0.1179 -0.1584
13036TIP3   OH260598   1.449   1.016  25.798 -0.8203  0.1019  0.3528
13036TIP3    H160599   1.380   1.070  25.758 -1.4144 -0.3640  0.7280
13036TIP3    H260600   1.466   1.057  25.882  0.2778  0.9563 -0.2594
13037TIP3   OH260601   0.167   0.389  13.801  0.1367  0.4267  0.1357
13037TIP3    H160602   0.186   0.369  13.709 -0.6553 -0.4775  0.1525
13037TIP3    H260603   0.186   0.482  13.810  1.1413  0.3277 -0.6997
13038TIP3   OH260604   0.316   1.867  78.203  0.1237  0.6965 -0.2370
13038TIP3    H160605   0.361   1.818  78.271  1.4229  0.0087 -1.5378
13038TIP3    H260606   0.379   1.933  78.175 -0.3653  0.9271 -0.8116
13039TIP3   OH260607   0.611   1.790  36.079 -0.5303 -0.0942 -0.2800
13039TIP3    H160608   0.542   1.816  36.019 -0.2955 -2.0666 -1.5096
13039TIP3    H260609   0.574   1.716  36.127 -0.4128  0.9275  1.4459
13040TIP3   OH260610   0.188   2.064   0.377  0.1556 -0.1259 -0.0367
13040TIP3    H160611   0.134   2.002   0.426 -0.9273 -0.8600 -2.0586
13040TIP3    H260612   0.124   2.121   0.333  1.0380 -0.3053 -1.5943
13041TIP3   OH260613   0.147   0.400  68.192  0.0941 -0.3052  0.0886
13041TIP3    H160614   0.183   0.482  68.158  0.6410 -0.0868  1.1204
13041TIP3    H260615   0.095   0.427  68.268 -0.4627 -0.8408 -0.0946
13042TIP3   OH260616   1.085   1.277  90.875 -0.2741 -0.7132 -0.3426
13042TIP3    H160617   1.054   1.214  90.940 -0.2739 -1.3100 -0.9113
13042TIP3    H260618   1.128   1.223  90.808  0.6522 -0.0311 -0.3237
13043TIP3   OH260619   0.163   2.615  73.440 -0.0937  0.3185 -0.3823
13043TIP3    H160620   0.102   2.662  73.498 -0.1566  0.0633 -0.2411
13043TIP3    H260621   0.144   2.650  73.353 -1.1653 -0.4825 -0.4956
13044TIP3   OH260622   0.558   0.282  96.856 -0.2170  0.7833  0.1031
13044TIP3    H160623   0.487   0.218  96.854  0.6780 -0.2868  1.1380
13044TIP3    H260624   0.632   0.238  96.813 -0.1340  1.8703 -0.9409
13045TIP3   OH260625   1.425   0.791  28.165 -0.2427 -0.0225  0.1644
13045TIP3    H160626   1.474   0.867  28.198  0.2634  0.2371 -1.1362
13045TIP3    H260627   1.388   0.821  28.082 -0.6897 -0.9622  0.0114
13046TIP3   OH260628   2.437   0.358  13.974  0.1471 -0.2899  0.5487
13046TIP3    H160629   2.429   0.453  13.971  0.0693 -0.2798  1.0188
13046TIP3    H260630   2.528   0.342  13.997  0.5099 -0.3544 -0.8368
13047TIP3   OH260631   2.173   1.098  31.016 -0.0886  0.0534  0.1831
13047TIP3    H160632   2.179   1.036  30.944 -0.2806 -0.8952  0.9496
13047TIP3    H260633   2.259   1.096  31.057  0.1081  0.8057 -0.1840
13048TIP3   OH260634   1.082   2.491  89.393 -0.3791 -0.0995  0.0017
13048TIP3    H160635   1.156   2.466  89.448  1.1704 -2.9077 -3.0283
13048TIP3    H260636   1.005   2.460  89.440  0.5538  0.4354  1.9651
13049TIP3   OH260637   0.295   0.774  91.704  0.2147 -0.5535  0.0622
13049TIP3    H160638   0.362   0.789  91.638  1.9111  2.5185  2.2221
13049TIP3    H260639   0.222   0.831  91.678 -1.1536 -2.8897 -1.5618
13050TIP3   OH260640   1.589   0.065  27.481  0.3354  0.1638  0.0582
13050TIP3    H160641   1.616   0.062  27.573  0.7044 -0.9792 -0.0665
13050TIP3    H260642   1.588   0.158  27.459 -1.0161  0.5680  1.5789
13051TIP3   OH260643   2.186   2.295  29.054  1.1260 -0.0287 -0.0286
13051TIP3    H160644   2.279   2.310  29.068  0.6454  0.9729  2.8910
13051TIP3    H260645   2.146   2.312  29.140 -1.7190 -0.6134 -1.1226
13052TIP3   OH260646   0.052   1.353 105.119 -0.2501 -0.0206 -0.2732
13052TIP3    H160647   0.040   1.293 105.045  0.8678  0.5706 -0.9554
13052TIP3    H260648   0.017   1.437 105.088  0.2178  0.2288 -0.1338
13053TIP3   OH260649   0.650   0.789   6.453 -0.1265 -0.3387  0.6087
13053TIP3    H160650   0.557   0.810   6.448  0.0393  0.2815 -0.0414
13053TIP3    H260651   0.692   0.850   6.392  0.7727 -0.2126  1.3355
13054TIP3   OH260652   1.841   2.169 103.245 -0.3962 -0.1781 -0.1318
13054TIP3    H160653   1.816   2.208 103.161 -0.0536 -0.7738 -0.5188
13054TIP3    H260654   1.800   2.225 103.311  0.7555  1.3197 -0.6405
13055TIP3   OH260655   1.327   0.240 106.834  0.2610 -0.1828  0.0402
13055TIP3    H160656   1.366   0.235 106.921  0.9015 -0.7337 -0.2680
13055TIP3    H260657   1.234   0.254 106.849  0.2364 -1.1347  0.8261
13056TIP3   OH260658   0.663   0.504  14.184 -0.3260 -0.1831 -0.3318
13056TIP3    H160659   0.747   0.549  14.172 -0.4181 -0.1814 -1.0230
13056TIP3    H260660   0.631   0.489  14.095 -0.3727 -1.4792 -0.1274
13057TIP3   OH260661   2.394   0.544  48.292 -0.2828  0.7361 -0.5229
13057TIP3    H160662   2.346   0.557  48.374 -1.0373 -0.4048 -0.7522
13057TIP3    H260663   2.326   0.545  48.224 -0.3969 -2.7606 -0.6844
13058TIP3   OH260664   0.327   1.743   9.075 -0.2650 -0.4688  0.0208
13058TIP3    H160665   0.341   1.832   9.105 -0.2966 -0.4656  0.0262
13058TIP3    H260666   0.352   1.745   8.982 -1.8441 -0.0402 -0.4413
13059TIP3   OH260667   0.007   2.004  80.573 -0.1512 -0.2821 -0.5102
13059TIP3    H160668  -0.034   2.091  80.573 -1.7106 -0.9884 -1.0022
13059TIP3    H260669  -0.065   1.944  80.591  1.1719 -1.3874  1.4185
13060TIP3   OH260670   0.561   1.784  98.992 -0.0391 -0.1063  0.1172
13060TIP3    H160671   0.474   1.744  98.988 -0.0861  0.0491 -0.5549
13060TIP3    H260672   0.616   1.727  98.937  0.1602  0.0962  0.1068
13061TIP3   OH260673   0.275   1.167 108.325 -0.3670 -0.2918  0.0751
13061TIP3    H160674   0.262   1.105 108.253 -0.6259  0.1847 -0.2968
13061TIP3    H260675   0.269   1.114 108.404 -0.4323 -0.7667 -0.2439
13062TIP3   OH260676   1.944   2.238 112.116  0.1516  0.2728 -0.3173
13062TIP3    H160677   1.885   2.299 112.160  1.6448  1.3995  0.1815
13062TIP3    H260678   1.905   2.225 112.029 -0.4159  1.5984 -0.2778
13063TIP3   OH260679   0.235   1.448   7.561  0.2442 -0.3277 -0.3347
13063TIP3    H160680   0.233   1.354   7.544 -0.5474 -0.1375 -1.3654
13063TIP3    H260681   0.197   1.488   7.483 -1.0157  0.7501  0.7726
13064TIP3   OH260682   0.887   1.584  37.806  0.1088 -0.6532  0.0586
13064TIP3    H160683   0.871   1.499  37.765  1.2041  0.2165 -2.4128
13064TIP3    H260684   0.943   1.631  37.743 -0.7151  2.0271  1.1587
13065TIP3   OH260685   0.431   1.047  19.427 -0.0420 -0.2632 -0.0210
13065TIP3    H160686   0.457   0.964  19.466 -1.6527 -0.3374  1.0089
13065TIP3    H260687   0.446   1.112  19.495  0.6514  0.2087 -0.6151
13066TIP3   OH260688   0.921   1.367  76.887 -0.5695  0.7053 -0.6402
13066TIP3    H160689   0.935   1.454  76.849  1.3813 -0.0617 -1.8157
13066TIP3    H260690   0.971   1.369  76.969  1.2439  0.0730 -1.6790
13067TIP3   OH260691   1.177   1.229  98.889 -0.7368 -0.4301 -0.6255
13067TIP3    H160692   1.182   1.191  98.802  1.5155 -0.0378 -0.7283
13067TIP3    H260693   1.211   1.318  98.879  1.8787 -1.1237  0.9952
13068TIP3   OH260694   1.474   2.375  92.819  0.1288 -0.1670  0.6954
13068TIP3    H160695   1.514   2.444  92.767  2.4319 -1.5855  0.4367
13068TIP3    H260696   1.506   2.391  92.908 -0.0478 -0.3945  0.8039
13069TIP3   OH260697   0.490   2.283  90.276  0.0222 -0.1290 -0.0139
13069TIP3    H160698   0.396   2.263  90.275 -0.0863  0.3658 -1.1158
13069TIP3    H260699   0.503   2.331  90.358 -0.9737  0.9732 -0.4665
13070TIP3   OH260700   0.154   2.260  86.095 -0.0063  0.0439  0.0666
13070TIP3    H160701   0.230   2.305  86.059 -0.3921  1.3244  0.7741
13070TIP3    H260702   0.080   2.317  86.074 -0.3514  0.4162  2.0375
13071TIP3   OH260703   0.990   0.887  29.341  0.3681 -0.2017  0.2356
13071TIP3    H160704   0.960   0.826  29.274 -0.1250  0.0482  0.2278
13071TIP3    H260705   0.911   0.910  29.390  0.5137  0.6212  0.0877
13072TIP3   OH260706   1.311   0.532  12.944 -0.0150  0.6899  0.1805
13072TIP3    H160707   1.383   0.480  12.908 -1.5538 -0.8338 -0.8530
13072TIP3    H260708   1.281   0.586  12.871 -1.7740 -0.8514 -0.3180
13073TIP3   OH260709   0.273   2.544  15.769 -0.4164 -0.2343 -0.3714
13073TIP3    H160710   0.260   2.567  15.677 -1.4561 -0.7873 -0.3829
13073TIP3    H260711   0.261   2.449  15.772  1.5448 -0.5006  0.0280
13074TIP3   OH260712   0.222   1.049 102.926 -0.1215  0.1554 -0.1754
13074TIP3    H160713   0.271   1.115 102.876  0.7982 -0.2927  0.1163
13074TIP3    H260714   0.233   0.968 102.875 -1.7407  0.3267 -0.8474
13075TIP3   OH260715   2.397   0.899  32.167  0.5387 -0.1209 -0.0203
13075TIP3    H160716   2.323   0.854  32.208  1.5494 -0.0132  2.0440
13075TIP3    H260717   2.444   0.939  32.239  2.3089  0.3086 -1.3377
13076TIP3   OH260718   1.008   2.302  32.805 -0.4299  0.2735  0.3517
13076TIP3    H160719   1.065   2.377  32.792  0.2583 -0.1327  0.9741
13076TIP3    H260720   0.992   2.299  32.899 -1.4890  0.3841  0.1892
13077TIP3   OH260721   1.898   0.520 107.335  0.1221 -0.9942  0.7254
13077TIP3    H160722   1.972   0.475 107.294 -0.4469 -0.3478 -1.1344
13077TIP3    H260723   1.910   0.612 107.313 -0.0593 -0.5636  2.3297
13078TIP3   OH260724   0.347   0.928  36.748  0.3873  0.2343 -0.0813
13078TIP3    H160725   0.432   0.943  36.788  0.5828  0.3598 -0.5428
13078TIP3    H260726   0.343   0.988  36.674  0.2862 -0.4262 -0.6284
13079TIP3   OH260727   0.736   0.311 111.977 -0.0478 -0.3359  0.6738
13079TIP3    H160728   0.770   0.393 111.940 -2.1235  0.0190 -0.6070
13079TIP3    H260729   0.780   0.242 111.928  0.9121  0.0149  1.0117
13080TIP3   OH260730   2.005   0.530 100.278 -0.2781 -0.6057  0.2825
13080TIP3    H160731   2.059   0.598 100.318 -1.9587  0.6793  0.4742
13080TIP3    H260732   2.029   0.532 100.185 -0.6811  0.6571  0.1816
13081TIP3   OH260733   0.824   0.525  78.377 -0.6250 -0.7917  0.0976
13081TIP3    H160734   0.894   0.461  78.383 -0.1972 -0.2408  1.5858
13081TIP3    H260735   0.866   0.609  78.396 -1.3807 -0.2258 -0.6568
13082TIP3   OH260736   0.873   0.696  90.670  0.0380  0.4836  0.3031
13082TIP3    H160737   0.914   0.668  90.752  0.4925  0.7331  0.1652
13082TIP3    H260738   0.919   0.648  90.601 -1.1353 -0.6292  0.2533
13083TIP3   OH260739   2.130   1.293  10.952 -0.1773  0.1060 -0.6480
13083TIP3    H160740   2.200   1.356  10.941 -1.4785  1.6403 -0.4846
13083TIP3    H260741   2.169   1.223  11.005  0.4443  2.3104  2.0301
13084TIP3   OH260742   2.609   2.185 109.071 -0.1395 -0.0111  0.4227
13084TIP3    H160743   2.645   2.104 109.036  1.9445  0.9667  0.1752
13084TIP3    H260744   2.611   2.173 109.166 -1.7605 -0.9942  0.3732
13085TIP3   OH260745   0.374   1.595  84.746 -0.0207 -0.2048  0.2036
13085TIP3    H160746   0.301   1.621  84.689  0.1254  2.6206  1.1297
13085TIP3    H260747   0.450   1.596  84.688 -0.1350  0.9561  0.0431
13086TIP3   OH260748   1.072   2.182   1.031 -1.0709  0.5593  0.3199
13086TIP3    H160749   1.090   2.198   0.939 -0.1223  0.5504  0.5003
13086TIP3    H260750   1.023   2.100   1.032  1.0136 -0.7600 -0.0254
13087TIP3   OH260751   0.887   0.592  23.061 -0.0187  0.8751 -0.2752
13087TIP3    H160752   0.917   0.677  23.028 -1.3720  1.3716 -0.2701
13087TIP3    H260753   0.922   0.528  22.998  0.1607  1.5186 -0.8425
13088TIP3   OH260754   1.016   1.501  13.481  0.2034 -0.5548  0.0474
13088TIP3    H160755   0.992   1.489  13.573 -0.8592 -0.6415 -0.2286
13088TIP3    H260756   0.934   1.487  13.433 -0.3688  3.6765 -0.6247
13089TIP3   OH260757   2.460   1.456   9.966 -0.4607 -0.3735  0.4350
13089TIP3    H160758   2.457   1.542   9.924 -0.7095 -0.1595  0.8821
13089TIP3    H260759   2.467   1.394   9.893 -0.0760  0.0341  0.1224
13090TIP3   OH260760   1.961   0.290  11.835  0.0089 -0.1175 -0.0395
13090TIP3    H160761   1.917   0.247  11.762  1.2939 -0.5211 -0.6095
13090TIP3    H260762   1.890   0.332  11.885 -0.9490 -0.3683 -1.1472
13091TIP3   OH260763   2.295   2.076  68.137 -0.1500 -0.0441  0.1477
13091TIP3    H160764   2.281   1.988  68.102 -1.8728  0.4783 -0.5856
13091TIP3    H260765   2.296   2.133  68.060  2.0901  0.5145  0.5130
13092TIP3   OH260766   2.643   2.074  14.470 -0.1265 -0.1879 -0.1647
13092TIP3    H160767   2.582   2.148  14.460  1.6409  1.2057 -1.1364
13092TIP3    H260768   2.730   2.113  14.462  0.9070 -2.2495  0.3403
13093TIP3   OH260769   0.307   2.513  87.966  0.1631 -0.1073 -0.4431
13093TIP3    H160770   0.357   2.468  87.898 -0.9954 -1.0441 -0.7152
13093TIP3    H260771   0.325   2.462  88.045 -0.1021 -0.2549 -0.4782
13094TIP3   OH260772   0.265   0.549  67.789 -0.8905  0.4382  0.0360
13094TIP3    H160773   0.231   0.459  67.783 -0.9578  0.3801  1.1651
13094TIP3    H260774   0.317   0.550  67.869 -0.5320  1.2994 -0.1998
13095TIP3   OH260775   1.002   1.488  36.262 -0.3999 -0.3133 -0.2633
13095TIP3    H160776   0.994   1.414  36.202 -0.6635 -1.8031  1.5261
13095TIP3    H260777   1.094   1.489  36.287 -0.2744  0.3537 -0.7391
13096TIP3   OH260778   1.526   1.059 104.413  0.0981 -0.0669 -0.3731
13096TIP3    H160779   1.437   1.094 104.421  0.2367  0.1657  0.2050
13096TIP3    H260780   1.516   0.965 104.431 -0.0607 -0.0745 -0.5032
13097TIP3   OH260781   2.073   2.362  88.544 -0.2647 -0.4620  0.1911
13097TIP3    H160782   2.037   2.441  88.504  0.1543 -0.4105 -0.0779
13097TIP3    H260783   1.997   2.306  88.560 -0.8012  0.6560  1.8994
13098TIP3   OH260784   0.809   1.283  11.022 -0.1502 -0.7515 -0.3011
13098TIP3    H160785   0.801   1.339  11.099  1.5260 -1.1383  0.1789
13098TIP3    H260786   0.756   1.327  10.955 -1.6895 -0.4452  1.0468
13099TIP3   OH260787   1.995   0.424  37.615  0.1007 -0.1597  0.4736
13099TIP3    H160788   1.916   0.469  37.645  0.0594 -0.1721  0.3853
13099TIP3    H260789   2.059   0.493  37.602  0.5588 -0.2806  1.9301
13100TIP3   OH260790   2.661   0.295  40.493 -0.2128 -0.3621 -0.3731
13100TIP3    H160791   2.678   0.385  40.464 -0.5175 -0.4187 -0.7211
13100TIP3    H260792   2.648   0.303  40.588 -1.3594  0.1243 -0.5550
13101TIP3   OH260793   0.139   1.792  69.245  0.2893 -0.5442  0.1596
13101TIP3    H160794   0.136   1.707  69.289  1.7906 -0.8066 -0.1862
13101TIP3    H260795   0.212   1.838  69.288 -0.3424  0.4635  0.1692
13102TIP3   OH260796   2.595   0.567  24.670 -0.4961 -0.0835 -0.5487
13102TIP3    H160797   2.670   0.547  24.614  1.1257  0.1987  1.3863
13102TIP3    H260798   2.596   0.498  24.736 -1.8006  0.0730 -0.3508
13103TIP3   OH260799   2.621   1.177 103.701 -0.1139 -0.4218 -0.6897
13103TIP3    H160800   2.646   1.185 103.793  0.1137 -0.4092 -0.7520
13103TIP3    H260801   2.704   1.175 103.653 -0.1972 -1.6555 -0.8042
13104TIP3   OH260802   2.437   0.913  76.925  0.4656 -0.2570  0.0589
13104TIP3    H160803   2.411   0.841  76.982  0.9159  0.6403  1.4951
13104TIP3    H260804   2.369   0.919  76.859 -0.8004 -0.5161  1.3006
13105TIP3   OH260805   2.171   0.578  20.050  0.2046  0.5126 -0.0352
13105TIP3    H160806   2.244   0.555  19.993  1.2888  1.4491  0.9367
13105TIP3    H260807   2.191   0.667  20.080 -0.2360 -0.0237  1.9510
13106TIP3   OH260808   1.268   1.911  96.563  0.4596 -0.2245  0.2459
13106TIP3    H160809   1.217   1.927  96.642  0.4473  1.0184  0.0067
13106TIP3    H260810   1.325   1.837  96.585 -0.2122 -0.5032  1.0895
13107TIP3   OH260811   1.248   1.360  88.801  0.1692  0.2478 -0.1031
13107TIP3    H160812   1.213   1.271  88.795 -0.5242  0.6019 -2.4077
13107TIP3    H260813   1.206   1.407  88.729 -0.2011  2.7239  1.6064
13108TIP3   OH260814   0.660   1.059  11.157 -0.7356  0.2391  0.5492
13108TIP3    H160815   0.741   1.103  11.130 -0.2031 -0.4676  0.9327
13108TIP3    H260816   0.633   1.105  11.236 -0.8147  0.6039  0.3081
13109TIP3   OH260817   1.186   1.866  23.721  0.1827  0.2637 -0.1917
13109TIP3    H160818   1.160   1.841  23.810  1.5634  0.0594  0.1738
13109TIP3    H260819   1.142   1.803  23.665 -1.3418  0.8729  0.2723
13110TIP3   OH260820   1.225   2.465  79.187 -0.5805  0.6327 -0.3019
13110TIP3    H160821   1.233   2.534  79.121 -0.0448  1.2540  0.4027
13110TIP3    H260822   1.278   2.393  79.152  1.1477  1.5867  0.2420
13111TIP3   OH260823   1.442   0.055  28.998 -0.0542  0.1846  0.1981
13111TIP3    H160824   1.381  -0.001  29.045  0.0590  0.5880  0.8305
13111TIP3    H260825   1.437   0.140  29.042  0.6230  0.3475 -0.0206
13112TIP3   OH260826   2.246   0.208 104.801 -0.1067 -0.1290  0.4243
13112TIP3    H160827   2.225   0.295 104.767  2.7694  0.5503  0.1308
13112TIP3    H260828   2.258   0.153 104.724 -0.2151 -0.3366  0.5547
13113TIP3   OH260829   2.180   2.428   2.087 -0.2521  0.2389  0.2901
13113TIP3    H160830   2.201   2.398   2.175  0.3203  0.5060  0.2489
13113TIP3    H260831   2.148   2.517   2.099  0.3020  0.4559  0.1824
13114TIP3   OH260832   2.540   2.332  83.824  0.3452  0.9807 -0.4904
13114TIP3    H160833   2.566   2.361  83.736  1.5432 -0.2489 -0.5637
13114TIP3    H260834   2.511   2.412  83.868  2.3765  2.1150 -1.0906
13115TIP3   OH260835   1.020   1.769  77.417 -0.5038 -0.4120 -0.0614
13115TIP3    H160836   1.026   1.811  77.332  0.6752  0.7290  0.5492
13115TIP3    H260837   0.928   1.748  77.427 -0.6289 -0.7829 -1.7078
13116TIP3   OH260838   1.813   0.071 105.921  0.1199 -0.0058 -0.1442
13116TIP3    H160839   1.903   0.075 105.955 -0.1578 -0.1374  0.6267
13116TIP3    H260840   1.761   0.043 105.996 -0.4410 -0.8002 -0.8050
13117TIP3   OH260841   0.397   2.635  29.844  0.5469  0.5177 -0.2077
13117TIP3    H160842   0.377   2.655  29.752  2.7494  1.6610 -0.5096
13117TIP3    H260843   0.490   2.615  29.844  0.4751 -0.0130  1.7179
13118TIP3   OH260844   1.178   0.034  23.686 -0.0246 -0.0980  0.1679
13118TIP3    H160845   1.229  -0.001  23.759 -0.5701 -0.9154  0.1675
13118TIP3    H260846   1.129   0.107  23.723 -0.7570 -0.8824  0.7696
13119TIP3   OH260847   2.121   0.008  15.902 -0.1613 -0.5265 -0.3616
13119TIP3    H160848   2.172  -0.073  15.899  0.4598 -0.2331  1.4335
13119TIP3    H260849   2.179   0.075  15.865 -0.4103 -0.7502 -1.1764
13120TIP3   OH260850   1.999   2.553  47.471  0.2952 -0.1322  0.8415
13120TIP3    H160851   1.956   2.500  47.539  1.1701 -0.7668  0.9144
13120TIP3    H260852   2.060   2.609  47.520 -0.6709  1.0386  0.7809
13121TIP3   OH260853   2.093   0.115 111.946  0.2528 -0.0550  0.2880
13121TIP3    H160854   2.034   0.040 111.938  1.3048 -0.7993 -0.7621
13121TIP3    H260855   2.096   0.133 112.040 -0.7566 -0.7050  0.4584
13122TIP3   OH260856   0.037   2.342 102.721  0.5303  0.6457 -0.3542
13122TIP3    H160857   0.119   2.371 102.760  0.1253 -0.1879  1.1632
13122TIP3    H260858   0.041   2.246 102.722  0.4639  0.5777 -2.3160
13123TIP3   OH260859   0.433   0.011  95.627  0.4678 -0.6052 -0.0759
13123TIP3    H160860   0.498   0.063  95.674  0.0912 -0.3981  0.2204
13123TIP3    H260861   0.366   0.074  95.602  0.4419 -0.7972 -0.4869
13124TIP3   OH260862   1.765   1.131  18.016 -0.2651  0.0134 -0.1364
13124TIP3    H160863   1.712   1.089  18.083  0.2133 -0.1246  0.1568
13124TIP3    H260864   1.727   1.102  17.933 -0.0821 -0.8116  0.0652
13125TIP3   OH260865   1.279   0.559  76.784  0.2055 -0.0895  0.7990
13125TIP3    H160866   1.250   0.645  76.753 -1.4309 -0.7029  0.4934
13125TIP3    H260867   1.311   0.515  76.706 -1.7278 -0.7840  0.3310
13126TIP3   OH260868   1.935   2.069 106.870 -0.2019  0.2323 -0.4738
13126TIP3    H160869   1.964   1.978 106.858  0.9361  0.5273 -0.1018
13126TIP3    H260870   1.996   2.105 106.935 -0.9541  1.1207 -0.2453
13127TIP3   OH260871   0.653   2.136  16.532  0.1638 -0.1184 -0.5796
13127TIP3    H160872   0.708   2.080  16.586  0.9286  0.0320 -1.1741
13127TIP3    H260873   0.675   2.111  16.442 -0.0395  0.6080 -0.8378
13128TIP3   OH260874   1.831   1.212 105.025 -0.9097  0.0131  0.5379
13128TIP3    H160875   1.780   1.187 105.101 -1.4578  0.2287  0.2441
13128TIP3    H260876   1.898   1.144 105.017 -1.6010 -0.6727  0.4976
13129TIP3   OH260877   0.184   2.006  35.061  0.6352 -0.2932 -0.1161
13129TIP3    H160878   0.173   1.933  34.999  0.7243 -0.5097  0.1190
13129TIP3    H260879   0.277   2.005  35.083  0.4836 -0.6246  0.5133
13130TIP3   OH260880   1.167   0.670 105.623  0.1120 -0.4173  0.3205
13130TIP3    H160881   1.196   0.587 105.659 -0.1844 -1.0366 -0.8047
13130TIP3    H260882   1.104   0.646 105.555 -0.9660  0.7891  0.8567
13131TIP3   OH260883   0.694   0.870   3.777 -0.4650 -0.4600  0.5183
13131TIP3    H160884   0.745   0.902   3.703  0.5215  0.4976  1.5736
13131TIP3    H260885   0.606   0.904   3.762 -0.9236 -2.3113 -1.4348
13132TIP3   OH260886   1.895   2.099  10.259 -0.0128 -0.1444 -0.2694
13132TIP3    H160887   1.820   2.080  10.202 -0.4933  0.6327  0.0894
13132TIP3    H260888   1.879   2.188  10.291  0.3057 -0.5210  0.9946
13133TIP3   OH260889   0.149   0.993  93.659 -0.1331  0.0087 -0.0916
13133TIP3    H160890   0.128   1.032  93.744 -2.3844 -0.4670 -0.3425
13133TIP3    H260891   0.181   1.065  93.606  0.2612  0.5291  0.8303
13134TIP3   OH260892   0.247   0.543   9.957  0.2919  0.4368  0.1159
13134TIP3    H160893   0.315   0.610   9.971  2.2667 -1.3627 -0.3556
13134TIP3    H260894   0.254   0.521   9.865 -0.3066 -0.4564  0.2753
13135TIP3   OH260895   0.050   2.374  17.538 -0.1262 -0.0463  0.2909
13135TIP3    H160896   0.088   2.454  17.501  2.1918 -1.4326 -0.5601
13135TIP3    H260897   0.030   2.320  17.462 -0.8620 -0.6305  0.8865
13136TIP3   OH260898   2.058   1.460 108.026  0.4127 -0.1273  0.3228
13136TIP3    H160899   2.064   1.496 108.115 -1.0097 -1.4158  0.9739
13136TIP3    H260900   2.149   1.449 107.999  0.8736  0.2895  1.6149
13137TIP3   OH260901   2.574   1.876   2.252 -0.0294  0.2093  0.3125
13137TIP3    H160902   2.533   1.796   2.285 -0.1513  0.6160  1.1956
13137TIP3    H260903   2.509   1.914   2.193  0.1840 -0.5321 -0.4115
13138TIP3   OH260904   2.227   0.712  11.779 -0.0097 -0.2710  0.0090
13138TIP3    H160905   2.135   0.692  11.761  0.0722 -1.3797  0.6762
13138TIP3    H260906   2.266   0.627  11.800  1.0255  0.2632  0.3304
13139TIP3   OH260907   2.608   1.708  81.389  0.9975 -0.2490  0.0353
13139TIP3    H160908   2.553   1.632  81.368 -0.8695  0.6162  1.4914
13139TIP3    H260909   2.683   1.701  81.329  0.8836 -3.1969  0.0722
13140TIP3   OH260910   1.963   2.513  99.119  0.1023 -0.4679 -0.2505
13140TIP3    H160911   2.046   2.553  99.145  1.9276 -2.1477 -2.9254
13140TIP3    H260912   1.918   2.582  99.070  0.5266  0.0651  0.0951
13141TIP3   OH260913   1.143   1.538  84.771 -0.4598 -0.0613  0.3531
13141TIP3    H160914   1.063   1.583  84.745 -0.9140 -0.2276  1.4225
13141TIP3    H260915   1.131   1.448  84.739 -0.2355  0.1717 -0.4058
13142TIP3   OH260916   0.992   0.767  63.262  0.5161 -0.2745 -0.1615
13142TIP3    H160917   0.937   0.845  63.264  2.1275  0.9269  2.8788
13142TIP3    H260918   1.009   0.752  63.169 -2.1476  1.2254 -1.0147
13143TIP3   OH260919   2.034   0.241  97.744  0.7120 -0.3225  0.1627
13143TIP3    H160920   2.009   0.151  97.722  0.7472 -0.0134 -1.2690
13143TIP3    H260921   2.112   0.257  97.690 -0.5866  1.2811 -1.3299
13144TIP3   OH260922   0.766   0.728  22.255  0.4121 -0.5225 -0.1566
13144TIP3    H160923   0.707   0.664  22.215 -0.1973  0.0077 -0.1256
13144TIP3    H260924   0.846   0.721  22.204  0.2043 -1.0108 -0.4258
13145TIP3   OH260925   1.905   0.654  29.162 -0.1379  0.2585  0.5783
13145TIP3    H160926   1.968   0.722  29.187 -0.4204  1.1064 -0.8864
13145TIP3    H260927   1.929   0.578  29.215  1.4426  0.8891  0.8231
13146TIP3   OH260928   1.980   1.791  10.722  0.3048 -0.6430 -0.3235
13146TIP3    H160929   2.016   1.879  10.735 -2.0229  0.5193 -1.1944
13146TIP3    H260930   2.023   1.759  10.642  1.8445 -0.7398  0.5001
13147TIP3   OH260931   0.153   2.459   3.973 -0.4131 -0.4470 -0.2295
13147TIP3    H160932   0.073   2.465   3.921 -0.4465  1.2305 -0.0314
13147TIP3    H260933   0.126   2.477   4.063  0.0564 -0.7447 -0.0220
13148TIP3   OH260934   1.605   2.007  24.866 -0.3161 -0.1526  0.0973
13148TIP3    H160935   1.553   1.978  24.941 -0.1133 -2.1541 -0.4653
13148TIP3    H260936   1.662   1.933  24.847 -1.0376 -0.1267 -2.6344
13149TIP3   OH260937   2.430   0.324  84.426 -0.3603 -0.1966 -0.3636
13149TIP3    H160938   2.486   0.362  84.359  1.3164 -1.1613  0.4319
13149TIP3    H260939   2.375   0.261  84.379  0.2748 -0.3270 -0.9411
13150TIP3   OH260940   1.084   1.454  35.756 -0.0125  0.3414  0.1049
13150TIP3    H160941   0.997   1.449  35.718  0.3973 -3.8674 -0.8527
13150TIP3    H260942   1.075   1.414  35.843  0.6538  1.6465  0.8061
13151TIP3   OH260943   2.367   1.016  98.593 -0.0439  0.3894  0.1513
13151TIP3    H160944   2.307   0.949  98.559 -0.7556  0.7080  0.7600
13151TIP3    H260945   2.453   0.977  98.583 -0.3913 -0.3068 -0.2316
13152TIP3   OH260946   2.462   2.362  15.362  0.1267  0.4285  0.1508
13152TIP3    H160947   2.405   2.287  15.379  2.0724 -1.3646 -0.7914
13152TIP3    H260948   2.462   2.370  15.267 -0.9217  2.4169  0.2599
13153TIP3   OH260949   1.475   0.212  34.977  0.2940  0.0511  0.2528
13153TIP3    H160950   1.564   0.179  34.980  0.3471  0.1613 -0.0684
13153TIP3    H260951   1.441   0.198  35.066  0.3366 -0.8000  0.1474
13154TIP3   OH260952   0.171   1.766 103.642 -0.5025 -0.4648  0.6794
13154TIP3    H160953   0.170   1.859 103.665 -1.0760 -0.5554  1.0478
13154TIP3    H260954   0.096   1.754 103.584 -0.7363 -0.7850  1.0361
13155TIP3   OH260955   2.666   2.141  26.631 -0.3161 -0.7045  0.5683
13155TIP3    H160956   2.657   2.068  26.570  0.9186 -0.3253 -0.0984
13155TIP3    H260957   2.584   2.190  26.622 -0.0682 -0.5301 -0.9797
13156TIP3   OH260958   1.028   0.623  16.953  0.2085  0.0242  0.0915
13156TIP3    H160959   1.107   0.569  16.954  0.0503 -0.2221 -0.2827
13156TIP3    H260960   1.043   0.690  17.019  1.6764  1.3610 -1.5139
13157TIP3   OH260961   2.445   2.572   9.963  0.0978 -0.3128  0.3345
13157TIP3    H160962   2.531   2.541   9.936  0.4907  0.8610  0.1668
13157TIP3    H260963   2.390   2.494   9.965  0.6583 -0.8057 -1.5388
13158TIP3   OH260964   0.471   1.208 111.539 -0.3667  0.1893  0.2849
13158TIP3    H160965   0.442   1.257 111.616  0.8251 -0.3709  1.1268
13158TIP3    H260966   0.434   1.121 111.549 -0.1097  0.0786  0.2887
13159TIP3   OH260967   2.408   2.541  12.191  0.2828 -0.1693 -0.2846
13159TIP3    H160968   2.359   2.622  12.182  0.6002 -0.0908 -1.4466
13159TIP3    H260969   2.462   2.554  12.269  1.0664  1.1407 -1.0070
13160TIP3   OH260970   0.674   1.081  87.288  0.3930 -0.3441  0.2534
13160TIP3    H160971   0.741   1.139  87.252  0.8770 -0.3071  1.1721
13160TIP3    H260972   0.640   1.034  87.212  1.4699 -0.3714 -0.2420
13161TIP3   OH260973   1.617   0.393  10.285 -0.0907  0.7559 -0.0121
13161TIP3    H160974   1.587   0.481  10.264  1.1656  1.6326  1.5583
13161TIP3    H260975   1.708   0.391  10.256  0.2079  0.3678  0.8956
13162TIP3   OH260976   0.674   0.129   6.637  0.2803 -0.3014 -0.3498
13162TIP3    H160977   0.609   0.060   6.623 -0.1861  0.2293 -0.8337
13162TIP3    H260978   0.624   0.201   6.677  1.0411 -0.7667  1.5640
13163TIP3   OH260979   2.588   0.970  82.781 -0.1867  0.4962 -0.2646
13163TIP3    H160980   2.533   0.920  82.721 -0.0012  1.3522 -1.1799
13163TIP3    H260981   2.627   0.905  82.838 -1.6330 -0.1801 -0.0284
13164TIP3   OH260982   0.131   1.783  25.798 -0.4382  0.2854  0.6869
13164TIP3    H160983   0.148   1.862  25.747  1.1680 -0.1467  0.5049
13164TIP3    H260984   0.042   1.794  25.831 -0.6788  1.6048 -0.3379
13165TIP3   OH260985   2.587   0.764  78.899  0.0769 -0.1953 -0.2210
13165TIP3    H160986   2.570   0.715  78.819 -3.3210 -0.0933  0.2837
13165TIP3    H260987   2.563   0.703  78.969  0.2779  0.6338  0.5828
13166TIP3   OH260988   1.455   0.354  89.020 -0.1742  0.1216 -0.4647
13166TIP3    H160989   1.519   0.283  89.024 -2.5993 -2.2058  1.4855
13166TIP3    H260990   1.420   0.350  88.931 -0.6496 -1.5648 -0.2321
13167TIP3   OH260991   0.677   1.717  74.755 -0.8667 -0.4662  0.4587
13167TIP3    H160992   0.595   1.733  74.708  0.6900  1.4013 -1.8418
13167TIP3    H260993   0.717   1.643  74.709  0.0079  0.4516 -0.2904
13168TIP3   OH260994   1.296   1.978  25.885 -0.2012 -0.0624  0.1530
13168TIP3    H160995   1.214   1.932  25.867 -0.5030 -0.3566  2.0461
13168TIP3    H260996   1.273   2.071  25.876 -0.0138 -0.1766 -2.0051
13169TIP3   OH260997   2.645   0.036  10.141  0.8041 -0.0896  0.2788
13169TIP3    H160998   2.569  -0.020  10.127 -0.0862  1.2384 -0.4396
13169TIP3    H260999   2.694  -0.006  10.212 -0.7660 -0.8038  0.9793
13170TIP3   OH261000   0.059   2.494  76.215  0.5759  0.7676 -1.0257
13170TIP3    H161001  -0.016   2.538  76.255  1.3862  2.0066 -0.8066
13170TIP3    H261002   0.050   2.402  76.239  0.4672  1.2975  1.1173
13171TIP3   OH261003   1.211   0.431 111.203  0.0023 -0.2229  0.2703
13171TIP3    H161004   1.172   0.346 111.183 -0.7396 -0.0579  0.9395
13171TIP3    H261005   1.233   0.468 111.118  0.3745 -1.1047 -0.0242
13172TIP3   OH261006   0.749   1.385  17.544  0.0032 -0.6143  0.1509
13172TIP3    H161007   0.686   1.315  17.560  1.0197 -1.4085  0.8085
13172TIP3    H261008   0.736   1.447  17.616 -0.8664 -0.1103 -0.4075
13173TIP3   OH261009   1.362   2.518   6.605  0.4782 -0.2535  0.1152
13173TIP3    H161010   1.267   2.517   6.593  0.4947 -1.3822 -0.0411
13173TIP3    H261011   1.380   2.439   6.657  1.2734  0.2437  0.6201
13174TIP3   OH261012   0.477   0.841 111.480  0.4085  0.1229 -0.1886
13174TIP3    H161013   0.404   0.798 111.435  0.0294  0.6606 -0.0986
13174TIP3    H261014   0.438   0.874 111.561  1.2032 -1.3417  0.8494
13175TIP3   OH261015   1.217   2.134  18.823 -0.5149  0.2667  0.3194
13175TIP3    H161016   1.259   2.198  18.880  1.6331 -1.5722  0.9445
13175TIP3    H261017   1.235   2.167  18.734 -0.7748  1.2897  0.6323
13176TIP3   OH261018   1.657   1.172 104.016 -0.1370  0.0668  0.3231
13176TIP3    H161019   1.674   1.241 104.080 -0.4216  1.8763 -1.4766
13176TIP3    H261020   1.691   1.092 104.059  1.5499  1.5105  1.8912
13177TIP3   OH261021   0.823   2.682  34.888 -0.0402  0.2411  0.5325
13177TIP3    H161022   0.785   2.681  34.800  0.8534 -0.7514  0.1341
13177TIP3    H261023   0.833   2.775  34.909 -0.5442  0.4947 -0.2813
13178TIP3   OH261024   2.291   1.965   4.136  0.2009 -0.0991  0.2889
13178TIP3    H161025   2.289   2.044   4.191 -0.0690  0.5237 -0.5905
13178TIP3    H261026   2.238   1.902   4.185  0.6385  0.1671  1.1381
13179TIP3   OH261027   2.556   0.214  27.385  0.0632 -0.0449 -0.2265
13179TIP3    H161028   2.518   0.249  27.304 -0.5326 -1.2703 -0.4967
13179TIP3    H261029   2.546   0.285  27.448 -1.3438  0.2041 -0.6875
13180TIP3   OH261030   0.728   1.383  24.682 -0.4262  0.3722 -0.3629
13180TIP3    H161031   0.685   1.469  24.681 -1.0403  0.0667 -1.0390
13180TIP3    H261032   0.743   1.362  24.590  1.4922  0.6065 -0.1479
13181TIP3   OH261033   1.468   2.100  78.877  0.6720 -0.0501  0.0346
13181TIP3    H161034   1.483   2.134  78.789 -2.3047  1.8791  0.1350
13181TIP3    H261035   1.552   2.110  78.921  2.0366 -0.3660 -2.3000
13182TIP3   OH261036   0.584   2.308  11.153  0.1852 -0.6947  0.2336
13182TIP3    H161037   0.509   2.338  11.203  0.0567 -0.7357  0.0684
13182TIP3    H261038   0.557   2.222  11.119  0.3685 -0.7835  0.3096
13183TIP3   OH261039   1.205   1.773   0.480 -0.4770 -0.3007  0.4112
13183TIP3    H161040   1.169   1.860   0.493  1.4511  0.6541 -0.2939
13183TIP3    H261041   1.249   1.778   0.395  0.5737 -1.6375  0.8455
13184TIP3   OH261042   0.725   0.705  68.269  0.2738 -0.0398  0.1575
13184TIP3    H161043   0.738   0.794  68.236  0.6208 -0.3726 -0.6358
13184TIP3    H261044   0.785   0.697  68.343  0.2610  0.3766  0.2121
13185TIP3   OH261045   0.427   0.397  42.142 -0.1941  0.3288  0.3631
13185TIP3    H161046   0.367   0.338  42.189 -0.4170  0.3326  0.0906
13185TIP3    H261047   0.423   0.479  42.190 -0.9835  0.5621 -0.0672
13186TIP3   OH261048   1.936   0.331   5.644 -0.0873  0.4297  0.1164
13186TIP3    H161049   1.866   0.391   5.619 -0.5100  0.1796  0.6802
13186TIP3    H261050   1.898   0.277   5.713  0.8357  0.6581  0.8232
13187TIP3   OH261051   1.454   1.202  97.362 -0.2403  0.0518  0.0518
13187TIP3    H161052   1.373   1.239  97.328 -1.4377 -0.5054  2.0846
13187TIP3    H261053   1.429   1.114  97.392  1.5363 -0.7941 -0.8071
13188TIP3   OH261054   2.663   1.295  95.518 -0.0785  0.0099 -0.2562
13188TIP3    H161055   2.635   1.210  95.486  0.7398 -0.2158 -0.3773
13188TIP3    H261056   2.582   1.335  95.552 -0.4090 -0.9407  0.1075
13189TIP3   OH261057   2.067   2.661  21.010 -0.0618  0.1353 -0.3494
13189TIP3    H161058   2.135   2.680  21.074  0.7566 -0.4636 -1.0193
13189TIP3    H261059   2.109   2.676  20.925 -0.9952  0.4873 -0.7600
13190TIP3   OH261060   2.061   1.178 109.466  0.0696 -0.5300 -0.1711
13190TIP3    H161061   2.050   1.107 109.403 -1.8691  0.0828 -0.5880
13190TIP3    H261062   2.000   1.157 109.537 -0.3622  0.5788 -0.1970
13191TIP3   OH261063   0.214   1.364  91.356  0.1017 -0.2579 -0.2134
13191TIP3    H161064   0.260   1.281  91.369 -0.1891 -0.5829 -1.1135
13191TIP3    H261065   0.166   1.378  91.437 -0.0531 -1.1177 -0.1443
13192TIP3   OH261066   2.098   0.250  74.767  0.1040 -0.1305 -0.1208
13192TIP3    H161067   2.148   0.169  74.755 -0.5002 -0.4314 -0.6271
13192TIP3    H261068   2.012   0.232  74.729  0.2825  1.0831 -1.1800
13193TIP3   OH261069   0.471   2.132  68.551  0.1701 -0.1563 -0.3463
13193TIP3    H161070   0.549   2.104  68.599  1.8254  2.7421 -1.1329
13193TIP3    H261071   0.403   2.136  68.618  1.6220  0.7558  1.1557
13194TIP3   OH261072   0.642   0.008  87.080  0.3888 -0.1641 -0.5598
13194TIP3    H161073   0.623  -0.033  87.165  1.7315 -1.3116 -0.7717
13194TIP3    H261074   0.731   0.042  87.089 -0.2699  1.7509 -0.7827
13195TIP3   OH261075   1.754   0.196  85.892  1.0614  0.0696  0.1103
13195TIP3    H161076   1.687   0.257  85.861  1.7815  1.1609  0.6305
13195TIP3    H261077   1.761   0.214  85.986  1.6345 -0.4974  0.1807
13196TIP3   OH261078   0.839   0.976  94.964  0.2082 -0.2745 -0.6783
13196TIP3    H161079   0.860   0.921  95.039  0.1858  0.0849 -0.4028
13196TIP3    H261080   0.798   0.917  94.901 -2.3115 -0.0955  0.6569
13197TIP3   OH261081   2.678   2.191   4.918  0.1638  0.2017  0.2883
13197TIP3    H161082   2.611   2.205   4.985  0.1717  0.7620  0.1778
13197TIP3    H261083   2.630   2.151   4.845 -0.1977  1.2351 -0.0604
13198TIP3   OH261084   1.101   0.828  79.862  0.3528 -0.0594  0.2938
13198TIP3    H161085   1.099   0.739  79.826 -0.7110  0.2911 -0.5656
13198TIP3    H261086   1.180   0.867  79.824  0.1029 -0.2203 -0.4130
13199TIP3   OH261087   1.966   1.926 108.413  0.4076 -0.0279  0.4206
13199TIP3    H161088   1.919   1.984 108.472  1.2645  0.1472  0.9411
13199TIP3    H261089   1.968   1.842 108.459 -1.2821 -0.6462 -0.5541
13200TIP3   OH261090   0.557   2.510 110.381 -0.3575 -0.2709  0.4130
13200TIP3    H161091   0.635   2.470 110.421 -1.3634 -0.4908  2.2651
13200TIP3    H261092   0.560   2.601 110.410 -0.3502 -0.0612 -0.2345
13201TIP3   OH261093   2.459   0.626  14.041  0.3311 -0.5483  0.0856
13201TIP3    H161094   2.538   0.621  13.988  0.3046 -0.9443  0.0819
13201TIP3    H261095   2.440   0.720  14.047  1.8117 -0.2912  1.5715
13202TIP3   OH261096   2.068   0.985  79.858 -0.1654  0.2158 -0.1550
13202TIP3    H161097   2.127   0.919  79.895  0.4130  0.7517 -0.0999
13202TIP3    H261098   1.980   0.948  79.869  0.2681 -1.9077 -2.8184
13203TIP3   OH261099   1.859   2.611 103.383 -0.1103  0.5351 -0.2636
13203TIP3    H161100   1.876   2.691 103.432  0.8825 -0.4282  1.0434
13203TIP3    H261101   1.944   2.589 103.343  0.0784 -0.7214  0.7611
13204TIP3   OH261102   1.212   2.353  30.357  0.2760 -0.1935  0.3786
13204TIP3    H161103   1.228   2.264  30.324 -1.1960 -0.1022 -0.6576
13204TIP3    H261104   1.278   2.407  30.312  2.1536 -0.9155  2.1059
13205TIP3   OH261105   0.397   2.163  81.124  0.2641 -0.3424  0.3879
13205TIP3    H161106   0.436   2.158  81.037  1.1602  0.3409  0.7371
13205TIP3    H261107   0.415   2.253  81.153 -1.6325  0.0356  0.5431
13206TIP3   OH261108   2.198   2.276  86.168 -0.0331 -0.1500  0.0314
13206TIP3    H161109   2.194   2.181  86.165 -0.2208 -0.1247 -0.7480
13206TIP3    H261110   2.236   2.296  86.254 -2.6252 -0.8524  1.4536
13207TIP3   OH261111   2.202   2.131  27.523  0.2006  0.7045 -0.8247
13207TIP3    H161112   2.278   2.073  27.536 -0.7023 -0.6066 -1.2175
13207TIP3    H261113   2.129   2.085  27.565 -0.6753  1.2427 -1.7288
13208TIP3   OH261114   0.873   1.992  21.613 -0.3352 -0.7782 -0.9205
13208TIP3    H161115   0.838   1.915  21.568 -0.6146 -0.4762 -1.2162
13208TIP3    H261116   0.816   2.002  21.690 -0.2396 -0.9223 -0.8291
13209TIP3   OH261117   1.903   1.531  33.463  0.4633  0.3432 -0.4375
13209TIP3    H161118   1.982   1.555  33.415 -0.2349  1.7861 -0.9053
13209TIP3    H261119   1.847   1.489  33.398  0.7272 -0.4703 -0.1559
13210TIP3   OH261120   1.795   0.734  33.421  0.2337  0.4997 -0.0107
13210TIP3    H161121   1.887   0.750  33.444  0.7727  0.0214 -1.7194
13210TIP3    H261122   1.781   0.785  33.342 -1.4159  1.6847  0.9765
13211TIP3   OH261123   0.097   2.666 102.107  0.2996 -0.4200 -0.5126
13211TIP3    H161124   0.183   2.673 102.148  1.0421 -1.6027 -1.7466
13211TIP3    H261125   0.047   2.740 102.140  1.8240  0.3305  0.1727
13212TIP3   OH261126   0.946   1.492  23.842 -0.0269  0.1016 -0.1461
13212TIP3    H161127   1.008   1.470  23.911  0.4952  1.6849 -0.0693
13212TIP3    H261128   0.863   1.456  23.872  1.0109 -3.1058 -0.8082
13213TIP3   OH261129   1.993   0.918  16.441  0.5431 -0.5369 -0.2815
13213TIP3    H161130   1.917   0.874  16.400  0.6562 -1.2584  0.2621
13213TIP3    H261131   1.955   0.971  16.510  0.5866 -1.5767  0.5684
13214TIP3   OH261132   1.567   1.689 107.129 -0.2375  0.7031 -0.1229
13214TIP3    H161133   1.544   1.602 107.162  2.0071 -0.5127 -1.5037
13214TIP3    H261134   1.483   1.730 107.110 -1.3676 -1.1471  0.5753
13215TIP3   OH261135   1.491   0.925  87.274 -0.1507 -0.2242 -0.5889
13215TIP3    H161136   1.442   0.863  87.328 -1.2572  1.6847  0.7236
13215TIP3    H261137   1.567   0.949  87.327  0.0617 -0.1581 -0.9149
13216TIP3   OH261138   0.067   0.291  77.920  0.5405 -0.3158  0.0373
13216TIP3    H161139   0.159   0.264  77.920  0.5119 -0.4436 -0.6764
13216TIP3    H261140   0.043   0.295  78.012  2.0373  2.3591  0.4332
13217TIP3   OH261141   2.264   2.473 109.231  0.2627  0.3300 -0.0824
13217TIP3    H161142   2.287   2.380 109.231  1.3253  0.5783 -0.6785
13217TIP3    H261143   2.290   2.504 109.144 -1.1930  0.9310 -0.3220
13218TIP3   OH261144   0.484   2.336  15.928 -0.1619 -0.4865  0.0333
13218TIP3    H161145   0.394   2.309  15.907 -0.7197  1.2469  0.0355
13218TIP3    H261146   0.509   2.281  16.003 -0.8139 -1.7082 -0.6099
13219TIP3   OH261147   0.993   2.166  32.589  0.4500 -0.1560  0.3187
13219TIP3    H161148   1.020   2.244  32.541  0.5327  0.2743  1.0516
13219TIP3    H261149   1.007   2.188  32.681 -1.0879 -0.4184  0.6454
13220TIP3   OH261150   0.475   0.887 104.086 -0.0790  0.4966 -0.5353
13220TIP3    H161151   0.505   0.940 104.159  1.1833  1.6551 -1.8469
13220TIP3    H261152   0.513   0.928 104.009 -3.4208  0.8690 -2.1723
13221TIP3   OH261153   1.480   1.705   2.973 -0.4073 -0.3036  0.1267
13221TIP3    H161154   1.426   1.735   3.046 -0.1894 -1.9776  1.0312
13221TIP3    H261155   1.569   1.713   3.005 -0.2610 -0.1822 -0.3109
13222TIP3   OH261156   2.518   1.307 105.446 -0.5491  0.2890  0.2494
13222TIP3    H161157   2.466   1.329 105.369  0.8897  2.0698 -0.2811
13222TIP3    H261158   2.464   1.337 105.520 -1.5531 -0.6309 -0.0796
13223TIP3   OH261159   1.093   2.655 103.785  0.1937 -0.6999 -0.4380
13223TIP3    H161160   1.081   2.728 103.725  1.6274 -0.7968 -0.8547
13223TIP3    H261161   1.010   2.607 103.780 -0.8402  0.9325 -0.0533
13224TIP3   OH261162   0.718   0.194 110.988  0.0593 -0.3871  0.2281
13224TIP3    H161163   0.696   0.201 111.081  0.7291 -1.3908  0.4733
13224TIP3    H261164   0.641   0.153 110.949 -0.5680  0.7931  0.1837
13225TIP3   OH261165   1.466   2.654  90.276  0.1484 -0.3764 -0.2593
13225TIP3    H161166   1.543   2.711  90.277 -0.1877  0.0704  0.6316
13225TIP3    H261167   1.501   2.566  90.294  0.3251 -0.0113  1.2598
13226TIP3   OH261168   2.171   0.480  10.450 -0.1627 -0.0782  0.1277
13226TIP3    H161169   2.140   0.403  10.403 -0.1829 -0.6896  1.1402
13226TIP3    H261170   2.166   0.551  10.385 -0.2601 -0.8938 -0.7678
13227TIP3   OH261171   0.418   1.738  14.558 -0.3624 -1.1338 -0.2856
13227TIP3    H161172   0.481   1.700  14.619  1.1597 -0.1797 -1.1807
13227TIP3    H261173   0.463   1.738  14.473 -1.4595 -0.1746 -0.9103
13228TIP3   OH261174   2.282   0.320   4.493 -0.1206 -0.0998  0.7982
13228TIP3    H161175   2.345   0.249   4.503  0.1551  0.2317  1.4990
13228TIP3    H261176   2.228   0.294   4.419  0.5137 -0.6342  0.5095
13229TIP3   OH261177   0.210   2.459  78.470  0.1394  0.2532  0.6248
13229TIP3    H161178   0.187   2.367  78.457 -2.0541  0.6658  1.2454
13229TIP3    H261179   0.222   2.493  78.381  0.0997 -0.4219  0.3559
13230TIP3   OH261180   0.492   1.551  34.939  0.1321  0.1937  0.4341
13230TIP3    H161181   0.412   1.579  34.985 -0.3827  0.0161 -0.3271
13230TIP3    H261182   0.553   1.529  35.009  0.2294  2.2792  1.0765
13231TIP3   OH261183   1.661   2.485  92.501 -0.1197  0.0292  0.3583
13231TIP3    H161184   1.695   2.405  92.540 -1.1719 -0.4473  0.3222
13231TIP3    H261185   1.616   2.529  92.573 -0.3945  0.1050  0.1399
13232TIP3   OH261186   1.746   1.694  83.588  0.2011 -0.0956 -0.7820
13232TIP3    H161187   1.717   1.659  83.504 -2.1207 -0.9035  0.2563
13232TIP3    H261188   1.801   1.769  83.566 -0.8467  0.0778 -3.0131
13233TIP3   OH261189   1.023   2.343  63.098 -0.6120  0.0885 -0.4047
13233TIP3    H161190   1.082   2.304  63.162 -0.4171  1.1168  0.0699
13233TIP3    H261191   1.082   2.388  63.037 -0.8638  0.3604 -0.4494
13234TIP3   OH261192   1.927   2.024  12.039  0.3144 -0.0105  0.2099
13234TIP3    H161193   1.990   1.957  12.064 -0.4952 -0.5531  0.8619
13234TIP3    H261194   1.972   2.107  12.055  1.0303 -0.3940  0.1927
13235TIP3   OH261195   1.610   2.673  73.686 -0.1766  0.3238  0.0118
13235TIP3    H161196   1.705   2.672  73.687 -0.1599 -1.0431  1.6192
13235TIP3    H261197   1.587   2.766  73.675  1.3755  0.9943  1.8402
13236TIP3   OH261198   1.639   2.242  90.803 -0.8259  0.0758 -0.2199
13236TIP3    H161199   1.562   2.185  90.807 -1.4083  0.8359 -0.3464
13236TIP3    H261200   1.690   2.219  90.881  0.0051 -2.0437 -1.3100
13237TIP3   OH261201   2.505   1.482  82.402  0.0703  0.4912  0.2047
13237TIP3    H161202   2.547   1.426  82.468 -0.4765  0.1930  0.3032
13237TIP3    H261203   2.459   1.549  82.453  1.1034  1.3324  0.0850
13238TIP3   OH261204   1.671   2.382 102.939  0.2962  0.4570  0.7398
13238TIP3    H161205   1.673   2.412 103.030  0.9173  0.5248  0.7041
13238TIP3    H261206   1.725   2.445 102.891 -0.1273  0.4914  0.3018
13239TIP3   OH261207   2.520   1.608  36.058 -0.3584  0.5177 -0.9424
13239TIP3    H161208   2.587   1.644  35.999 -1.7969  0.2440 -2.8491
13239TIP3    H261209   2.438   1.639  36.021 -1.3121  1.6430  1.8832
13240TIP3   OH261210   2.676   0.377  80.512 -0.2921 -0.0071 -0.0977
13240TIP3    H161211   2.704   0.423  80.591  1.6504 -0.9330 -0.1791
13240TIP3    H261212   2.727   0.417  80.442 -0.7629 -0.2969 -0.6137
13241TIP3   OH261213   2.061   1.832  76.391 -0.1389 -0.1791  0.0494
13241TIP3    H161214   2.138   1.803  76.440 -0.1236  0.8991  0.6779
13241TIP3    H261215   2.062   1.927  76.398 -1.7085 -0.1582  0.3172
13242TIP3   OH261216   0.315   1.071  21.121  0.5406 -0.2889 -0.6725
13242TIP3    H161217   0.280   1.009  21.186 -0.7930  0.0026 -1.0853
13242TIP3    H261218   0.326   1.153  21.170 -0.1645 -0.1559 -0.7267
13243TIP3   OH261219   2.269   1.309  92.414 -0.1734  0.0412  0.1854
13243TIP3    H161220   2.361   1.328  92.394 -0.3013  0.3498 -0.1444
13243TIP3    H261221   2.220   1.368  92.356 -0.5728  0.1685  0.6457
13244TIP3   OH261222   1.958   2.210  13.708 -0.1350  0.3910 -0.2338
13244TIP3    H161223   1.924   2.204  13.797 -1.9592  0.2888 -0.8940
13244TIP3    H261224   2.044   2.168  13.712 -0.4342 -0.1233  1.3488
13245TIP3   OH261225   0.695   1.581 109.490 -0.7317 -0.1835 -0.3743
13245TIP3    H161226   0.632   1.526 109.536  0.3687  0.9360  2.6747
13245TIP3    H261227   0.761   1.521 109.457 -0.9214 -0.9407  0.5892
13246TIP3   OH261228   0.986   1.377 110.496  0.1560  0.3799  0.0728
13246TIP3    H161229   1.011   1.469 110.494 -1.1297  0.8338  2.1407
13246TIP3    H261230   0.906   1.373 110.444 -0.8906  0.8542  1.5912
13247TIP3   OH261231   0.194   2.452  44.952  0.2256 -0.2474 -0.4390
13247TIP3    H161232   0.170   2.537  44.915  0.8675 -0.1379 -0.6192
13247TIP3    H261233   0.166   2.388  44.887  0.7240 -0.0986 -0.8079
13248TIP3   OH261234   2.607   1.677  76.630  0.2617  0.2522  0.2229
13248TIP3    H161235   2.587   1.622  76.554  0.6052 -0.1420  0.4167
13248TIP3    H261236   2.582   1.623  76.705 -1.7752  1.3110  0.3724
13249TIP3   OH261237   1.501   1.959  33.116  0.0985 -0.1096 -0.5958
13249TIP3    H161238   1.592   1.959  33.087  0.1375 -1.7205 -0.5630
13249TIP3    H261239   1.506   1.952  33.211  0.0142 -3.0785 -0.7035
13250TIP3   OH261240   1.781   2.632  85.081 -0.6550  0.7555  0.6122
13250TIP3    H161241   1.777   2.577  85.159  0.2122  1.1278  0.9295
13250TIP3    H261242   1.799   2.572  85.009  1.3879  0.6862  1.1064
13251TIP3   OH261243   2.610   0.303  81.781 -0.3212  0.1795  0.2863
13251TIP3    H161244   2.598   0.242  81.853  1.4534 -1.1917 -0.5163
13251TIP3    H261245   2.589   0.252  81.702  1.0337  0.6098 -0.3840
13252TIP3   OH261246   2.529   2.404  99.907 -0.0631  0.7085 -0.2530
13252TIP3    H161247   2.578   2.370  99.832  0.3835  0.5380  0.1015
13252TIP3    H261248   2.535   2.334  99.972 -0.8324  0.6712 -0.2219
13253TIP3   OH261249   2.309   1.791 100.819 -0.6081 -0.3335  0.4216
13253TIP3    H161250   2.303   1.697 100.802  1.7935 -0.8311  1.8567
13253TIP3    H261251   2.312   1.831 100.732 -1.8965 -1.5315 -0.2108
13254TIP3   OH261252   2.230   2.644  24.094  0.4379 -0.2897 -0.4371
13254TIP3    H161253   2.175   2.568  24.113  1.7316 -1.1597 -0.1056
13254TIP3    H261254   2.201   2.710  24.158 -1.2960 -0.1484 -1.2990
13255TIP3   OH261255   0.882   2.078 110.986  0.1568  0.1386  0.6110
13255TIP3    H161256   0.828   2.157 110.982  1.6218  1.1218 -1.0205
13255TIP3    H261257   0.946   2.095 111.056  0.5793  0.4849  0.1427
13256TIP3   OH261258   2.071   0.123  84.051  0.0581  0.3664 -0.3541
13256TIP3    H161259   2.113   0.038  84.039  0.1481  0.5687 -1.5628
13256TIP3    H261260   2.030   0.117  84.138  0.2359 -0.8302 -0.3303
13257TIP3   OH261261   0.263   1.925  90.402  0.4248  0.4019 -0.6260
13257TIP3    H161262   0.273   1.882  90.487  0.4258  1.0548 -0.2923
13257TIP3    H261263   0.200   1.871  90.355 -1.5424  1.4089  0.7288
13258TIP3   OH261264   1.323   1.553  15.728 -0.1373 -0.2298  0.1115
13258TIP3    H161265   1.273   1.626  15.693 -1.4235 -1.0074  0.2628
13258TIP3    H261266   1.372   1.590  15.801 -1.0191  0.4185  0.3873
13259TIP3   OH261267   2.300   0.727  24.348 -0.0949  0.3286 -0.5184
13259TIP3    H161268   2.327   0.673  24.423 -1.2247  0.5414  0.0614
13259TIP3    H261269   2.370   0.791  24.338  0.2892  0.0141  0.0731
13260TIP3   OH261270   1.963   2.284  76.273  0.0694  0.2324  0.3292
13260TIP3    H161271   1.969   2.205  76.220 -0.8426 -0.3890  1.1204
13260TIP3    H261272   2.013   2.264  76.352 -0.5962  0.2422  0.7570
13261TIP3   OH261273   2.274   0.851  25.837 -0.0528 -0.0310 -0.5562
13261TIP3    H161274   2.307   0.895  25.759 -2.5988  1.0671 -1.1377
13261TIP3    H261275   2.244   0.922  25.893  0.0376 -0.8865  0.5962
13262TIP3   OH261276   2.588   2.459  69.452  0.1221 -0.3818 -0.0673
13262TIP3    H161277   2.519   2.442  69.387  0.6450  1.7912 -1.2774
13262TIP3    H261278   2.550   2.524  69.511  0.9226  0.4574 -0.4499
13263TIP3   OH261279   1.013   2.176  35.754  0.3915  0.2642 -0.3334
13263TIP3    H161280   1.031   2.155  35.663 -1.1824  0.7250 -0.7826
13263TIP3    H261281   1.002   2.271  35.755 -0.8422  0.1317  0.0838
13264TIP3   OH261282   0.913   2.090   3.806  0.0363  0.1398  0.1519
13264TIP3    H161283   0.821   2.067   3.794  0.5780 -1.5269 -1.0580
13264TIP3    H261284   0.947   2.023   3.866  0.8101 -0.1443 -0.5919
13265TIP3   OH261285   1.087   0.699  19.210  0.7399 -0.0395 -0.4652
13265TIP3    H161286   1.061   0.621  19.162  2.4469  0.0513 -1.6472
13265TIP3    H261287   1.065   0.680  19.301  0.3672 -1.5457 -0.8417
13266TIP3   OH261288   0.539   1.316  21.420  0.1641 -0.5957  0.6142
13266TIP3    H161289   0.485   1.396  21.418 -0.7361 -1.1960  0.1133
13266TIP3    H261290   0.480   1.249  21.454  0.9008 -1.0723  0.9795
13267TIP3   OH261291   0.920   1.474  23.397  0.3220 -0.2233 -0.2528
13267TIP3    H161292   0.988   1.504  23.337  0.9710  0.0967  0.6128
13267TIP3    H261293   0.892   1.554  23.442  0.0527 -0.4988  0.0717
13268TIP3   OH261294   1.738   1.326  35.377  0.1523 -0.6016 -0.4733
13268TIP3    H161295   1.795   1.403  35.376 -1.9843  1.1010 -0.8152
13268TIP3    H261296   1.727   1.303  35.285  1.9923 -2.3452 -0.3056
13269TIP3   OH261297   2.154   1.230  22.050  0.1895  0.0615  0.0532
13269TIP3    H161298   2.164   1.323  22.028  0.3809  0.0774  0.2096
13269TIP3    H261299   2.235   1.207  22.096  0.6968 -0.5118 -1.0992
13270TIP3   OH261300   1.293   1.048 105.408 -0.0647  0.0648 -0.1923
13270TIP3    H161301   1.217   1.088 105.451  0.2338  1.2190 -0.6840
13270TIP3    H261302   1.362   1.114 105.415  0.9939 -1.0710  0.4929
13271TIP3   OH261303   0.004   1.598  77.936 -0.3484 -0.0832  0.2168
13271TIP3    H161304  -0.045   1.646  78.003 -0.3119 -1.3055  1.1457
13271TIP3    H261305  -0.060   1.539  77.897  0.1682 -1.0418  0.8054
13272TIP3   OH261306   0.040   1.143  31.478  0.3106  0.5971  0.3644
13272TIP3    H161307   0.014   1.212  31.416  1.3197 -0.3366 -1.1634
13272TIP3    H261308   0.106   1.185  31.534 -1.1590  1.6775  1.3733
13273TIP3   OH261309   1.815   2.155  32.320 -0.5447  0.3583  0.2904
13273TIP3    H161310   1.902   2.127  32.292 -1.0002 -0.6436 -0.1643
13273TIP3    H261311   1.807   2.245  32.287  1.2436  1.3917  2.4380
13274TIP3   OH261312   0.896   1.638  97.072 -0.1571 -0.6075 -0.2314
13274TIP3    H161313   0.961   1.596  97.015  1.1204 -0.3095  0.9566
13274TIP3    H261314   0.869   1.568  97.132 -0.3894 -0.5388 -0.2511
13275TIP3   OH261315   1.190   0.760 111.736  0.4576  0.2602 -0.1564
13275TIP3    H161316   1.112   0.768 111.790 -1.2837  2.5266 -2.7443
13275TIP3    H261317   1.243   0.837 111.758  0.8647 -0.0482 -0.0415
13276TIP3   OH261318   1.618   2.554   0.548  0.3197  0.2094  0.2692
13276TIP3    H161319   1.621   2.648   0.528 -1.5279  0.4837  1.1119
13276TIP3    H261320   1.527   2.529   0.533  0.3257 -1.0065  2.0242
13277TIP3   OH261321   0.586   1.803  34.846  0.3537  0.0091 -0.0727
13277TIP3    H161322   0.545   1.724  34.881 -0.0032 -0.4065 -1.3720
13277TIP3    H261323   0.665   1.771  34.801  0.9503  0.5573  0.5757
13278TIP3   OH261324   2.588   1.199   5.963  0.1412 -0.2720 -0.0599
13278TIP3    H161325   2.663   1.148   5.994 -0.6220 -0.7122  1.1717
13278TIP3    H261326   2.583   1.274   6.022  0.3358  0.4231 -0.9052
13279TIP3   OH261327   0.440   0.577   3.867  0.0939  0.4864  0.1144
13279TIP3    H161328   0.461   0.609   3.779  1.1360  1.1789  0.6032
13279TIP3    H261329   0.352   0.612   3.885  0.3289  1.2632 -0.2122
13280TIP3   OH261330   1.882   1.909  23.595  0.3238 -0.3927 -0.1313
13280TIP3    H161331   1.957   1.862  23.631  0.2426  1.0223  2.0459
13280TIP3    H261332   1.825   1.840  23.561  1.2913 -1.6843  0.7675
13281TIP3   OH261333   1.178   0.739 100.784  0.0209  0.6017  0.3658
13281TIP3    H161334   1.127   0.734 100.703  0.3117  3.6256 -0.1113
13281TIP3    H261335   1.130   0.684 100.845 -0.8369 -0.8744 -1.5096
13282TIP3   OH261336   1.916   0.348   2.205  0.1188  0.0483  0.1148
13282TIP3    H161337   1.904   0.282   2.137 -0.3222  0.4413 -0.1996
13282TIP3    H261338   2.006   0.337   2.234  0.9180  1.0563 -1.8296
13283TIP3   OH261339   2.254   0.138  48.952  0.6573  0.2518 -0.2494
13283TIP3    H161340   2.193   0.144  48.878  1.3526 -0.6517 -0.9200
13283TIP3    H261341   2.315   0.210  48.940  1.7151 -0.8109 -1.4612
13284TIP3   OH261342   1.567   0.534  17.885  0.1799 -0.1677  0.3055
13284TIP3    H161343   1.623   0.590  17.939  0.4361  0.6462 -0.7758
13284TIP3    H261344   1.562   0.452  17.933  0.8955  0.3343  1.2692
13285TIP3   OH261345   0.080   1.165 101.765 -0.3110 -0.5132 -0.0561
13285TIP3    H161346   0.036   1.153 101.681  0.3011  1.0213 -0.6273
13285TIP3    H261347   0.011   1.192 101.825 -0.3872  0.6658 -0.6493
13286TIP3   OH261348   0.125   1.178 103.906 -0.3088  0.3437  0.1833
13286TIP3    H161349   0.096   1.128 103.983 -1.9499 -0.8812 -1.1402
13286TIP3    H261350   0.209   1.138 103.883 -1.3105 -1.5081 -0.4950
13287TIP3   OH261351   1.519   2.598  92.690  0.1741 -0.2860 -0.0492
13287TIP3    H161352   1.517   2.648  92.772 -0.2494 -1.1414  0.4709
13287TIP3    H261353   1.470   2.652  92.628  0.5335  0.3904  0.2374
13288TIP3   OH261354   0.141   2.475  15.254  0.2601  0.1720  0.2442
13288TIP3    H161355   0.082   2.540  15.217  0.1611  1.3792  2.3619
13288TIP3    H261356   0.093   2.393  15.250 -0.7404  0.7543  0.0749
13289TIP3   OH261357   2.460   2.328  84.218 -0.2714 -0.4722 -0.0640
13289TIP3    H161358   2.533   2.315  84.157 -1.4487 -1.1283 -1.3647
13289TIP3    H261359   2.498   2.381  84.289  1.2904 -0.2029 -1.0512
13290TIP3   OH261360   0.578   1.344   3.237  0.1078  0.2759 -0.2430
13290TIP3    H161361   0.585   1.260   3.282 -0.3762  0.5740  0.4166
13290TIP3    H261362   0.666   1.361   3.203 -0.2456 -1.4711 -2.2198
13291TIP3   OH261363   0.939   1.327  31.421  0.0177  0.4144 -0.4559
13291TIP3    H161364   0.852   1.301  31.390  0.9781 -1.7823 -1.5124
13291TIP3    H261365   0.962   1.260  31.485  0.3668  1.8301  0.9759
13292TIP3   OH261366   2.203   2.592 101.858 -0.0697  0.2703  0.1299
13292TIP3    H161367   2.281   2.536 101.862 -0.7584 -0.8084 -0.7882
13292TIP3    H261368   2.191   2.610 101.765 -1.8967 -1.0843  0.0319
13293TIP3   OH261369   0.359   2.129 101.154  0.0999  0.2046 -0.5048
13293TIP3    H161370   0.371   2.162 101.066  0.1945 -0.9292 -0.9436
13293TIP3    H261371   0.294   2.059 101.145 -0.0761  0.2320  0.3667
13294TIP3   OH261372   1.671   2.320  82.993  0.0905  0.6133  0.9055
13294TIP3    H161373   1.663   2.346  83.085 -1.2559  0.9214  0.7201
13294TIP3    H261374   1.590   2.350  82.952  0.1651 -0.5318 -0.1407
13295TIP3   OH261375   1.480   0.859 110.817  0.3725 -0.3456  0.1413
13295TIP3    H161376   1.407   0.903 110.860  1.5057  0.2317  1.5508
13295TIP3    H261377   1.473   0.768 110.846 -2.3867 -1.4635 -3.3180
13296TIP3   OH261378   1.934   2.098  88.815  0.2543  0.0503  0.2159
13296TIP3    H161379   1.900   2.023  88.864 -1.1999 -0.6799 -1.8037
13296TIP3    H261380   2.021   2.113  88.852  0.3118 -2.1985  1.1343
13297TIP3   OH261381   2.159   1.209   4.670 -0.2932  0.3106  0.7502
13297TIP3    H161382   2.189   1.295   4.641 -0.0637 -0.3140 -0.9713
13297TIP3    H261383   2.239   1.159   4.685 -0.4299  0.3094  1.5365
13298TIP3   OH261384   1.855   1.167  98.921 -0.4282 -0.0352 -0.1703
13298TIP3    H161385   1.922   1.182  98.987 -0.3777  0.3941 -0.3103
13298TIP3    H261386   1.825   1.255  98.898 -0.1869 -0.1596 -0.9864
13299TIP3   OH261387   2.597   1.954  78.097  0.2255 -0.8209 -0.3661
13299TIP3    H161388   2.668   1.960  78.032  1.1428 -2.3254  0.4405
13299TIP3    H261389   2.523   1.920  78.047  0.2194  0.2046 -1.0995
13300TIP3   OH261390   2.105   1.961  29.344  0.6309 -0.1524  0.2576
13300TIP3    H161391   2.034   2.000  29.293  1.6413 -1.8731 -2.6652
13300TIP3    H261392   2.185   2.000  29.308  1.3573  1.1550  2.9485
13301TIP3   OH261393   2.267   0.381  16.511 -0.0034 -0.4081  0.4480
13301TIP3    H161394   2.230   0.335  16.586 -0.2573 -0.0687  0.5338
13301TIP3    H261395   2.191   0.408  16.459  0.1978 -1.2276 -0.2854
13302TIP3   OH261396   0.856   0.192   1.952  0.3133  0.3005 -0.3468
13302TIP3    H161397   0.815   0.106   1.947 -0.5372  0.4211  2.6039
13302TIP3    H261398   0.788   0.252   1.921 -0.6690  0.1994  1.4435
13303TIP3   OH261399   1.442   0.834  76.253  0.5072  0.0060 -0.2602
13303TIP3    H161400   1.461   0.760  76.195  1.2808  1.1925 -1.5896
13303TIP3    H261401   1.498   0.820  76.329  1.1027 -0.4501 -0.7749
13304TIP3   OH261402   0.314   0.558  22.035  0.2438 -0.0099 -0.6445
13304TIP3    H161403   0.346   0.476  22.074  0.7395 -0.0697 -1.1620
13304TIP3    H261404   0.305   0.538  21.942  1.2085  0.7652 -0.9240
13305TIP3   OH261405   2.678   2.063  98.638  0.3642  0.3006  0.1755
13305TIP3    H161406   2.706   2.150  98.667 -0.6360  0.3404  1.1094
13305TIP3    H261407   2.746   2.004  98.670  0.7584  0.6726  0.0362
13306TIP3   OH261408   1.059   2.354  13.806  0.3162  0.2224  0.3581
13306TIP3    H161409   0.971   2.320  13.825  0.1785 -0.4080 -1.1952
13306TIP3    H261410   1.098   2.371  13.891 -0.8033 -0.8156  1.1074
13307TIP3   OH261411   2.310   2.030  36.669  0.1295  0.1667 -0.3596
13307TIP3    H161412   2.308   1.960  36.604  0.9469  1.4086 -1.8049
13307TIP3    H261413   2.371   2.094  36.633  0.8911  0.7652  1.8379
13308TIP3   OH261414   0.375   2.556  94.972  0.0657 -0.3828 -0.4631
13308TIP3    H161415   0.343   2.531  95.058  0.0016  0.9465 -0.0788
13308TIP3    H261416   0.318   2.509  94.911  0.5740 -1.9153  0.1776
13309TIP3   OH261417   2.547   1.522  78.199 -0.3679 -0.0196  0.2261
13309TIP3    H161418   2.625   1.577  78.208 -1.5919  1.6990  0.9061
13309TIP3    H261419   2.521   1.501  78.288  0.2024 -1.9882 -0.0216
13310TIP3   OH261420   0.440   0.848  16.780 -0.1626  0.2475  0.1984
13310TIP3    H161421   0.530   0.836  16.811  1.3568  0.4011 -3.5085
13310TIP3    H261422   0.407   0.922  16.831  2.7045  1.6780  0.2357
13311TIP3   OH261423   1.365   2.592  19.062  0.2602 -0.2265  0.0654
13311TIP3    H161424   1.323   2.656  19.004  0.4648  0.4431  0.6445
13311TIP3    H261425   1.444   2.635  19.093 -0.0559 -0.4056  1.1675
13312TIP3   OH261426   1.242   2.198  14.421 -0.2922 -0.5563 -0.0505
13312TIP3    H161427   1.302   2.246  14.479  0.4869  1.2348 -2.2053
13312TIP3    H261428   1.188   2.147  14.481  1.0732  0.4408  2.1982
13313TIP3   OH261429   1.377   1.959   9.104 -0.3364  0.2288 -0.1805
13313TIP3    H161430   1.396   1.957   9.197  1.3551  0.3384 -0.4898
13313TIP3    H261431   1.310   1.892   9.091  0.6583 -1.0110  0.8541
13314TIP3   OH261432   2.600   2.331  94.695 -0.2347  0.3656 -0.0227
13314TIP3    H161433   2.512   2.366  94.706 -0.4965 -0.4114  0.3830
13314TIP3    H261434   2.614   2.331  94.600 -0.1283  1.7958 -0.0279
13315TIP3   OH261435   1.530   2.466  51.997  0.3680 -0.0721 -0.2799
13315TIP3    H161436   1.469   2.491  51.928  2.5814  1.5068 -1.7868
13315TIP3    H261437   1.535   2.543  52.054  1.2684 -0.0109 -0.4297
13316TIP3   OH261438   0.420   1.098  76.089 -0.5946 -0.3108 -0.3896
13316TIP3    H161439   0.469   1.076  76.010  2.0785  1.8632  0.5192
13316TIP3    H261440   0.426   1.019  76.144 -0.4580 -1.0161 -1.3913
13317TIP3   OH261441   2.529   2.495  38.213  0.1386 -0.1954  0.0662
13317TIP3    H161442   2.590   2.422  38.225  0.1700  0.1767  2.8636
13317TIP3    H261443   2.579   2.572  38.240 -0.6295  0.5503 -0.5946
13318TIP3   OH261444   0.818   2.381  89.454  0.1532  0.1813 -0.2123
13318TIP3    H161445   0.763   2.390  89.531  0.3564  1.7232 -0.2114
13318TIP3    H261446   0.762   2.408  89.381 -0.2718 -1.9520 -0.7585
13319TIP3   OH261447   0.921   1.814 101.373  0.2052  0.1927  0.0074
13319TIP3    H161448   0.892   1.903 101.393  0.7576  0.2711  0.4952
13319TIP3    H261449   0.970   1.823 101.292  2.4375  0.8056  1.3190
13320TIP3   OH261450   2.255   0.480  28.308  0.5062 -0.4684 -0.2234
13320TIP3    H161451   2.323   0.429  28.264  3.4877  1.6997  1.5432
13320TIP3    H261452   2.219   0.420  28.374  0.5149 -1.7149 -1.3159
13321TIP3   OH261453   1.614   2.452  24.926  0.6093  0.5248 -0.1832
13321TIP3    H161454   1.644   2.537  24.958  0.9246  0.8196 -1.2211
13321TIP3    H261455   1.561   2.416  24.998 -0.5043  2.1124 -0.1626
13322TIP3   OH261456   0.905   0.225  24.861 -0.0303  0.1818  0.3513
13322TIP3    H161457   0.996   0.243  24.885 -0.2466 -0.3068  1.6491
13322TIP3    H261458   0.908   0.203  24.768  0.9888  1.4250  0.0477
13323TIP3   OH261459   0.338   0.146  19.724  0.2776 -0.4168  0.1835
13323TIP3    H161460   0.293   0.180  19.646 -1.3911 -0.7806  0.9389
13323TIP3    H261461   0.298   0.193  19.797  1.9964  0.1058  0.8514
13324TIP3   OH261462   0.900   0.847  97.337  0.1160  0.1863  0.3364
13324TIP3    H161463   0.831   0.812  97.393 -0.8329  0.8629 -0.3793
13324TIP3    H261464   0.938   0.771  97.294  1.0167 -0.3702  2.0270
13325TIP3   OH261465   0.761   2.611 108.006  0.6008 -0.2022 -0.4843
13325TIP3    H161466   0.717   2.684 108.050 -0.3756 -0.3608 -1.1655
13325TIP3    H261467   0.751   2.537 108.065  1.3942  0.1510  0.1061
13326TIP3   OH261468   2.377   2.482  20.721 -0.8006  0.4204  0.0238
13326TIP3    H161469   2.435   2.414  20.754  0.5315  1.6386  0.3095
13326TIP3    H261470   2.358   2.458  20.631  1.5864  0.8571 -0.6433
13327TIP3   OH261471   1.215   0.907  85.093 -0.8050  0.0811  0.0814
13327TIP3    H161472   1.287   0.890  85.153 -2.1142  1.1970  2.0951
13327TIP3    H261473   1.237   0.858  85.013  3.4882  2.5182 -0.4945
13328TIP3   OH261474   0.303   0.521 111.418  0.4806  0.2388  0.1622
13328TIP3    H161475   0.228   0.463 111.409  0.3190  0.6793 -1.8265
13328TIP3    H261476   0.266   0.605 111.446  0.0787  0.6711 -1.5410
13329TIP3   OH261477   2.301   1.808 109.744 -0.4114  0.7479 -0.0664
13329TIP3    H161478   2.284   1.766 109.661 -0.2913 -1.0573  0.7780
13329TIP3    H261479   2.393   1.787 109.764 -0.6144  0.6246  0.8043
13330TIP3   OH261480   1.334   2.503 100.717  0.0985 -0.2766 -0.0704
13330TIP3    H161481   1.294   2.582 100.682 -1.7305 -1.3569 -0.6158
13330TIP3    H261482   1.366   2.456 100.640 -1.6924 -1.4888 -0.1519
13331TIP3   OH261483   0.847   2.592  19.080 -0.5670 -0.0500  0.2339
13331TIP3    H161484   0.896   2.511  19.072 -1.9168 -0.7962 -1.0278
13331TIP3    H261485   0.899   2.657  19.032  0.0587 -0.3960  0.4413
13332TIP3   OH261486   0.085   0.078  29.930  0.5999  0.5986 -0.0619
13332TIP3    H161487   0.092   0.116  30.017 -1.2713 -1.0994  0.9011
13332TIP3    H261488   0.136  -0.003  29.935 -1.4774 -0.7522  0.2794
13333TIP3   OH261489   0.926   2.003   1.785 -0.3729 -0.0092 -0.1867
13333TIP3    H161490   0.950   1.913   1.808  0.3374  0.7391  2.4235
13333TIP3    H261491   0.873   2.032   1.859 -0.8740  1.6321 -1.1459
13334TIP3   OH261492   1.362   2.678  96.593 -0.3112 -0.2541  0.1236
13334TIP3    H161493   1.445   2.688  96.639 -0.5186 -2.8782  1.2663
13334TIP3    H261494   1.358   2.753  96.533  3.0313 -0.2606 -0.2705
13335TIP3   OH261495   2.559   0.187  14.861  0.0150  0.2820 -0.4383
13335TIP3    H161496   2.477   0.210  14.905  0.4283 -0.0827  0.5675
13335TIP3    H261497   2.538   0.112  14.806 -0.0684 -0.6764  0.8398
13336TIP3   OH261498   0.731   2.273  96.026  0.0977 -0.0042  0.1656
13336TIP3    H161499   0.656   2.329  96.047 -0.1626  0.8386 -2.6412
13336TIP3    H261500   0.801   2.333  96.002  0.7185 -0.8348 -0.1735
13337TIP3   OH261501   1.750   1.115 111.075 -0.0633 -0.0087  0.1402
13337TIP3    H161502   1.793   1.045 111.124 -0.6952 -0.7309 -0.3194
13337TIP3    H261503   1.750   1.085 110.984 -0.8742  0.3137  0.0264
13338TIP3   OH261504   1.716   0.611  36.599 -0.7589  0.6766 -0.1084
13338TIP3    H161505   1.624   0.613  36.574 -0.9259  0.5091  0.4926
13338TIP3    H261506   1.727   0.684  36.660 -0.4926  0.7022 -0.1815
13339TIP3   OH261507   0.315   0.524  25.027 -0.5530  0.0867  0.0634
13339TIP3    H161508   0.351   0.590  25.086  0.2566  0.1853 -0.5112
13339TIP3    H261509   0.305   0.446  25.080  0.4788  0.0764  0.2641
13340TIP3   OH261510   2.291   0.706  96.904  0.3615 -0.2790 -0.6524
13340TIP3    H161511   2.294   0.695  96.809  0.4722  1.5441 -0.8987
13340TIP3    H261512   2.371   0.754  96.924 -0.8524  1.5474  0.0066
13341TIP3   OH261513   1.032   0.712  28.073 -0.3620  0.0170 -0.1567
13341TIP3    H161514   1.008   0.781  28.010  0.5973  0.3169 -0.2073
13341TIP3    H261515   1.113   0.676  28.039 -0.5181 -0.7124  0.2258
13342TIP3   OH261516   2.584   1.759  27.432  0.3380  0.0556  0.1998
13342TIP3    H161517   2.528   1.832  27.460 -1.3438 -1.5702  1.2936
13342TIP3    H261518   2.636   1.795  27.360  0.6217  2.7383  1.6091
13343TIP3   OH261519   0.681   2.593 109.273 -0.4378  0.5581 -0.1694
13343TIP3    H161520   0.601   2.634 109.306  1.1819  2.6443  1.4378
13343TIP3    H261521   0.680   2.505 109.312 -1.3623  0.9889  0.8325
13344TIP3   OH261522   0.330   0.698 105.489 -0.0607 -0.0534 -0.4359
13344TIP3    H161523   0.388   0.725 105.560  1.1441 -2.2155 -0.5201
13344TIP3    H261524   0.243   0.701 105.527  0.1757  1.9802  0.0922
13345TIP3   OH261525   0.635   0.133  97.690 -0.1256  0.3676  0.3753
13345TIP3    H161526   0.658   0.045  97.662 -1.1269 -0.1729  1.2000
13345TIP3    H261527   0.687   0.190  97.634 -0.9717 -0.6925 -1.5861
13346TIP3   OH261528   1.786   0.613   9.261  0.3334  0.4729  0.3504
13346TIP3    H161529   1.843   0.602   9.336 -0.6887 -0.3696  1.0281
13346TIP3    H261530   1.813   0.545   9.200  1.4514  1.4279 -0.2650
13347TIP3   OH261531   1.147   0.401  58.160  0.0600  0.7722 -0.5460
13347TIP3    H161532   1.119   0.473  58.104 -1.1182  1.3666  0.7393
13347TIP3    H261533   1.092   0.409  58.238  1.6587  0.0002  0.7124
13348TIP3   OH261534   1.421   0.206  10.870 -0.1666  0.5233  0.2816
13348TIP3    H161535   1.327   0.193  10.862 -0.0386  0.3372 -1.4049
13348TIP3    H261536   1.459   0.135  10.818  1.0000 -0.8085  2.8205
13349TIP3   OH261537   0.719   1.498  20.704  0.2186  0.4303  0.1775
13349TIP3    H161538   0.684   1.409  20.701 -0.5345  0.7300 -0.3801
13349TIP3    H261539   0.782   1.497  20.776 -0.6145 -0.2521  0.9282
13350TIP3   OH261540   2.280   1.765   2.260 -0.4231 -0.2766  0.1590
13350TIP3    H161541   2.345   1.697   2.276  0.7004  0.7147 -0.1307
13350TIP3    H261542   2.196   1.721   2.277  0.2521 -1.7729 -0.1459
13351TIP3   OH261543   1.771   2.264 108.037  0.3016  0.0511 -0.1508
13351TIP3    H161544   1.714   2.195 108.071  0.2785 -0.4658 -1.1905
13351TIP3    H261545   1.782   2.243 107.944  0.3493  1.4093 -0.4864
13352TIP3   OH261546   1.474   0.574  80.826  0.2262 -0.2323 -0.1910
13352TIP3    H161547   1.532   0.639  80.786  0.0674 -0.1154 -0.2301
13352TIP3    H261548   1.417   0.546  80.755 -0.2733  0.2179  0.0285
13353TIP3   OH261549   0.009   2.011 102.477  0.1097  0.0557 -0.3608
13353TIP3    H161550   0.087   2.039 102.429 -0.0143  1.0175 -0.0083
13353TIP3    H261551   0.025   2.039 102.567 -0.6354  0.2268 -0.2756
13354TIP3   OH261552   2.578   0.438  29.774  0.0472 -0.7309  0.3314
13354TIP3    H161553   2.548   0.369  29.715 -0.2655 -1.3423  1.1789
13354TIP3    H261554   2.669   0.415  29.792  0.0074 -0.8025  0.4426
13355TIP3   OH261555   0.934   0.439 107.376  0.1346  0.0250 -0.2140
13355TIP3    H161556   1.021   0.400 107.378  0.5284  0.9260  0.7460
13355TIP3    H261557   0.883   0.388 107.439 -0.0438 -0.4831 -0.7535
13356TIP3   OH261558   2.085   1.418  35.993  0.1506 -0.4006 -0.4850
13356TIP3    H161559   2.092   1.498  36.045 -0.2270 -1.2786  0.9741
13356TIP3    H261560   2.002   1.427  35.946  1.6687  1.5693 -3.0950
13357TIP3   OH261561   1.579   2.628  30.062  0.1343  0.2770  0.0824
13357TIP3    H161562   1.653   2.680  30.094  1.9795 -2.0380 -0.1663
13357TIP3    H261563   1.571   2.652  29.970  0.1648  0.9576  0.2485
13358TIP3   OH261564   1.856   1.245   5.552 -0.4977  0.2957 -0.4339
13358TIP3    H161565   1.798   1.297   5.496  0.0674  0.0578 -1.2595
13358TIP3    H261566   1.887   1.308   5.618  0.7878  1.2647 -1.8774
13359TIP3   OH261567   2.119   1.699 101.360 -0.6113  0.1973 -0.0951
13359TIP3    H161568   2.081   1.641 101.426 -0.0105 -2.2532 -1.7551
13359TIP3    H261569   2.103   1.655 101.277  1.5523  1.4797 -1.3022
13360TIP3   OH261570   0.347   1.053  18.474 -0.1669 -0.2491 -0.0788
13360TIP3    H161571   0.408   1.028  18.404  0.8642 -1.6679  1.2483
13360TIP3    H261572   0.267   1.006  18.453  0.5727 -1.7759  0.3832
13361TIP3   OH261573   1.208   0.276  84.347  0.2284  0.0907  0.2742
13361TIP3    H161574   1.224   0.194  84.299  0.5778  0.6457 -0.5966
13361TIP3    H261575   1.283   0.331  84.324  0.0729  0.6032  0.9764
13362TIP3   OH261576   1.088   0.700  25.436 -0.1452 -0.6556  0.2879
13362TIP3    H161577   1.106   0.698  25.342 -0.1238 -0.5539  0.2896
13362TIP3    H261578   1.118   0.787  25.463 -0.2631 -0.6404  0.3661
13363TIP3   OH261579   1.699   2.188  92.866  0.2126 -1.1179  0.1316
13363TIP3    H161580   1.724   2.180  92.958  1.3875 -0.5457 -0.1142
13363TIP3    H261581   1.606   2.211  92.868  0.1038 -1.5780  1.1565
13364TIP3   OH261582   0.027   2.658  21.554  0.0115 -0.6667  0.3579
13364TIP3    H161583   0.053   2.569  21.578 -0.9940 -0.4149  2.5856
13364TIP3    H261584   0.109   2.708  21.558  0.5942 -1.4489 -0.9642
13365TIP3   OH261585   1.295   2.052  82.604 -0.0417 -0.0735 -0.3354
13365TIP3    H161586   1.275   2.101  82.684  0.6821  0.0052 -0.2010
13365TIP3    H261587   1.381   2.013  82.620 -0.0882 -0.4215 -0.9025
13366TIP3   OH261588   0.431   0.264   3.824 -0.4025  0.6265  0.0209
13366TIP3    H161589   0.467   0.350   3.804  0.9449  0.4767  1.5448
13366TIP3    H261590   0.408   0.268   3.917  0.3720 -0.8422  0.3144
13367TIP3   OH261591   0.586   2.150  76.467 -0.1737  0.8326 -0.3986
13367TIP3    H161592   0.491   2.147  76.455 -0.4138 -2.3971  1.2002
13367TIP3    H261593   0.618   2.076  76.415  1.4428  1.5569 -0.4877
13368TIP3   OH261594   0.254   1.111  79.665  0.8232  0.5874  0.1610
13368TIP3    H161595   0.281   1.181  79.606  0.4502  1.0121  0.4843
13368TIP3    H261596   0.161   1.128  79.680  0.7147 -0.0147  0.1941
13369TIP3   OH261597   2.607   1.343  28.147 -0.0199  0.1885 -0.0670
13369TIP3    H161598   2.618   1.438  28.142  0.6489  0.0960 -0.4978
13369TIP3    H261599   2.513   1.330  28.158 -0.4626  0.8265 -2.5293
13370TIP3   OH261600   0.193   0.306  32.492  0.6189 -0.0483 -0.0691
13370TIP3    H161601   0.279   0.280  32.525 -0.0258 -2.0317  0.2120
13370TIP3    H261602   0.204   0.315  32.398  1.1101 -0.4203 -0.0498
13371TIP3   OH261603   1.661   2.142  44.861  0.0811  0.0259  0.0011
13371TIP3    H161604   1.695   2.063  44.819 -1.2281 -0.8612  0.5399
13371TIP3    H261605   1.639   2.115  44.950 -0.5229  0.9637  0.1523
13372TIP3   OH261606   0.669   2.471  99.558 -0.0009 -0.2354 -0.1207
13372TIP3    H161607   0.757   2.462  99.523 -0.0137 -1.1987  0.0623
13372TIP3    H261608   0.668   2.557  99.601  0.4881  0.2748 -1.1025
13373TIP3   OH261609   0.111   2.230  88.131  0.3768 -0.1848  0.2560
13373TIP3    H161610   0.176   2.264  88.194  1.1198 -0.7217 -0.2049
13373TIP3    H261611   0.037   2.291  88.138  0.1584 -0.6124  2.1288
13374TIP3   OH261612   1.013   1.941  14.916  0.2072  0.0540  0.0206
13374TIP3    H161613   0.950   1.875  14.944  0.2511  0.2957  0.7284
13374TIP3    H261614   1.093   1.921  14.966  0.5628 -0.0043 -0.5608
13375TIP3   OH261615   1.093   0.656  37.483 -0.4380  0.0018 -0.0052
13375TIP3    H161616   1.087   0.561  37.478 -1.1430  0.0907 -1.2319
13375TIP3    H261617   1.144   0.681  37.406 -0.6765  0.6479  0.0370
13376TIP3   OH261618   1.031   0.353  94.905 -0.7019 -0.5685 -0.1219
13376TIP3    H161619   0.981   0.275  94.884 -0.3004 -0.2290 -2.6754
13376TIP3    H261620   1.122   0.329  94.887 -0.4776  0.1846 -0.0266
13377TIP3   OH261621   2.086   0.523  77.619 -0.2189  0.0222  0.2994
13377TIP3    H161622   2.045   0.608  77.606  0.1407  0.0288 -0.9583
13377TIP3    H261623   2.180   0.541  77.622 -0.0331 -0.4489 -1.4607
13378TIP3   OH261624   0.667   0.170  32.353 -0.0202 -0.4149 -0.0421
13378TIP3    H161625   0.714   0.249  32.378 -1.7162  0.3254  0.9836
13378TIP3    H261626   0.736   0.108  32.327  1.6580  0.0489  2.8473
13379TIP3   OH261627   0.027   2.093  28.494 -0.4967  0.1760 -0.4090
13379TIP3    H161628   0.019   2.163  28.429 -1.1076  0.1012 -0.4148
13379TIP3    H261629   0.022   2.139  28.578 -1.6342  0.0640 -0.4082
13380TIP3   OH261630   1.878   0.474  20.415  0.5779 -0.4421 -0.0129
13380TIP3    H161631   1.851   0.555  20.372 -1.0238 -1.0587 -0.2354
13380TIP3    H261632   1.966   0.457  20.381  0.4781  0.5789 -0.8411
13381TIP3   OH261633   0.383   1.462   4.153  0.1300  0.1368 -0.2328
13381TIP3    H161634   0.399   1.537   4.095 -1.4988  1.8104  1.3776
13381TIP3    H261635   0.323   1.406   4.103 -1.6682  1.8064 -0.0537
13382TIP3   OH261636   0.194   1.943  82.297 -0.1784 -0.4627 -0.6094
13382TIP3    H161637   0.229   1.880  82.234  1.6903  0.1478 -0.2510
13382TIP3    H261638   0.185   2.024  82.247  0.3154 -0.2493 -0.3597
13383TIP3   OH261639   1.229   1.505  98.799  0.0283 -0.0893  0.1593
13383TIP3    H161640   1.218   1.435  98.734  0.0399 -1.1155  1.2342
13383TIP3    H261641   1.214   1.585  98.749 -1.0978 -0.8957 -0.8878
13384TIP3   OH261642   0.624   1.698   5.442 -0.2752  0.0358 -0.6009
13384TIP3    H161643   0.709   1.659   5.463 -0.7176 -1.0726 -0.7818
13384TIP3    H261644   0.565   1.664   5.508 -0.6539  0.5180 -0.6869
13385TIP3   OH261645   2.577   0.361 104.961 -0.1929  0.4071  0.1840
13385TIP3    H161646   2.539   0.392 104.879 -0.7540 -1.1160 -0.1763
13385TIP3    H261647   2.656   0.314 104.936 -1.6527 -2.2674  0.1311
13386TIP3   OH261648   1.988   2.344  29.266 -0.1805  0.2769 -0.2164
13386TIP3    H161649   1.956   2.433  29.277 -0.1679  0.5886 -2.2853
13386TIP3    H261650   2.052   2.332  29.336 -0.6351  1.6573  0.4701
13387TIP3   OH261651   2.337   1.372  63.768 -0.4585 -0.9193 -0.2426
13387TIP3    H161652   2.249   1.367  63.806 -1.1555 -1.5359 -1.8594
13387TIP3    H261653   2.324   1.357  63.675  1.3139 -0.4477 -0.6044
13388TIP3   OH261654   0.504   0.437  91.274 -0.8145  0.2957  0.4176
13388TIP3    H161655   0.571   0.373  91.295 -0.9060  0.4527  1.2036
13388TIP3    H261656   0.532   0.518  91.317 -1.0718  0.5932  0.0422
13389TIP3   OH261657   2.344   1.823  91.208 -0.1241 -0.0290 -0.3048
13389TIP3    H161658   2.425   1.824  91.157  0.2073 -0.4268  0.2019
13389TIP3    H261659   2.371   1.850  91.296 -0.4852 -0.3983 -0.0778
13390TIP3   OH261660   1.577   1.880  88.643  0.3021 -0.0228  0.3524
13390TIP3    H161661   1.624   1.923  88.572 -0.4942 -2.6390 -1.9638
13390TIP3    H261662   1.611   1.791  88.644 -1.3440 -0.7079  1.7229
13391TIP3   OH261663   1.189   0.507  74.160 -0.1985  0.1037  0.3676
13391TIP3    H161664   1.165   0.466  74.077 -0.7213 -0.0231  0.5799
13391TIP3    H261665   1.114   0.562  74.182 -0.1140  0.0430  0.8155
13392TIP3   OH261666   1.318   1.278   7.724 -0.3951 -0.0587  0.3319
13392TIP3    H161667   1.317   1.264   7.819 -0.4073 -0.7628  0.2343
13392TIP3    H261668   1.404   1.247   7.696  0.3080  1.7725  0.3338
13393TIP3   OH261669   0.175   1.116  74.514 -0.7507  0.5791  0.6879
13393TIP3    H161670   0.156   1.209  74.518 -0.1985  0.6471  2.1949
13393TIP3    H261671   0.090   1.075  74.499 -0.7447  1.3925 -2.1415
13394TIP3   OH261672   1.475   1.253 105.431 -0.0561 -0.1977  0.1975
13394TIP3    H161673   1.447   1.272 105.520 -0.1139  0.3684  0.0644
13394TIP3    H261674   1.522   1.331 105.403 -0.4383 -0.1809 -0.4224
13395TIP3   OH261675   0.577   2.088  19.515  0.6776  0.0199 -0.4412
13395TIP3    H161676   0.625   2.166  19.485 -0.8842  0.8012 -1.0621
13395TIP3    H261677   0.535   2.116  19.596 -0.2154 -0.0330 -0.8792
13396TIP3   OH261678   1.776   0.651 101.811 -0.2714 -0.1991 -0.2486
13396TIP3    H161679   1.786   0.735 101.767 -1.6374  0.1827  0.1334
13396TIP3    H261680   1.779   0.586 101.740  0.3738  0.1803 -0.5824
13397TIP3   OH261681   1.186   0.800  24.263 -0.0036  0.2781 -0.0903
13397TIP3    H161682   1.264   0.816  24.315 -0.8311 -1.2240  1.7633
13397TIP3    H261683   1.186   0.705  24.248 -1.3382  0.2845 -0.2612
13398TIP3   OH261684   0.627   1.679  97.141 -0.2012  0.9247  0.0686
13398TIP3    H161685   0.651   1.591  97.168 -0.6460  0.7585 -0.0747
13398TIP3    H261686   0.701   1.710  97.090  0.4408  1.0566  1.0482
13399TIP3   OH261687   0.281   0.321  91.438 -0.1248  0.6450 -0.4419
13399TIP3    H161688   0.356   0.318  91.378  0.3776 -1.3129  0.2079
13399TIP3    H261689   0.275   0.412  91.465  1.1295  1.1041 -1.6129
13400TIP3   OH261690   1.401   0.868  75.151 -0.2843 -0.8401 -0.2508
13400TIP3    H161691   1.308   0.866  75.171 -1.0080  2.8341 -2.3162
13400TIP3    H261692   1.414   0.798  75.088 -1.5177 -1.6585  0.3741
13401TIP3   OH261693   2.682   1.868   1.213  0.0528  0.1801  0.4227
13401TIP3    H161694   2.631   1.789   1.194 -0.7518  0.6539  0.5670
13401TIP3    H261695   2.658   1.892   1.302 -1.1498  1.6189 -0.2337
13402TIP3   OH261696   0.096   0.926   1.185  0.1390 -0.0727  0.1407
13402TIP3    H161697   0.149   0.924   1.264  1.8511  1.6778 -0.8612
13402TIP3    H261698   0.117   0.844   1.140  0.4493 -0.3057  0.6956
13403TIP3   OH261699   0.375   2.167 106.390 -0.7324 -0.3188  0.2501
13403TIP3    H161700   0.379   2.103 106.461  0.5597 -0.4377  0.0901
13403TIP3    H261701   0.413   2.246 106.427  1.4078 -0.8263 -0.7415
13404TIP3   OH261702   1.596   2.422 106.390  0.3595 -0.0753 -0.4028
13404TIP3    H161703   1.658   2.427 106.317 -0.6764 -0.3192 -1.3224
13404TIP3    H261704   1.556   2.509 106.393  0.2126 -0.1477 -0.2847
13405TIP3   OH261705   2.168   2.064  63.493  0.9418  0.5061 -0.5974
13405TIP3    H161706   2.250   2.022  63.465  0.8273  0.7857 -1.3934
13405TIP3    H261707   2.122   2.082  63.411 -2.1964 -3.9718 -0.1768
13406TIP3   OH261708   0.695   2.291   8.267  0.4766 -0.0501  0.3906
13406TIP3    H161709   0.632   2.265   8.200  0.3264 -0.2654  0.6099
13406TIP3    H261710   0.764   2.337   8.220 -0.1772  0.7864  0.2283
13407TIP3   OH261711   2.439   2.598  27.799 -0.3352  0.2775  0.2059
13407TIP3    H161712   2.364   2.577  27.855 -0.1717 -0.0943  0.2895
13407TIP3    H261713   2.485   2.668  27.845 -2.2014  2.5980 -1.2096
13408TIP3   OH261714   2.351   0.306  13.112 -0.3365  0.2166  0.0922
13408TIP3    H161715   2.257   0.310  13.095 -0.5000  0.0851  0.9368
13408TIP3    H261716   2.359   0.258  13.194  0.4160  0.9151  0.4444
13409TIP3   OH261717   0.431   1.062  99.291  0.2266 -0.2637  0.4042
13409TIP3    H161718   0.504   1.113  99.257  0.1383  0.0260  0.6400
13409TIP3    H261719   0.435   0.979  99.244  1.1042 -0.5036  0.8854
13410TIP3   OH261720   1.550   2.464  35.843 -0.0088  0.3547  0.2731
13410TIP3    H161721   1.619   2.404  35.871 -0.1641  0.4251  0.8244
13410TIP3    H261722   1.486   2.462  35.915 -1.5802 -1.2270 -1.0690
13411TIP3   OH261723   1.585   0.321  84.566 -0.0840  0.2300  0.1847
13411TIP3    H161724   1.567   0.239  84.611 -0.0324 -0.3048 -0.7316
13411TIP3    H261725   1.576   0.388  84.633 -0.0747 -0.5276  0.9612
13412TIP3   OH261726   1.989   2.114  75.075 -0.1750  0.0042 -0.3944
13412TIP3    H161727   1.955   2.140  74.989 -2.9503 -2.3789 -0.1675
13412TIP3    H261728   1.975   2.191  75.130 -3.5147 -0.0659 -0.8850
13413TIP3   OH261729   1.857   1.596  89.570  0.5944  0.0743  0.0648
13413TIP3    H161730   1.930   1.539  89.544  0.4303  0.1332 -0.5581
13413TIP3    H261731   1.832   1.640  89.489  0.0608  0.2761  0.3359
13414TIP3   OH261732   0.200   1.865 104.756  0.0593 -0.2460 -0.0970
13414TIP3    H161733   0.289   1.863 104.722  0.3010 -0.5144  0.5257
13414TIP3    H261734   0.207   1.822 104.842 -0.7106 -0.4867 -0.1485
13415TIP3   OH261735   1.374   0.528 108.896  0.1041  0.1824  0.2020
13415TIP3    H161736   1.358   0.548 108.988  0.3152  0.4211  0.1899
13415TIP3    H261737   1.405   0.610 108.858  0.2058  0.0348 -0.0368
13416TIP3   OH261738   2.664   1.220   1.631  0.2912 -0.1194 -0.2610
13416TIP3    H161739   2.751   1.182   1.619  0.7401  1.1306 -1.2105
13416TIP3    H261740   2.645   1.262   1.547 -1.6019 -1.0760 -0.3556
13417TIP3   OH261741   2.403   2.225  35.191  0.1531  0.9220  0.3440
13417TIP3    H161742   2.437   2.230  35.281 -0.4500 -3.0903  1.0135
13417TIP3    H261743   2.481   2.214  35.137  0.3965 -1.8017  1.1076
13418TIP3   OH261744   1.960   2.234  30.236 -0.3798 -0.0956 -0.4754
13418TIP3    H161745   2.050   2.250  30.262 -0.6772  1.0662 -0.0991
13418TIP3    H261746   1.921   2.322  30.231 -1.5082 -0.5887 -0.5301
13419TIP3   OH261747   1.182   0.905   4.796  0.3621 -0.3367 -0.2280
13419TIP3    H161748   1.141   0.827   4.831  0.5500 -0.9385 -1.3000
13419TIP3    H261749   1.276   0.889   4.805  0.4115  0.3664  0.7845
13420TIP3   OH261750   1.833   1.535  22.461  0.4948  0.5170 -0.5687
13420TIP3    H161751   1.823   1.457  22.514 -0.3602 -0.1400 -1.6301
13420TIP3    H261752   1.906   1.516  22.402  2.3178  1.7605  1.1827
13421TIP3   OH261753   2.544   1.206 105.725  0.1506 -0.5456  0.0495
13421TIP3    H161754   2.603   1.245 105.790  0.6082 -0.7110 -0.2580
13421TIP3    H261755   2.490   1.145 105.775 -2.0787  1.9912  0.9617
13422TIP3   OH261756   0.757   2.323   6.063 -0.1384 -0.1055 -0.2730
13422TIP3    H161757   0.757   2.232   6.034  1.6341 -0.2745  0.1816
13422TIP3    H261758   0.696   2.366   6.004  0.9225 -1.0767 -2.1773
13423TIP3   OH261759   0.547   2.658  78.181 -0.4760  0.2747 -0.0963
13423TIP3    H161760   0.600   2.671  78.102 -1.4026  0.6477 -0.6755
13423TIP3    H261761   0.588   2.583  78.224  1.1207  1.1544  0.0159
13424TIP3   OH261762   1.901   1.696  88.398  0.7493 -0.0760  0.5035
13424TIP3    H161763   1.820   1.743  88.376  0.2313 -0.5870  1.2616
13424TIP3    H261764   1.962   1.718  88.327 -1.2678 -2.8061 -2.3602
13425TIP3   OH261765   0.308   0.096 101.697  0.2938  0.3613  0.1165
13425TIP3    H161766   0.267   0.148 101.766 -0.3447  0.4961 -0.3649
13425TIP3    H261767   0.401   0.120 101.701  0.2351  0.4996  0.8037
13426TIP3   OH261768   0.552   1.338  75.506 -0.0728 -0.2623 -0.0946
13426TIP3    H161769   0.608   1.362  75.580  2.2025  1.4682 -2.2026
13426TIP3    H261770   0.508   1.420  75.482  1.3945 -0.0296 -2.2900
13427TIP3   OH261771   1.981   0.634  22.986 -0.2240 -0.4290 -0.4092
13427TIP3    H161772   1.958   0.569  22.919 -0.1330 -1.2476  0.3263
13427TIP3    H261773   2.077   0.630  22.990 -0.2204 -0.2703 -0.3484
13428TIP3   OH261774   1.800   0.171  96.072  0.6347  0.2032  0.0940
13428TIP3    H161775   1.876   0.188  96.129  0.5401  1.3015 -0.0777
13428TIP3    H261776   1.806   0.238  96.004  0.7353 -1.0923 -1.2026
13429TIP3   OH261777   0.179   2.545  22.932 -0.2839 -0.0391 -0.2205
13429TIP3    H161778   0.085   2.539  22.914 -0.4894  1.2231  0.2925
13429TIP3    H261779   0.214   2.596  22.859 -0.2983  0.9265  0.4257
13430TIP3   OH261780   0.165   0.315  88.011  0.6141  0.0413 -0.3585
13430TIP3    H161781   0.159   0.320  88.106  3.1444  2.9227 -0.1722
13430TIP3    H261782   0.078   0.340  87.980  0.5072  2.0190  1.2883
13431TIP3   OH261783   1.036   0.860  34.839 -0.3966  0.0146  0.6726
13431TIP3    H161784   1.113   0.842  34.786 -0.1138 -0.1935  1.1461
13431TIP3    H261785   0.991   0.931  34.793 -0.2714 -0.3090  0.0469
13432TIP3   OH261786   1.398   1.612  14.152 -0.6476  0.4770  0.5121
13432TIP3    H161787   1.435   1.662  14.079 -0.6317  1.0721  0.9201
13432TIP3    H261788   1.329   1.559  14.112 -1.0059  1.2014  0.1425
13433TIP3   OH261789   2.561   1.888 100.636 -0.6901 -0.5202  0.2372
13433TIP3    H161790   2.470   1.878 100.609 -1.4298  0.9505  1.9514
13433TIP3    H261791   2.604   1.809 100.605 -2.0524 -0.2963 -2.5151
13434TIP3   OH261792   1.663   2.030  35.174  0.4767 -0.4278  0.1153
13434TIP3    H161793   1.624   2.028  35.261 -0.7158 -2.0907 -0.4184
13434TIP3    H261794   1.754   2.006  35.188  0.1999 -1.0676  0.8565
13435TIP3   OH261795   0.805   1.910  91.662  0.3341  0.1888 -0.4709
13435TIP3    H161796   0.764   1.841  91.715  0.0113  1.1994  0.6275
13435TIP3    H261797   0.731   1.959  91.626  0.5549 -0.3163 -1.6721
13436TIP3   OH261798   1.272   0.590  37.862  0.0411 -0.0105  0.8370
13436TIP3    H161799   1.200   0.623  37.915 -2.0592  0.5648 -2.1471
13436TIP3    H261800   1.246   0.502  37.837  1.4354 -0.6244  1.4405
13437TIP3   OH261801   0.672   1.683 110.294 -0.0770 -0.4011  0.1708
13437TIP3    H161802   0.735   1.731 110.240 -0.1166 -0.9665 -0.3841
13437TIP3    H261803   0.597   1.670 110.237 -1.2692  1.4285  1.2300
13438TIP3   OH261804   2.029   1.536  83.558  0.4600  0.0911 -0.2565
13438TIP3    H161805   2.087   1.461  83.545 -0.5821 -0.8099  0.0933
13438TIP3    H261806   1.956   1.521  83.498  0.9459  1.6307 -1.2925
13439TIP3   OH261807   1.340   0.967  99.400  0.8822  0.2278  0.2399
13439TIP3    H161808   1.318   1.047  99.353  1.3521  0.2969  0.1352
13439TIP3    H261809   1.256   0.929  99.425  0.5493 -0.5245 -1.8251
13440TIP3   OH261810   1.088   1.352  27.436 -0.1388 -0.2161 -0.0994
13440TIP3    H161811   1.090   1.309  27.522  0.3254  1.5339  0.8191
13440TIP3    H261812   1.180   1.355  27.410 -0.0842  0.8147  0.1831
13441TIP3   OH261813   0.450   0.503   7.525 -0.1017  0.1830  0.2166
13441TIP3    H161814   0.498   0.467   7.599 -0.0565  0.7416  0.4617
13441TIP3    H261815   0.364   0.461   7.529  0.3997 -0.9143 -0.2990
13442TIP3   OH261816   2.104   0.525 100.031 -0.4536  0.6694 -0.1589
13442TIP3    H161817   2.097   0.512  99.937  2.3722  1.0525 -0.5155
13442TIP3    H261818   2.196   0.505 100.052 -1.3718 -1.0474  2.8087
13443TIP3   OH261819   0.698   2.584  35.521  0.3377  0.0173  0.9401
13443TIP3    H161820   0.635   2.559  35.589  0.5559 -1.9562  0.4939
13443TIP3    H261821   0.647   2.585  35.440  0.8995 -2.0197  0.5115
13444TIP3   OH261822   2.529   0.092  22.109 -0.3198  0.2422 -0.4647
13444TIP3    H161823   2.592   0.031  22.147 -1.4994 -0.4619  0.4130
13444TIP3    H261824   2.530   0.072  22.015  2.1632  1.5805 -0.8019
13445TIP3   OH261825   1.743   0.887  87.401 -0.7940 -0.3678  0.4389
13445TIP3    H161826   1.741   0.899  87.496 -0.9210 -0.5108  0.4546
13445TIP3    H261827   1.819   0.938  87.372  0.5242 -2.0089  0.8468
13446TIP3   OH261828   1.283   1.516 103.284  0.3167  0.5551  0.2952
13446TIP3    H161829   1.294   1.519 103.188 -0.3795  0.2319  0.2070
13446TIP3    H261830   1.352   1.456 103.313 -0.8170 -1.0670 -0.2311
13447TIP3   OH261831   1.107   1.239 104.388  0.1185  0.2033 -0.1848
13447TIP3    H161832   1.112   1.259 104.295  0.7337  0.7716 -0.0383
13447TIP3    H261833   1.059   1.312 104.426 -0.5338 -0.2544 -0.1160
13448TIP3   OH261834   2.489   2.223   3.301 -0.2219 -0.1628 -0.1040
13448TIP3    H161835   2.438   2.255   3.226  0.1381 -0.3558 -0.4358
13448TIP3    H261836   2.439   2.148   3.333  0.1640 -0.7237 -0.8052
13449TIP3   OH261837   0.329   2.580  35.917  1.0607 -0.2879 -0.4371
13449TIP3    H161838   0.271   2.509  35.889 -0.0307  0.1814  0.5229
13449TIP3    H261839   0.287   2.659  35.883  1.1974  0.0441  0.1469
13450TIP3   OH261840   2.610   2.418  16.270 -0.0643 -0.0084 -0.2085
13450TIP3    H161841   2.617   2.441  16.178 -0.1870 -0.8505 -0.4334
13450TIP3    H261842   2.695   2.443  16.307 -0.8985  2.8100  0.0472
13451TIP3   OH261843   0.559   1.070  91.959 -0.0757 -0.2679  0.0399
13451TIP3    H161844   0.535   1.067  91.866 -0.7227  0.9112  0.1433
13451TIP3    H261845   0.630   1.007  91.968  1.0842  0.7352 -1.5993
13452TIP3   OH261846   1.913   0.609  91.970  0.1770 -0.5208  0.4122
13452TIP3    H161847   1.834   0.562  91.997 -0.8140 -0.0141 -1.3825
13452TIP3    H261848   1.881   0.697  91.949  1.1694 -0.4039 -0.6637
13453TIP3   OH261849   0.289   1.523   0.840 -0.3072 -0.0112 -0.2687
13453TIP3    H161850   0.288   1.466   0.917 -0.7125 -0.2408 -0.4443
13453TIP3    H261851   0.330   1.470   0.772 -1.5000 -0.4268 -0.6838
13454TIP3   OH261852   0.338   1.938  36.777 -0.0959  0.4332 -0.1703
13454TIP3    H161853   0.298   1.851  36.773  1.3355 -0.2738  0.2014
13454TIP3    H261854   0.417   1.929  36.724 -1.2934  2.3243 -2.4873
13455TIP3   OH261855   2.637   0.309  76.884 -0.1721  0.3814 -0.1342
13455TIP3    H161856   2.579   0.351  76.947  0.6950  1.2685  0.0973
13455TIP3    H261857   2.659   0.378  76.822 -0.1614 -0.2126 -0.8061
13456TIP3   OH261858   2.171   0.732  23.385  0.1918 -0.0193  0.0051
13456TIP3    H161859   2.169   0.719  23.291  0.1686  0.7457 -0.1032
13456TIP3    H261860   2.264   0.741  23.406  0.3127 -1.6608  0.2692
13457TIP3   OH261861   1.023   2.160 109.617  0.1750 -0.1238 -0.3743
13457TIP3    H161862   0.978   2.083 109.582 -0.1272  0.0576 -0.3827
13457TIP3    H261863   1.089   2.124 109.676 -0.1538 -0.3802 -0.1552
13458TIP3   OH261864   2.106   2.212   2.970 -0.1275  0.1346 -0.2784
13458TIP3    H161865   2.022   2.200   2.927 -0.4194  1.2039 -0.0307
13458TIP3    H261866   2.143   2.291   2.930  0.0251  0.5972  0.7486
13459TIP3   OH261867   0.045   2.178  87.651 -0.1334 -0.2691  0.2944
13459TIP3    H161868  -0.049   2.172  87.669 -0.2216  0.2047  0.0048
13459TIP3    H261869   0.063   2.102  87.595 -0.2433 -0.6345  0.7500
13460TIP3   OH261870   1.094   1.369 105.062 -0.4138 -0.0368  0.4562
13460TIP3    H161871   1.130   1.303 105.003  0.1499  0.3154  0.4014
13460TIP3    H261872   1.153   1.444 105.053 -1.7100  0.9182 -0.3647
13461TIP3   OH261873   0.229   0.476  36.647 -0.9821  0.2165 -0.1136
13461TIP3    H161874   0.223   0.555  36.593  1.1397 -0.0436 -0.8199
13461TIP3    H261875   0.199   0.406  36.590 -2.3724  0.4029  0.3439
13462TIP3   OH261876   2.125   1.993  13.381  0.0960 -0.2529 -0.0014
13462TIP3    H161877   2.190   1.929  13.408  0.5322  0.6384  1.1210
13462TIP3    H261878   2.083   2.022  13.462 -0.5470  0.3878 -0.5441
13463TIP3   OH261879   2.052   1.404  89.430 -0.3163 -0.7332 -0.0680
13463TIP3    H161880   2.091   1.491  89.417 -1.8319  0.0267  0.1084
13463TIP3    H261881   2.125   1.348  89.454  0.6219  0.6721  0.5467
13464TIP3   OH261882   0.002   2.583  98.510  0.0292  0.0922 -0.2285
13464TIP3    H161883   0.060   2.606  98.438  0.9181 -0.2314  0.3709
13464TIP3    H261884  -0.078   2.632  98.493 -0.1225 -0.6616 -1.9247
13465TIP3   OH261885   2.324   1.017  21.526 -0.1851  0.3147 -0.5754
13465TIP3    H161886   2.287   1.062  21.602  0.3673 -0.0081 -0.1063
13465TIP3    H261887   2.259   0.951  21.503 -0.1724  0.1412 -0.1255
13466TIP3   OH261888   1.699   0.161 108.410  0.6099 -0.3918  0.2397
13466TIP3    H161889   1.693   0.167 108.505  1.4754 -0.1565  0.2860
13466TIP3    H261890   1.702   0.068 108.391  0.6339 -0.4331  0.4504
13467TIP3   OH261891   2.141   1.793  31.479 -0.3770 -0.1463  0.2098
13467TIP3    H161892   2.094   1.826  31.403  1.1578 -0.6038 -0.9964
13467TIP3    H261893   2.225   1.763  31.444 -0.7733 -3.2136  1.5632
13468TIP3   OH261894   2.399   1.757  86.247  0.2303 -0.4713 -0.1660
13468TIP3    H161895   2.317   1.755  86.296  0.3416 -0.5540  0.0205
13468TIP3    H261896   2.417   1.850  86.232  0.1127 -0.4525 -0.1954
13469TIP3   OH261897   2.102   1.611  21.080  0.2376 -0.0908 -0.2424
13469TIP3    H161898   2.081   1.521  21.104  0.9737 -0.3085 -0.3946
13469TIP3    H261899   2.176   1.603  21.021  0.0192  0.5936 -0.6161
13470TIP3   OH261900   0.099   0.783 110.641  0.2198 -0.2442  0.1868
13470TIP3    H161901   0.153   0.851 110.680  0.7485  0.4576 -1.6787
13470TIP3    H261902   0.144   0.758 110.561 -1.8418 -0.1094 -1.1079
13471TIP3   OH261903   2.009   1.886  22.679  0.2038 -0.0436 -0.2292
13471TIP3    H161904   1.940   1.877  22.614 -1.5313 -1.3668  1.6790
13471TIP3    H261905   2.050   1.800  22.683 -1.3372 -0.7472  2.0611
13472TIP3   OH261906   1.199   1.390  47.803  0.0345 -0.2306  0.7173
13472TIP3    H161907   1.191   1.447  47.879 -1.8459  0.3163  0.1454
13472TIP3    H261908   1.274   1.425  47.754 -1.2211  1.9480  0.2499
13473TIP3   OH261909   0.530   1.661  81.522 -0.1440 -0.0087 -0.5246
13473TIP3    H161910   0.453   1.698  81.564  0.6841  2.2483 -0.8654
13473TIP3    H261911   0.507   1.657  81.430  0.3426  1.2698 -0.7140
13474TIP3   OH261912   2.585   1.856 100.236 -0.2458  0.3117 -0.5417
13474TIP3    H161913   2.647   1.788 100.261 -1.4564 -0.2645  1.0594
13474TIP3    H261914   2.638   1.936 100.232  0.9755 -0.5081 -1.3278
13475TIP3   OH261915   1.113   0.352  20.299 -0.4942  0.2209  0.3659
13475TIP3    H161916   1.070   0.430  20.262 -0.2323 -0.3245 -1.1212
13475TIP3    H261917   1.042   0.288  20.307 -0.4661  0.1957  0.4121
13476TIP3   OH261918   1.998   0.108  13.453 -0.1923  0.3857  0.1685
13476TIP3    H161919   1.915   0.062  13.463 -0.3412  0.9222  1.6499
13476TIP3    H261920   2.057   0.066  13.517  1.1438 -0.9224 -1.8063
13477TIP3   OH261921   1.796   0.133 111.368 -0.5108  0.3847 -0.6048
13477TIP3    H161922   1.711   0.176 111.379 -1.3171 -1.1575 -0.5554
13477TIP3    H261923   1.788   0.050 111.415  1.3383  0.5647  0.1464
13478TIP3   OH261924   1.076   0.674  99.177  0.0151  0.4118  0.0762
13478TIP3    H161925   1.044   0.590  99.145  1.1068  0.4299 -1.1782
13478TIP3    H261926   1.165   0.656  99.208 -0.4840  0.7083  1.7691
13479TIP3   OH261927   1.856   0.075  87.426  0.3243 -0.0277 -0.4149
13479TIP3    H161928   1.827   0.122  87.347 -0.9869 -0.8056 -0.4119
13479TIP3    H261929   1.845  -0.017  87.404  2.3593 -0.3685 -0.2152
13480TIP3   OH261930   0.212   1.266  11.877  0.5204  0.7513 -0.0261
13480TIP3    H161931   0.206   1.185  11.826  2.5040  1.3126 -1.2760
13480TIP3    H261932   0.133   1.265  11.932 -0.3256 -1.2310 -1.1296
13481TIP3   OH261933   0.590   1.188  10.363 -0.1962 -0.0003 -0.2556
13481TIP3    H161934   0.678   1.173  10.330 -0.6264  0.5492 -1.7155
13481TIP3    H261935   0.588   1.281  10.385 -0.7627  0.2874 -1.4258
13482TIP3   OH261936   1.812   1.990  87.291  0.3856  0.5654  0.4489
13482TIP3    H161937   1.862   2.071  87.302 -2.3482  2.7816 -2.0077
13482TIP3    H261938   1.732   2.004  87.342 -0.4807 -0.2397 -0.6542
13483TIP3   OH261939   0.034   0.789  63.861 -0.6999  0.2397  0.3122
13483TIP3    H161940   0.026   0.884  63.877 -0.6628  0.1891  0.6414
13483TIP3    H261941   0.118   0.780  63.816 -1.4580  0.5398 -1.2139
13484TIP3   OH261942   1.894   0.140 102.613  0.2323  0.2583  0.1022
13484TIP3    H161943   1.943   0.152 102.695  1.0109 -1.4786 -0.0584
13484TIP3    H261944   1.802   0.143 102.639  0.4461  0.9816  0.8238
13485TIP3   OH261945   1.273   1.116  33.828 -0.2141  0.5304  0.0387
13485TIP3    H161946   1.237   1.036  33.866  1.9730 -0.6650 -0.2611
13485TIP3    H261947   1.345   1.140  33.885  0.8451  0.7454 -1.3237
13486TIP3   OH261948   0.546   1.070  87.721  0.4128 -0.1442  0.6980
13486TIP3    H161949   0.457   1.106  87.721 -0.1953 -1.5300 -0.7103
13486TIP3    H261950   0.554   1.027  87.806  0.1786  0.9845  1.3086
13487TIP3   OH261951   0.979   0.159   7.754  0.2877 -0.2824 -0.1178
13487TIP3    H161952   1.067   0.134   7.780  0.9847  1.5877 -0.5417
13487TIP3    H261953   0.966   0.246   7.792 -0.9588 -0.0798 -0.9437
13488TIP3   OH261954   1.614   0.236   8.910 -0.0585 -0.0075 -0.3380
13488TIP3    H161955   1.634   0.325   8.879  0.2050  0.4351  1.0138
13488TIP3    H261956   1.700   0.197   8.927 -0.1902 -0.2930 -0.3307
13489TIP3   OH261957   1.829   2.597  91.843  0.2246  0.0749 -0.1385
13489TIP3    H161958   1.818   2.692  91.844 -0.2498  0.0209 -0.1484
13489TIP3    H261959   1.872   2.578  91.927 -0.7476  0.1757  0.4005
13490TIP3   OH261960   1.736   0.895   0.386 -0.7644 -0.1645 -0.3549
13490TIP3    H161961   1.691   0.812   0.404  0.3010 -0.8698 -0.8326
13490TIP3    H261962   1.828   0.870   0.375 -0.0927  1.3346  1.4311
13491TIP3   OH261963   0.812   1.055  16.284  0.0596 -0.2810 -0.4001
13491TIP3    H161964   0.767   0.988  16.231 -0.3725  0.1565 -0.5959
13491TIP3    H261965   0.810   1.133  16.229 -2.0205  0.7150  0.9517
13492TIP3   OH261966   0.923   0.280  76.268 -0.1764 -0.2538 -0.2604
13492TIP3    H161967   0.867   0.312  76.340 -0.5276 -0.0756 -0.6031
13492TIP3    H261968   0.971   0.206  76.305 -1.3483 -1.0262 -0.2168
13493TIP3   OH261969   0.866   1.182  81.314 -0.3936  0.5761 -0.6277
13493TIP3    H161970   0.783   1.207  81.353 -1.6961 -2.1201 -1.4265
13493TIP3    H261971   0.909   1.128  81.381  0.5502  1.5600 -0.4035
13494TIP3   OH261972   0.665   1.639  90.109  0.2445 -0.7440 -0.0933
13494TIP3    H161973   0.611   1.629  90.031 -1.6393 -1.4163  1.2046
13494TIP3    H261974   0.742   1.585  90.092 -0.4451 -1.4138 -1.2254
13495TIP3   OH261975   0.737   1.055  23.981  0.7025  0.5712 -0.3461
13495TIP3    H161976   0.711   0.998  23.909 -1.1261 -0.3974  1.0198
13495TIP3    H261977   0.680   1.131  23.974  0.6557  0.5662 -0.0539
13496TIP3   OH261978   1.439   0.691  95.835  0.1660  0.1732  0.0609
13496TIP3    H161979   1.383   0.710  95.910 -1.6876  0.8610 -1.4165
13496TIP3    H261980   1.450   0.776  95.792  2.3820  0.0556  0.2802
13497TIP3   OH261981   1.208   1.887  94.683 -0.1001 -0.3071  0.2981
13497TIP3    H161982   1.264   1.958  94.714  0.1508 -0.4837  0.2596
13497TIP3    H261983   1.257   1.849  94.610 -0.5933 -0.0254 -0.1856
13498TIP3   OH261984   1.004   2.048  94.746 -0.3872  0.3466  0.1037
13498TIP3    H161985   0.973   1.996  94.820 -1.0317  0.1526 -0.3018
13498TIP3    H261986   1.077   1.998  94.711  0.3735  0.7682  1.0183
13499TIP3   OH261987   1.392   1.683  15.964  0.3342  0.3216 -0.2229
13499TIP3    H161988   1.479   1.651  15.989 -0.1707  0.5738  2.0980
13499TIP3    H261989   1.380   1.762  16.017 -1.7499 -0.3258  0.3450
13500TIP3   OH261990   1.566   0.188  91.255  0.3053 -0.6905 -0.4740
13500TIP3    H161991   1.560   0.092  91.258  0.0814 -0.6594  0.4951
13500TIP3    H261992   1.512   0.217  91.329  0.7508  0.1708 -0.4878
13501TIP3   OH261993   1.566   0.034  46.913 -0.0544 -0.4843 -0.0241
13501TIP3    H161994   1.636   0.046  46.978 -0.1792  0.0093  0.0186
13501TIP3    H261995   1.612   0.006  46.834  0.5393  2.4958 -0.8520
13502TIP3   OH261996   1.803   1.379  87.472  0.5330  0.3143 -0.5650
13502TIP3    H161997   1.869   1.327  87.518 -0.6924  0.3548  1.3446
13502TIP3    H261998   1.725   1.374  87.527 -1.8118 -1.4255 -3.7361
13503TIP3   OH261999   1.914   1.640  93.291 -0.6002 -0.1368 -0.7824
13503TIP3    H162000   1.942   1.631  93.200 -2.4567  1.1772 -1.5454
13503TIP3    H262001   1.827   1.599  93.294 -1.9384  2.5148 -0.4090
13504TIP3   OH262002   0.957   2.380  86.134  0.2210 -0.1673 -0.3224
13504TIP3    H162003   0.876   2.417  86.172  0.1110 -0.9821  0.2659
13504TIP3    H262004   0.966   2.294  86.176  0.7046 -0.6261 -1.3394
13505TIP3   OH262005   1.020   1.641  18.463  0.6234  0.0326 -0.4735
13505TIP3    H162006   1.041   1.716  18.407  0.8333 -0.9024 -1.6590
13505TIP3    H262007   1.105   1.598  18.478  0.5557  0.1994  0.4912
13506TIP3   OH262008   1.934   1.945 111.865  0.0732  0.0936  0.0874
13506TIP3    H162009   1.840   1.930 111.877 -0.0634 -1.5926 -2.5207
13506TIP3    H262010   1.940   2.037 111.839 -0.7902  0.2852  0.4995
13507TIP3   OH262011   0.293   1.021  22.080  0.1652 -0.2107  0.4359
13507TIP3    H162012   0.363   0.990  22.023 -0.5822  0.3455 -0.8233
13507TIP3    H262013   0.229   0.950  22.080  0.2471 -0.2857  0.7389
13508TIP3   OH262014   2.498   2.554   6.390 -0.0574  0.1558 -0.2700
13508TIP3    H162015   2.560   2.523   6.324 -1.3545 -2.1595 -0.5102
13508TIP3    H262016   2.533   2.520   6.473 -0.0896  0.3456 -0.1783
13509TIP3   OH262017   1.145   0.885 109.404  0.2588 -0.3754  0.0338
13509TIP3    H162018   1.077   0.881 109.337 -1.0895  1.2250  1.2113
13509TIP3    H262019   1.186   0.971 109.391 -0.1694  0.0539  1.3569
13510TIP3   OH262020   1.349   1.916  35.610  0.1036 -0.4656 -0.0843
13510TIP3    H162021   1.254   1.922  35.595  0.1807 -0.1478 -0.4733
13510TIP3    H262022   1.360   1.932  35.703 -0.2236 -0.4630 -0.0451
13511TIP3   OH262023   0.775   1.759  26.891  0.2759 -0.3843 -0.1476
13511TIP3    H162024   0.698   1.754  26.947  0.1603 -0.6584 -0.3277
13511TIP3    H262025   0.796   1.667  26.871  0.1195 -0.2795 -0.8162
13512TIP3   OH262026   2.475   0.117  11.409 -0.4284 -0.2566  0.6480
13512TIP3    H162027   2.433   0.033  11.393  0.7607 -0.6800 -0.3906
13512TIP3    H262028   2.493   0.117  11.503 -2.5559 -0.1145  1.1086
13513TIP3   OH262029   1.532   2.315  75.844  0.8629 -0.3095 -0.4656
13513TIP3    H162030   1.532   2.233  75.796  3.6980 -0.4229 -0.4600
13513TIP3    H262031   1.442   2.326  75.875  0.3078 -3.1340 -0.8932
13514TIP3   OH262032   1.191   2.594  86.786  1.1250 -1.0485  0.1187
13514TIP3    H162033   1.140   2.671  86.763  0.4435 -1.4631  0.2203
13514TIP3    H262034   1.278   2.629  86.809  1.6403 -0.5535 -2.3304
13515TIP3   OH262035   0.179   0.411   5.087  0.3410 -0.0858 -0.2910
13515TIP3    H162036   0.189   0.490   5.033  2.0609 -0.6011 -0.7860
13515TIP3    H262037   0.087   0.412   5.114 -0.9192 -0.2310 -3.9433
13516TIP3   OH262038   0.483   2.191   4.057 -0.3774 -0.4124 -0.1878
13516TIP3    H162039   0.531   2.263   4.016 -0.2715  0.2386  1.0305
13516TIP3    H262040   0.461   2.224   4.144 -3.0876 -0.6692 -0.7092
13517TIP3   OH262041   0.222   0.919  20.244 -0.0368  0.6396 -0.5507
13517TIP3    H162042   0.205   1.013  20.244  0.0198  0.6874 -2.3972
13517TIP3    H262043   0.136   0.879  20.236  0.1373  0.6732 -3.1585
13518TIP3   OH262044   1.374   0.617 110.700 -0.7041 -0.1376  0.2921
13518TIP3    H162045   1.410   0.546 110.646 -1.3373 -0.4454  0.2716
13518TIP3    H262046   1.342   0.574 110.779 -1.7759  0.0090 -0.0476
13519TIP3   OH262047   0.654   0.146   6.217  0.2825 -0.5279  0.5513
13519TIP3    H162048   0.747   0.141   6.241  0.8236 -0.5509 -1.3748
13519TIP3    H262049   0.654   0.148   6.121 -1.7802 -2.1193  0.4393
13520TIP3   OH262050   0.454   0.437  97.380 -0.0042 -0.0719 -0.3097
13520TIP3    H162051   0.429   0.472  97.295  0.1227 -0.2932 -0.4384
13520TIP3    H262052   0.506   0.359  97.360  0.5299  0.2039 -0.0430
13521TIP3   OH262053   2.647   1.112  92.306  0.0303 -0.4597 -0.3464
13521TIP3    H162054   2.705   1.056  92.359 -0.9175 -0.9669  0.1838
13521TIP3    H262055   2.636   1.064  92.224  0.4206 -0.3198 -0.4880
13522TIP3   OH262056   2.589   0.273 104.616  0.3355 -0.1626 -0.3034
13522TIP3    H162057   2.554   0.357 104.647 -1.2312 -1.0543  0.4652
13522TIP3    H262058   2.634   0.295 104.535  0.1202  1.4603 -0.0314
13523TIP3   OH262059   0.542   2.682  98.634  0.2332 -0.7083 -0.1364
13523TIP3    H162060   0.515   2.772  98.617  0.5726 -0.8270 -1.4304
13523TIP3    H262061   0.497   2.658  98.715  1.7143  1.2765  1.3572
13524TIP3   OH262062   2.626   1.236  48.589  0.2637 -0.6530  0.0114
13524TIP3    H162063   2.610   1.330  48.576 -0.0900 -0.5921  0.8111
13524TIP3    H262064   2.539   1.197  48.589  0.3750 -0.9048  0.2390
13525TIP3   OH262065   2.373   1.116 108.846  0.1439 -0.3440  0.5449
13525TIP3    H162066   2.417   1.089 108.766  0.1072  1.0228  0.0328
13525TIP3    H262067   2.442   1.119 108.913  0.2410 -1.1346  0.4875
13526TIP3   OH262068   2.146   1.077  76.357 -0.8865  0.1521 -0.7101
13526TIP3    H162069   2.090   1.114  76.289 -0.5268 -1.1333 -1.7514
13526TIP3    H262070   2.097   1.090  76.438 -1.7018  0.9848 -1.3162
13527TIP3   OH262071   1.222   0.720 107.054  0.0202  0.3786  0.2145
13527TIP3    H162072   1.154   0.653 107.063 -1.1488  1.3562 -0.8364
13527TIP3    H262073   1.297   0.674 107.016  0.1947 -0.8426  1.9332
13528TIP3   OH262074   0.080   1.745  28.294  0.0502  0.8345 -0.3169
13528TIP3    H162075  -0.007   1.779  28.272 -0.0957  0.2242 -0.7112
13528TIP3    H262076   0.063   1.668  28.348  0.3384  0.6362 -0.5078
13529TIP3   OH262077   2.135   0.699  94.938 -0.1590 -0.0008  0.6362
13529TIP3    H162078   2.123   0.657  95.023 -0.7717  0.2211  0.6698
13529TIP3    H262079   2.072   0.772  94.938 -0.9137 -0.6152 -0.4032
13530TIP3   OH262080   2.282   0.488 110.820 -0.1702 -0.6328  0.0599
13530TIP3    H162081   2.268   0.515 110.911  1.6516  0.1029  0.1768
13530TIP3    H262082   2.200   0.447 110.794 -1.1755  0.2685  1.6329
13531TIP3   OH262083   0.987   0.337  73.558  0.1726  0.0340 -0.0451
13531TIP3    H162084   1.040   0.395  73.505 -0.1117  1.1698  0.8592
13531TIP3    H262085   1.024   0.250  73.544  1.6916  0.6704 -0.1285
13532TIP3   OH262086   0.010   1.739   3.018 -0.4361  0.3531  0.2699
13532TIP3    H162087   0.058   1.666   3.056 -0.6291  0.4584  0.7202
13532TIP3    H262088   0.037   1.740   2.926  1.5843  1.3322  0.8161
13533TIP3   OH262089   1.445   1.438  90.166  0.0911 -0.3802  0.2956
13533TIP3    H162090   1.432   1.419  90.073  1.5423  0.5308 -0.1160
13533TIP3    H262091   1.443   1.533  90.172  1.4048 -0.3659  0.9621
13534TIP3   OH262092   2.072   1.532 101.794  0.2113  0.5479  0.2426
13534TIP3    H162093   2.141   1.570 101.849 -0.6159  0.1318  1.6277
13534TIP3    H262094   1.991   1.551 101.841 -0.7672  1.9234 -1.8538
13535TIP3   OH262095   0.625   2.056 104.673 -0.8875 -0.1339 -0.0682
13535TIP3    H162096   0.576   2.072 104.592 -1.7168  0.0232  0.4522
13535TIP3    H262097   0.597   1.968 104.700 -0.7554 -0.1113  0.1424
13536TIP3   OH262098   1.444   2.275  86.825 -0.2575 -0.0912  0.7837
13536TIP3    H162099   1.461   2.201  86.768 -0.6325 -0.1634  0.7617
13536TIP3    H262100   1.501   2.345  86.792  0.3643 -0.4757  1.0299
13537TIP3   OH262101   1.988   0.052 106.773 -0.2361  0.6002  0.2839
13537TIP3    H162102   2.041  -0.014 106.818  0.0008  0.3573 -0.3375
13537TIP3    H262103   2.043   0.131 106.774  0.3829  0.2094 -0.8179
13538TIP3   OH262104   1.578   0.743  18.448 -0.0876 -0.7128 -0.3022
13538TIP3    H162105   1.651   0.740  18.387 -0.6744 -1.0229 -1.0068
13538TIP3    H262106   1.608   0.799  18.519  0.0878  0.9515 -1.6089
13539TIP3   OH262107   0.478   0.072 111.460  0.2301 -0.0317  0.1485
13539TIP3    H162108   0.462   0.001 111.522  0.9046  0.6822  1.1578
13539TIP3    H262109   0.394   0.082 111.414 -0.3738 -0.3652  1.1511
13540TIP3   OH262110   1.219   1.687  83.768  0.2636 -0.3441  0.1833
13540TIP3    H162111   1.260   1.767  83.734  0.6542 -0.0290  1.3642
13540TIP3    H262112   1.291   1.626  83.780  0.1459 -0.4126  0.5468
13541TIP3   OH262113   1.186   0.942  85.804 -0.1495  0.4868  0.0278
13541TIP3    H162114   1.191   0.928  85.899 -0.5929  0.1936  0.0080
13541TIP3    H262115   1.131   0.871  85.772 -2.6841  2.3329 -0.0152
13542TIP3   OH262116   0.403   1.548  32.105  0.0547 -0.0571  0.1218
13542TIP3    H162117   0.413   1.642  32.092 -0.4291 -0.1159 -0.7614
13542TIP3    H262118   0.426   1.509  32.021 -0.1801 -0.6973  0.3456
13543TIP3   OH262119   2.684   0.459  26.981 -0.6477  0.1370  0.1399
13543TIP3    H162120   2.707   0.379  26.935 -0.0425 -0.1223  0.8739
13543TIP3    H262121   2.658   0.520  26.912  0.1710 -0.2590 -0.5341
13544TIP3   OH262122   1.887   1.800  81.574  0.7142 -0.1726 -0.6044
13544TIP3    H162123   1.853   1.734  81.635  0.4748 -1.2679 -1.8817
13544TIP3    H262124   1.980   1.806  81.594  0.3056  0.9747  1.1962
13545TIP3   OH262125   1.862   0.776  25.796 -0.3270 -0.1905 -0.3006
13545TIP3    H162126   1.801   0.836  25.753  1.3844  0.8983 -1.2952
13545TIP3    H262127   1.826   0.766  25.885 -2.5697 -0.5299 -1.1640
13546TIP3   OH262128   1.107   1.948  15.887 -0.3755  0.1426  0.6017
13546TIP3    H162129   1.176   1.928  15.951  0.0903 -2.5094 -0.6230
13546TIP3    H262130   1.152   1.997  15.818 -0.5804  1.7618  1.5737
13547TIP3   OH262131   2.257   2.036  79.591 -0.4334  0.5045  0.1942
13547TIP3    H162132   2.263   2.010  79.683  1.8379 -0.5592 -0.1925
13547TIP3    H262133   2.199   1.971  79.551 -1.8313  1.2635  0.9395
13548TIP3   OH262134   0.471   2.430  21.970 -0.1135 -0.0334  0.0141
13548TIP3    H162135   0.442   2.519  21.991  2.3738  1.0648 -0.7810
13548TIP3    H262136   0.528   2.406  22.043  1.1304  0.0489 -0.8976
13549TIP3   OH262137   1.710   1.622  28.056  0.6407 -0.0431 -0.1318
13549TIP3    H162138   1.669   1.592  27.975 -0.8706  0.5522  0.3808
13549TIP3    H262139   1.667   1.571  28.125 -0.4905  1.7508  0.5604
13550TIP3   OH262140   2.297   0.409  73.381  0.3550  0.0956 -0.1358
13550TIP3    H162141   2.279   0.502  73.374 -0.4321 -0.1110 -1.2243
13550TIP3    H262142   2.218   0.372  73.421 -0.1038 -0.3187 -1.3723
13551TIP3   OH262143   0.133   1.756  32.276  0.2248  0.1204  0.4415
13551TIP3    H162144   0.137   1.667  32.241 -2.3386  0.1287 -0.0528
13551TIP3    H262145   0.216   1.768  32.322  2.2696 -1.1873 -2.5968
13552TIP3   OH262146   0.598   2.166  16.200 -0.4345  0.4112  0.6698
13552TIP3    H162147   0.578   2.081  16.159  0.3851  0.6749 -0.3153
13552TIP3    H262148   0.689   2.158  16.229 -0.7949  0.4751  1.8597
13553TIP3   OH262149   0.284   0.868  95.325  0.0283  0.0776  0.0165
13553TIP3    H162150   0.286   0.944  95.383  0.9334 -0.0670  0.1867
13553TIP3    H262151   0.372   0.866  95.286  0.0670 -0.9676  0.1333
13554TIP3   OH262152   0.765   1.752   7.236 -0.0493  0.5100  0.7546
13554TIP3    H162153   0.811   1.786   7.312  0.5927  0.5514  0.3574
13554TIP3    H262154   0.677   1.789   7.241  0.3687  1.5002  0.8044
13555TIP3   OH262155   2.409   0.189   7.427  0.2003 -0.3576 -0.2916
13555TIP3    H162156   2.455   0.249   7.485 -0.6076  0.0333 -0.0347
13555TIP3    H262157   2.374   0.245   7.357  1.3852 -0.8558 -1.3317
13556TIP3   OH262158   1.461   1.352  29.443  0.2847  0.2177  0.3197
13556TIP3    H162159   1.543   1.305  29.426 -1.3577 -2.2575 -1.3652
13556TIP3    H262160   1.423   1.308  29.518 -0.9089 -0.7214 -0.7941
13557TIP3   OH262161   0.032   1.713  33.437 -0.0439  0.2188 -0.2346
13557TIP3    H162162  -0.032   1.770  33.480 -0.2126 -0.3725  0.3017
13557TIP3    H262163   0.000   1.706  33.347 -1.4555 -1.0888  0.3316
13558TIP3   OH262164   2.391   1.132  82.519 -0.3993  0.9140  0.0316
13558TIP3    H162165   2.408   1.197  82.451 -0.9781  0.5598 -0.4618
13558TIP3    H262166   2.441   1.055  82.491  0.5252  1.2329  0.7683
13559TIP3   OH262167   2.144   0.569   7.439 -0.0996  0.1817 -0.4005
13559TIP3    H162168   2.186   0.544   7.356 -0.7075  0.6617 -0.8615
13559TIP3    H262169   2.054   0.589   7.414 -0.5230 -0.5212  0.5239
13560TIP3   OH262170   2.656   0.299  17.406  0.0549  0.0804  0.1462
13560TIP3    H162171   2.748   0.283  17.427  0.1771  1.3672  0.6851
13560TIP3    H262172   2.658   0.348  17.324 -0.2311 -1.1288 -0.6031
13561TIP3   OH262173   0.975   0.596   3.577 -0.0755  0.7841 -0.9908
13561TIP3    H162174   0.987   0.531   3.508 -1.2859  0.5466 -0.9939
13561TIP3    H262175   0.961   0.679   3.530 -3.3535  0.2531 -1.2057
13562TIP3   OH262176   1.199   0.173   3.201 -0.2675  0.0369  0.2749
13562TIP3    H162177   1.234   0.085   3.211 -0.2680 -0.0505 -0.4220
13562TIP3    H262178   1.277   0.229   3.190 -0.2533  0.1709  1.0373
13563TIP3   OH262179   0.999   1.681  23.628 -0.4216 -0.0147  0.2149
13563TIP3    H162180   0.918   1.715  23.591 -0.6164 -0.3123  0.3569
13563TIP3    H262181   0.970   1.615  23.692 -0.0656 -0.1688  0.2195
13564TIP3   OH262182   0.821   0.672  64.093  0.1627  0.2530  0.2502
13564TIP3    H162183   0.890   0.738  64.090 -0.0810  0.5855  1.4447
13564TIP3    H262184   0.839   0.621  64.172 -1.1728  0.6040  0.8084
13565TIP3   OH262185   2.045   2.676   2.692  0.3233 -0.0933  0.2828
13565TIP3    H162186   2.042   2.751   2.751  0.4989 -0.3465  0.6149
13565TIP3    H262187   2.090   2.709   2.614 -0.0310  0.2784  0.2280
13566TIP3   OH262188   0.437   0.806  74.396  0.1345  0.0312  0.4210
13566TIP3    H162189   0.405   0.717  74.383 -0.6379  0.2963  0.4457
13566TIP3    H262190   0.442   0.816  74.491 -0.4725  0.2518  0.4299
13567TIP3   OH262191   0.395   2.299   4.800  0.2711  0.4043  0.5165
13567TIP3    H162192   0.375   2.237   4.871  0.7584  0.6056  0.8297
13567TIP3    H262193   0.309   2.323   4.766  0.0104  0.5656  1.2584
13568TIP3   OH262194   1.039   0.107  97.095 -0.0454 -0.1229 -0.1670
13568TIP3    H162195   0.956   0.061  97.102 -0.1797  0.0346 -0.7111
13568TIP3    H262196   1.092   0.072  97.167 -0.2332 -0.9458 -0.4145
13569TIP3   OH262197   1.837   0.056  37.774  0.1432  0.2963  0.3886
13569TIP3    H162198   1.779   0.093  37.840 -2.7110 -2.5243 -0.2508
13569TIP3    H262199   1.901   0.004  37.824 -0.5208  0.0859  1.0327
13570TIP3   OH262200   0.321   0.117  92.088  0.0455  0.1993  0.2329
13570TIP3    H162201   0.345   0.045  92.148 -0.0293 -0.3597 -0.4015
13570TIP3    H262202   0.338   0.196  92.139  0.2065 -0.2589  0.9179
13571TIP3   OH262203   0.477   1.098  95.818 -0.3522 -0.3964 -0.1532
13571TIP3    H162204   0.507   1.071  95.731  2.6883 -0.5267  0.8132
13571TIP3    H262205   0.419   1.028  95.846  0.3048 -1.4335 -1.2552
13572TIP3   OH262206   0.555   0.566  92.804  0.0775 -0.1951  0.3042
13572TIP3    H162207   0.478   0.543  92.752  0.1696  0.1156  0.0287
13572TIP3    H262208   0.522   0.572  92.893  0.6054 -4.5764  1.0200
13573TIP3   OH262209   1.229   1.511  33.805 -0.1408 -0.8990  0.2119
13573TIP3    H162210   1.262   1.431  33.764 -2.0653 -1.7585  0.2157
13573TIP3    H262211   1.305   1.550  33.847  0.7278 -3.0870  0.7832
13574TIP3   OH262212   1.596   0.174  88.831 -0.0602  0.4021 -0.6423
13574TIP3    H162213   1.672   0.151  88.776  0.2834 -1.0987  0.4049
13574TIP3    H262214   1.545   0.094  88.835 -1.1841  1.1161 -0.4775
13575TIP3   OH262215   1.326   1.834   3.428  0.4640  0.0085  0.2835
13575TIP3    H162216   1.281   1.776   3.490  1.6389  0.3729  1.5370
13575TIP3    H262217   1.261   1.899   3.403 -0.2986 -0.7026  0.3985
13576TIP3   OH262218   1.750   0.041  14.549 -0.1155  0.1859  0.3282
13576TIP3    H162219   1.700   0.123  14.542 -0.1392  0.0748 -1.1193
13576TIP3    H262220   1.821   0.061  14.610  0.2735  1.4980 -0.5216
13577TIP3   OH262221   1.696   0.955  27.895 -0.5264 -0.0171  0.0868
13577TIP3    H162222   1.697   1.018  27.967 -0.3610 -0.3167  0.3529
13577TIP3    H262223   1.773   0.900  27.911 -0.2277  0.1957 -0.5790
13578TIP3   OH262224   2.314   2.228  19.675 -0.1599 -0.5722  0.1094
13578TIP3    H162225   2.324   2.192  19.587 -2.0305 -1.1260  0.0914
13578TIP3    H262226   2.272   2.157  19.725 -0.3742  0.2217  1.0817
13579TIP3   OH262227   0.049   0.565  10.486  0.4172 -0.1804  0.0619
13579TIP3    H162228   0.074   0.553  10.394  1.4323 -0.3067  0.3479
13579TIP3    H262229   0.094   0.645  10.513 -0.1435  0.0437  0.3655
13580TIP3   OH262230   2.124   2.041  84.301 -0.0338  0.3996 -0.1925
13580TIP3    H162231   2.105   2.039  84.207 -0.1782  1.7791 -0.2078
13580TIP3    H262232   2.044   2.075  84.341 -1.0736 -2.7805  0.7771
13581TIP3   OH262233   0.368   2.559  67.001 -0.6990  0.2506 -0.2812
13581TIP3    H162234   0.314   2.564  66.922  1.4143 -2.1252 -2.0470
13581TIP3    H262235   0.377   2.465  67.018  0.3563  0.6635  1.7575
13582TIP3   OH262236   0.113   0.972  34.760 -0.0805 -0.1898  0.3306
13582TIP3    H162237   0.091   0.879  34.754  2.1812 -1.1415  3.8044
13582TIP3    H262238   0.184   0.983  34.697  1.2764 -1.5237  1.5372
13583TIP3   OH262239   0.732   1.771  25.326 -0.2054 -0.0647  0.1309
13583TIP3    H162240   0.755   1.823  25.249  0.1924  0.2871  0.4823
13583TIP3    H262241   0.656   1.719  25.299  0.2220 -0.2960 -0.6515
13584TIP3   OH262242   2.478   0.553  24.035  0.6418 -0.3325  0.2347
13584TIP3    H162243   2.452   0.590  23.951  0.6450 -0.4075  0.2000
13584TIP3    H262244   2.470   0.458  24.023  1.6173 -0.4018 -0.0155
13585TIP3   OH262245   0.971   1.700  22.143 -0.1230  0.5333 -0.4488
13585TIP3    H162246   1.018   1.626  22.104  1.4334  1.5086 -0.5299
13585TIP3    H262247   0.919   1.736  22.071 -0.5201 -0.1802 -0.5263
13586TIP3   OH262248   1.446   1.518  14.664 -0.1161 -0.3026  0.1870
13586TIP3    H162249   1.535   1.505  14.696 -0.2115 -1.7304 -0.0513
13586TIP3    H262250   1.455   1.521  14.569  0.0770  3.1980  0.2126
13587TIP3   OH262251   2.273   0.378  83.189 -0.4986 -0.3497 -0.1943
13587TIP3    H162252   2.309   0.401  83.103  0.9600 -1.2438  0.1318
13587TIP3    H262253   2.216   0.303  83.171 -0.6956 -0.1363 -0.4659
13588TIP3   OH262254   0.037   1.315   0.691 -0.5683  0.4227 -0.1747
13588TIP3    H162255   0.023   1.309   0.785  0.4123 -0.5822 -0.0738
13588TIP3    H262256  -0.035   1.369   0.659 -0.9617  0.6927  1.1343
13589TIP3   OH262257   1.288   0.049  31.378 -0.5062 -0.0394  0.3283
13589TIP3    H162258   1.225   0.100  31.429 -0.2075  1.1188 -0.4046
13589TIP3    H262259   1.256  -0.041  31.381 -0.2306 -0.1185  2.9512
13590TIP3   OH262260   2.199   2.685  34.015 -0.2202  0.1321 -0.1143
13590TIP3    H162261   2.231   2.773  33.995 -0.3158  0.1850 -0.0325
13590TIP3    H262262   2.278   2.632  34.020  0.4653  1.1352  4.8887
13591TIP3   OH262263   1.874   2.193 108.946  0.4237 -0.3283  0.0568
13591TIP3    H162264   1.924   2.150 108.876 -0.7768 -0.2699 -0.8654
13591TIP3    H262265   1.783   2.170 108.928  0.1742 -1.5848  2.5036
13592TIP3   OH262266   1.183   0.496  23.716 -0.3593  0.2440 -0.1246
13592TIP3    H162267   1.263   0.512  23.766 -0.7131  2.8211 -0.2510
13592TIP3    H262268   1.210   0.439  23.644  0.8743 -0.6399  0.9915
13593TIP3   OH262269   1.534   1.475 105.878  0.7878 -0.0885 -0.0637
13593TIP3    H162270   1.554   1.564 105.850  1.0957  0.5580  2.0107
13593TIP3    H262271   1.618   1.429 105.872  0.7175 -0.1263 -0.7626
13594TIP3   OH262272   2.308   0.550  25.558 -0.4631  0.4151  0.1343
13594TIP3    H162273   2.288   0.461  25.588  0.5004  0.8184  2.1795
13594TIP3    H262274   2.239   0.604  25.597  0.0122  0.7730  0.5006
13595TIP3   OH262275   0.457   1.169  97.612  0.9968 -0.1885  0.0840
13595TIP3    H162276   0.378   1.218  97.589  0.6109  1.2133  3.7963
13595TIP3    H262277   0.526   1.208  97.558 -0.3297  0.4332 -1.2351
13596TIP3   OH262278   2.189   1.785  81.924  0.0131 -0.0770  0.8448
13596TIP3    H162279   2.253   1.796  81.853 -0.2911  1.5288  0.7935
13596TIP3    H262280   2.216   1.848  81.991  0.3184 -1.5918  2.2251
13597TIP3   OH262281   0.676   1.632  96.282  0.3931 -0.2154  0.4353
13597TIP3    H162282   0.669   1.710  96.227 -1.3787  0.2242  1.2375
13597TIP3    H262283   0.765   1.600  96.266  0.0185 -0.0650 -2.5928
13598TIP3   OH262284   0.686   1.284 107.379 -0.3991 -0.3090  0.6260
13598TIP3    H162285   0.674   1.237 107.462  0.9619 -2.6596 -0.4268
13598TIP3    H262286   0.615   1.349 107.379  0.3964  0.8272  4.2471
13599TIP3   OH262287   1.934   0.630  12.347 -0.5365  0.5604  0.1851
13599TIP3    H162288   1.969   0.600  12.430  0.8121 -0.8965 -0.8456
13599TIP3    H262289   1.856   0.682  12.370 -1.3108 -1.3695  2.2315
13600TIP3   OH262290   2.078   2.379  78.147 -0.2070 -0.1877  0.2685
13600TIP3    H162291   2.023   2.425  78.211  0.7099  1.1157  0.1430
13600TIP3    H262292   2.156   2.434  78.138  1.5779 -2.4282  1.1081
13601TIP3   OH262293   2.514   0.926  38.277  0.3722 -0.2582  0.1013
13601TIP3    H162294   2.524   0.970  38.361  0.6567  0.1570 -0.1481
13601TIP3    H262295   2.553   0.986  38.213 -1.0436  0.0376 -0.5121
13602TIP3   OH262296   0.088   2.260  16.572  0.0978 -0.2547  0.2619
13602TIP3    H162297  -0.008   2.257  16.579  0.0678 -2.2116 -0.2788
13602TIP3    H262298   0.109   2.353  16.565 -1.6089  0.3610  2.2081
13603TIP3   OH262299   0.448   2.106 110.578 -0.1578  0.4342 -0.3186
13603TIP3    H162300   0.481   2.103 110.667 -1.9153  0.5258  0.3803
13603TIP3    H262301   0.421   2.197 110.565 -3.4876 -0.3076  0.5098
13604TIP3   OH262302   1.865   1.382   1.415  0.0258 -0.2668 -0.3990
13604TIP3    H162303   1.876   1.448   1.483 -0.7040 -0.2232 -0.3170
13604TIP3    H262304   1.855   1.300   1.463  0.3616 -0.3606 -0.4845
13605TIP3   OH262305   0.946   0.899 109.149  0.7515  0.1697  0.0559
13605TIP3    H162306   0.912   0.987 109.168 -1.0024 -0.5603  0.4914
13605TIP3    H262307   0.947   0.894 109.053 -1.4032 -0.1307  0.0165
13606TIP3   OH262308   1.006   2.345  94.672  0.2224  0.1926  0.0727
13606TIP3    H162309   0.992   2.250  94.661  0.9153  0.1185 -0.2673
13606TIP3    H262310   1.094   2.351  94.709 -0.3259  0.6600  1.3332
13607TIP3   OH262311   2.125   2.412 102.275  0.1120 -0.1860  0.5338
13607TIP3    H162312   2.038   2.381 102.249 -0.3093 -0.6379  2.3277
13607TIP3    H262313   2.181   2.334 102.269  0.0623 -0.2397  0.7584
13608TIP3   OH262314   1.379   1.264   7.982  0.6086  0.4160  0.4497
13608TIP3    H162315   1.348   1.310   8.060 -1.0724 -0.9011  0.6237
13608TIP3    H262316   1.472   1.251   7.997  0.6443  1.6186  1.4731
13609TIP3   OH262317   0.609   0.770 108.403 -0.1171 -0.5316  0.0134
13609TIP3    H162318   0.700   0.783 108.378  0.3155  0.1965  1.7786
13609TIP3    H262319   0.573   0.859 108.407 -0.8146 -0.7897 -0.3148
13610TIP3   OH262320   2.098   1.023   1.553  0.2789 -0.6671  0.4098
13610TIP3    H162321   2.091   0.947   1.611  0.7093 -1.0969 -0.0838
13610TIP3    H262322   2.192   1.040   1.548  0.2015 -0.2601  0.3095
13611TIP3   OH262323   1.876   1.256  29.154  0.1687  0.3678  0.2462
13611TIP3    H162324   1.971   1.269  29.154  0.2896 -0.4429  0.7710
13611TIP3    H262325   1.844   1.310  29.082  0.7866  2.4559  1.4347
13612TIP3   OH262326   2.544   0.885  19.791  0.5166 -0.3517 -0.2453
13612TIP3    H162327   2.612   0.949  19.812 -0.4555  0.4581  0.6030
13612TIP3    H262328   2.517   0.851  19.877  0.3519 -1.1787 -0.6213
13613TIP3   OH262329   2.240   1.107  33.276  0.1344 -0.2281 -0.4386
13613TIP3    H162330   2.176   1.054  33.228  0.2670 -1.0664  0.2959
13613TIP3    H262331   2.311   1.122  33.213 -0.7947  0.7845 -1.2959
13614TIP3   OH262332   0.103   1.481  32.157  0.2738  0.3496 -0.5738
13614TIP3    H162333   0.129   1.484  32.065  0.1303 -0.4596 -0.6460
13614TIP3    H262334   0.064   1.395  32.168 -0.6133  0.8094  0.0067
13615TIP3   OH262335   2.616   2.301  25.520  0.4429  0.4739 -0.3895
13615TIP3    H162336   2.541   2.248  25.548  1.7618 -0.9756  0.5523
13615TIP3    H262337   2.581   2.357  25.450 -1.1392 -1.2904 -1.0860
13616TIP3   OH262338   1.295   0.246  21.173 -0.1609 -0.0420  0.3320
13616TIP3    H162339   1.386   0.222  21.156 -0.6469 -1.9158  0.1338
13616TIP3    H262340   1.259   0.266  21.087 -0.3760 -1.0620  0.1681
13617TIP3   OH262341   1.723   0.078  19.735 -0.8379 -0.4769  0.4113
13617TIP3    H162342   1.751   0.115  19.819 -0.7981  0.7706 -0.1283
13617TIP3    H262343   1.780   0.121  19.670 -2.0703 -0.0572 -0.4264
13618TIP3   OH262344   2.209   2.315   8.428  0.5571 -0.0376 -0.2601
13618TIP3    H162345   2.296   2.274   8.429  1.3753  1.4911  2.2961
13618TIP3    H262346   2.213   2.380   8.498 -1.7691  2.0358 -1.8838
13619TIP3   OH262347   2.351   2.375  23.983 -0.2799 -0.5913  0.0336
13619TIP3    H162348   2.297   2.319  24.039 -0.2730 -1.9793 -1.2908
13619TIP3    H262349   2.301   2.384  23.902 -0.0290  0.9158  0.0015
13620TIP3   OH262350   0.277   1.338  29.706  0.0346 -0.3061  0.4519
13620TIP3    H162351   0.295   1.276  29.635  1.4573 -0.1221  0.6298
13620TIP3    H262352   0.192   1.376  29.683  0.9045  0.5097 -1.7081
13621TIP3   OH262353   0.513   0.295  21.836  0.3571 -0.2712 -0.2129
13621TIP3    H162354   0.516   0.297  21.741  0.9440 -1.0646 -0.2234
13621TIP3    H262355   0.592   0.340  21.864  0.0238  0.2428 -0.0925
13622TIP3   OH262356   0.265   1.166  24.208 -0.0269  0.4629 -0.1885
13622TIP3    H162357   0.181   1.193  24.172 -1.0309 -0.1065  1.5916
13622TIP3    H262358   0.296   1.098  24.148 -0.0693  1.7056 -1.6908
13623TIP3   OH262359   0.070   0.065  67.095 -0.8381  0.2474 -0.9404
13623TIP3    H162360   0.155   0.104  67.072 -2.1642  2.1406 -3.0597
13623TIP3    H262361   0.042   0.020  67.015 -1.1607 -1.7955  0.2510
13624TIP3   OH262362   2.096   1.988   0.501  0.6762 -0.4506 -0.0612
13624TIP3    H162363   2.153   1.938   0.560  1.6092  1.2061  0.5215
13624TIP3    H262364   2.036   1.924   0.465  0.5507 -1.6556  2.1383
13625TIP3   OH262365   0.323   1.932  25.274  0.2423  0.5418 -0.1143
13625TIP3    H162366   0.415   1.958  25.277  0.2162  0.4884  1.6669
13625TIP3    H262367   0.325   1.839  25.251  0.6651  0.4188  0.4026
13626TIP3   OH262368   2.384   2.564  18.280  0.1256  0.2988  0.2370
13626TIP3    H162369   2.370   2.531  18.369 -0.4651  0.2791  0.1401
13626TIP3    H262370   2.450   2.505  18.243 -0.0942 -0.0866  0.4470
13627TIP3   OH262371   2.028   2.609  63.001  0.2734  0.2153 -0.1633
13627TIP3    H162372   1.981   2.575  63.077  2.9375 -1.2637  0.9306
13627TIP3    H262373   2.096   2.545  62.983 -0.1820  0.5196 -3.8468
13628TIP3   OH262374   0.586   2.123   5.017  0.0312 -0.3824 -0.0476
13628TIP3    H162375   0.618   2.167   5.095  0.2949  2.0993 -1.4645
13628TIP3    H262376   0.500   2.089   5.042  0.5167 -0.4959  1.5746
13629TIP3   OH262377   1.557   0.561  86.203  0.4007 -0.0283 -0.1690
13629TIP3    H162378   1.523   0.515  86.126 -1.3394 -0.7263  0.9662
13629TIP3    H262379   1.577   0.491  86.265  0.2748  0.6025  0.5927
13630TIP3   OH262380   1.670   2.162  27.722 -0.3650 -0.0200 -0.2106
13630TIP3    H162381   1.610   2.206  27.783 -1.7116 -0.3161 -1.2860
13630TIP3    H262382   1.703   2.232  27.666 -0.3483  0.0191 -0.1524
13631TIP3   OH262383   1.858   0.058   4.922  0.5129  0.0729  0.6235
13631TIP3    H162384   1.900   0.069   4.836  0.7543 -0.1236  0.7164
13631TIP3    H262385   1.930   0.040   4.982  0.1766 -1.8295  0.5122
13632TIP3   OH262386   0.426   2.093  27.806 -0.2525 -0.5127 -0.3977
13632TIP3    H162387   0.339   2.123  27.833 -0.9539 -1.9460 -0.9519
13632TIP3    H262388   0.418   1.998  27.801  1.0210 -0.5930 -1.5535
13633TIP3   OH262389   2.391   1.680 103.375  0.0151 -0.2833  0.2965
13633TIP3    H162390   2.485   1.697 103.385  0.2842 -2.0933  1.2459
13633TIP3    H262391   2.349   1.762 103.401  1.2662 -0.1332  2.0368
13634TIP3   OH262392   2.562   1.836  34.697 -0.1357 -0.1757 -0.3941
13634TIP3    H162393   2.486   1.884  34.731  0.1007 -0.1793  0.1565
13634TIP3    H262394   2.524   1.767  34.642 -0.4304  1.6655 -2.6503
13635TIP3   OH262395   1.594   1.258  14.384  0.6231 -0.3056 -0.2949
13635TIP3    H162396   1.639   1.256  14.300  0.8822  0.4635 -0.1822
13635TIP3    H262397   1.663   1.246  14.449  0.7682  1.2532 -0.1028
13636TIP3   OH262398   1.110   0.955 106.285  0.3578 -0.4645 -0.0932
13636TIP3    H162399   1.199   0.941 106.253  1.0629 -0.3158  1.7290
13636TIP3    H262400   1.088   1.044 106.258  0.9112 -0.3605 -0.2015
13637TIP3   OH262401   0.838   2.593 106.303 -0.1756 -0.0412 -0.4139
13637TIP3    H162402   0.919   2.605 106.254  0.3649  0.3871  0.5495
13637TIP3    H262403   0.860   2.620 106.393 -1.0243 -1.1647  0.1588
13638TIP3   OH262404   0.671   2.172  35.100  0.2129  0.7962  0.6367
13638TIP3    H162405   0.715   2.221  35.030 -1.3782  0.4544 -0.6983
13638TIP3    H262406   0.603   2.232  35.132 -1.0367 -0.0743 -0.2538
13639TIP3   OH262407   0.574   2.389  14.991  0.6003  0.1826  0.2885
13639TIP3    H162408   0.638   2.360  15.057  0.9577  0.1323 -0.0743
13639TIP3    H262409   0.553   2.479  15.016  0.9247  0.2483  0.3296
13640TIP3   OH262410   1.239   0.682   2.760 -0.2819  0.5734 -0.1790
13640TIP3    H162411   1.247   0.632   2.841  1.2244  1.8519  0.5005
13640TIP3    H262412   1.302   0.642   2.700 -0.2243  0.6552 -0.1731
13641TIP3   OH262413   0.377   1.765  23.448  0.1409 -0.5136 -0.1373
13641TIP3    H162414   0.288   1.788  23.473  0.4115 -0.1617  0.5188
13641TIP3    H262415   0.411   1.843  23.403  0.4323 -0.2928  0.4530
13642TIP3   OH262416   0.040   0.629  25.773 -0.5072 -0.0836 -0.2402
13642TIP3    H162417  -0.028   0.666  25.717 -0.9796 -1.0170 -0.2976
13642TIP3    H262418   0.027   0.671  25.858  0.7748  2.0353 -0.9968
13643TIP3   OH262419   1.248   0.299  12.718  0.1215 -0.5748 -0.1484
13643TIP3    H162420   1.272   0.208  12.704  0.0708 -0.6962  0.5381
13643TIP3    H262421   1.330   0.343  12.737  0.0820 -0.5665  0.0003
13644TIP3   OH262422   2.255   2.611   0.447 -0.2978  0.3058 -0.3355
13644TIP3    H162423   2.216   2.699   0.450  1.5551  1.1697  2.1134
13644TIP3    H262424   2.232   2.572   0.532 -0.2416 -1.2053 -0.9935
13645TIP3   OH262425   0.612   0.519  11.455 -0.0837  0.5173  0.6425
13645TIP3    H162426   0.587   0.427  11.453 -0.5316  0.6331 -1.9041
13645TIP3    H262427   0.596   0.550  11.366  0.5117  2.9446  1.3228
13646TIP3   OH262428   0.353   2.257  78.127  0.0495  0.5013 -0.2942
13646TIP3    H162429   0.353   2.343  78.169  2.9015 -0.5085  2.1398
13646TIP3    H262430   0.427   2.261  78.066 -0.4178  0.0604 -0.9014
13647TIP3   OH262431   1.468   1.494  12.043 -0.1588  0.1742  0.1623
13647TIP3    H162432   1.429   1.432  11.982 -0.2840  0.8180 -0.4254
13647TIP3    H262433   1.545   1.528  11.997 -0.6684  1.2120  0.0409
13648TIP3   OH262434   0.663   1.894  78.097 -0.0958  0.3231 -0.2285
13648TIP3    H162435   0.715   1.847  78.162  0.0167  1.0276  0.2090
13648TIP3    H262436   0.587   1.926  78.147 -1.6243 -1.7357 -1.1117
13649TIP3   OH262437   2.070   1.379  25.938 -0.2529  0.3493 -0.3335
13649TIP3    H162438   2.109   1.322  25.872  1.1641  0.6564  0.1900
13649TIP3    H262439   2.126   1.457  25.938 -0.6557  0.6617  0.7062
13650TIP3   OH262440   0.563   0.030  37.312 -0.0975 -0.1447 -0.2282
13650TIP3    H162441   0.526  -0.023  37.384 -3.8518  1.0198 -1.0636
13650TIP3    H262442   0.541  -0.019  37.233  0.0265  0.7034 -0.7937
13651TIP3   OH262443   0.602   0.435  15.180 -0.1927 -0.2223  0.0411
13651TIP3    H162444   0.686   0.445  15.134  1.1267  1.1042  2.5327
13651TIP3    H262445   0.622   0.374  15.251 -0.5468  2.0594  2.2379
13652TIP3   OH262446   0.772   0.046  74.211 -0.2798  0.0362 -0.2030
13652TIP3    H162447   0.818   0.060  74.128 -0.2629  1.7294  0.0536
13652TIP3    H262448   0.715  -0.029  74.194 -1.0382  0.9560 -2.0854
13653TIP3   OH262449   2.081   0.392 111.841 -0.5067 -0.1030  0.3403
13653TIP3    H162450   2.152   0.403 111.905  2.3503 -1.3542 -2.3327
13653TIP3    H262451   2.063   0.298 111.840  0.2446 -0.2637 -1.3191
13654TIP3   OH262452   0.946   2.430  83.831  0.0911  0.1298 -0.1984
13654TIP3    H162453   1.000   2.504  83.803 -2.0830  1.8714 -0.0607
13654TIP3    H262454   0.987   2.401  83.913  1.0472  1.1197 -0.3023
13655TIP3   OH262455   2.192   1.391  27.246  0.2518  0.3256  0.3988
13655TIP3    H162456   2.219   1.309  27.204 -0.6337 -0.5164  1.4130
13655TIP3    H262457   2.247   1.398  27.323 -0.6989 -0.1357  1.1453
13656TIP3   OH262458   1.722   1.096  93.932 -0.1031  0.0004 -0.4451
13656TIP3    H162459   1.645   1.069  93.982 -0.4343  0.8009 -0.5190
13656TIP3    H262460   1.772   1.151  93.992  0.6857 -0.9102 -0.2354
13657TIP3   OH262461   1.208   2.409  19.224  0.0270  0.8620  0.4011
13657TIP3    H162462   1.222   2.471  19.153  1.2722 -1.3693 -1.4658
13657TIP3    H262463   1.296   2.392  19.259 -0.1702 -0.3502  0.3544
13658TIP3   OH262464   2.098   0.619  19.442  0.2728  0.0840  0.1727
13658TIP3    H162465   2.042   0.689  19.475 -0.3115 -0.1485 -0.2976
13658TIP3    H262466   2.048   0.539  19.457  0.5298 -0.1412 -0.1453
13659TIP3   OH262467   0.440   0.982   4.118 -0.5877  0.5640  0.4652
13659TIP3    H162468   0.482   1.068   4.107  0.5869 -0.1965 -1.5421
13659TIP3    H262469   0.514   0.921   4.123 -1.4266 -0.4369  0.7556
13660TIP3   OH262470   1.766   2.685   6.538 -0.0677  0.5950  0.0515
13660TIP3    H162471   1.749   2.593   6.558 -0.3745  0.5995 -0.1847
13660TIP3    H262472   1.681   2.728   6.547  0.0958  0.8775  0.2728
13661TIP3   OH262473   1.695   1.440  19.233  0.3840  0.0622 -0.0527
13661TIP3    H162474   1.640   1.443  19.155  2.7941  2.1594 -1.8074
13661TIP3    H262475   1.703   1.346  19.252 -0.5695 -0.4930 -2.0884
13662TIP3   OH262476   1.001   2.074  87.905  0.1225  0.3404  0.2518
13662TIP3    H162477   1.008   2.124  87.824  2.8906  1.1673  0.9115
13662TIP3    H262478   0.926   2.112  87.950  2.0153  3.9270  0.6623
13663TIP3   OH262479   1.374   0.473  20.259  0.5673  0.3544 -0.2944
13663TIP3    H162480   1.317   0.409  20.302  0.2055  1.0673  0.3096
13663TIP3    H262481   1.462   0.435  20.266  0.5735  0.5675  1.3738
13664TIP3   OH262482   1.887   1.702  73.100  0.1395 -0.5239 -0.7614
13664TIP3    H162483   1.939   1.638  73.051 -1.2991 -3.0460  0.7257
13664TIP3    H262484   1.802   1.659  73.111 -1.2581  2.1204 -0.4517
13665TIP3   OH262485   0.283   1.389  15.444 -0.2035 -0.1373 -0.2527
13665TIP3    H162486   0.276   1.482  15.467 -0.3405 -0.4413  1.0032
13665TIP3    H262487   0.374   1.378  15.415 -0.1602  0.3662 -0.3124
13666TIP3   OH262488   2.682   0.348  19.690  0.6096 -0.4553  0.7691
13666TIP3    H162489   2.600   0.375  19.649  0.5331  0.3464  1.4282
13666TIP3    H262490   2.745   0.344  19.618  0.1663 -0.3683  0.3748
13667TIP3   OH262491   0.831   0.686   8.784 -0.6327  0.3715  0.7687
13667TIP3    H162492   0.810   0.592   8.789  0.0953  0.2196  1.1676
13667TIP3    H262493   0.919   0.688   8.745 -0.5850  0.8836  0.9012
13668TIP3   OH262494   1.835   0.053  84.747 -0.3195  0.4809 -0.6302
13668TIP3    H162495   1.928   0.031  84.748 -0.0449  1.5513  0.8001
13668TIP3    H262496   1.832   0.147  84.766 -1.6551  0.7021 -1.7840
13669TIP3   OH262497   2.181   1.246  74.180  0.0839  0.3852 -0.9126
13669TIP3    H162498   2.093   1.228  74.212  0.1469  2.5920  0.7894
13669TIP3    H262499   2.238   1.222  74.253  0.8276 -0.1379 -1.6458
13670TIP3   OH262500   2.482   2.610  85.180  0.4678  0.6188  0.3008
13670TIP3    H162501   2.501   2.565  85.098 -0.5271  1.6924 -0.5483
13670TIP3    H262502   2.457   2.540  85.240  2.9794 -0.4064  0.3054
13671TIP3   OH262503   2.082   1.844  96.212 -0.2239  0.0515  0.5185
13671TIP3    H162504   2.135   1.788  96.155 -0.3350  0.2014  0.2678
13671TIP3    H262505   2.015   1.787  96.247  1.6131 -0.8160  2.9113
13672TIP3   OH262506   1.336   0.510  25.936  0.5915 -0.0051  0.3708
13672TIP3    H162507   1.276   0.570  25.891  0.9515 -0.9735 -1.4755
13672TIP3    H262508   1.415   0.562  25.950 -0.0853  0.7972  1.4209
13673TIP3   OH262509   1.272   0.549  14.825  0.3213 -0.1851 -0.3432
13673TIP3    H162510   1.286   0.618  14.760  0.9487 -0.5850 -0.6463
13673TIP3    H262511   1.255   0.595  14.907 -0.1090  0.3267 -0.7198
13674TIP3   OH262512   2.589   1.036  85.385 -0.3409  0.1970  0.4153
13674TIP3    H162513   2.638   0.976  85.329  0.8708 -0.3452  1.9844
13674TIP3    H262514   2.509   0.989  85.407 -0.8290  0.4149 -0.8096
13675TIP3   OH262515   2.362   1.255  99.546  0.7572 -0.0875 -0.3772
13675TIP3    H162516   2.363   1.313  99.622  2.2983 -0.7714  0.1568
13675TIP3    H262517   2.454   1.234  99.530  0.4938  0.0837 -2.4844
13676TIP3   OH262518   1.085   2.158   8.202 -0.1533 -0.0952  0.3179
13676TIP3    H162519   1.095   2.240   8.154 -0.1733 -0.9059 -1.1309
13676TIP3    H262520   1.150   2.163   8.272 -0.2470  1.1979  0.3326
13677TIP3   OH262521   0.496   2.424  85.219  0.2352  0.7515 -0.1404
13677TIP3    H162522   0.434   2.391  85.284  1.1163 -0.8955 -0.0807
13677TIP3    H262523   0.504   2.518  85.238  0.3196  0.3551  2.0246
13678TIP3   OH262524   0.803   0.193  75.543  0.0001  0.4228  0.5692
13678TIP3    H162525   0.870   0.128  75.564  0.3381  0.4695 -0.3211
13678TIP3    H262526   0.841   0.276  75.571  0.1049  0.3920  0.5172
13679TIP3   OH262527   0.915   1.830  21.889  0.4560  0.0257 -0.2433
13679TIP3    H162528   1.007   1.855  21.892  0.3134  0.5851 -0.4261
13679TIP3    H262529   0.868   1.909  21.916 -0.0589  0.3169 -1.9015
13680TIP3   OH262530   1.302   0.447  89.528  0.0799  0.0518  0.0717
13680TIP3    H162531   1.351   0.395  89.464  0.2462  1.0218 -0.6176
13680TIP3    H262532   1.246   0.503  89.475  0.2435  0.8974  0.7702
13681TIP3   OH262533   0.652   1.671  23.847  0.4404 -0.2942 -0.5443
13681TIP3    H162534   0.671   1.605  23.780  2.0538  0.5311 -0.9430
13681TIP3    H262535   0.556   1.676  23.850  0.3340 -1.1414 -1.9996
13682TIP3   OH262536   2.472   0.289  21.725 -0.0149 -0.1087 -0.6528
13682TIP3    H162537   2.467   0.262  21.633 -0.3726 -1.7855 -0.1829
13682TIP3    H262538   2.562   0.318  21.737  0.6352 -1.8044 -1.0728
13683TIP3   OH262539   0.389   1.569  99.899  0.1519 -0.5363 -0.3687
13683TIP3    H162540   0.349   1.483  99.885 -1.9209  0.2707  0.1366
13683TIP3    H262541   0.349   1.625  99.832  1.0541  0.1650 -0.3340
13684TIP3   OH262542   2.232   1.207  11.632  0.3776 -0.5131  0.0391
13684TIP3    H162543   2.300   1.273  11.625 -0.1969 -0.0333 -1.4870
13684TIP3    H262544   2.270   1.138  11.687  1.7874  0.0891 -0.1532
13685TIP3   OH262545   0.553   0.829  22.423 -0.1262 -0.0311 -0.1632
13685TIP3    H162546   0.617   0.813  22.492  0.0792  0.0748 -0.3261
13685TIP3    H262547   0.598   0.804  22.342  0.1572  1.1893 -0.4113
13686TIP3   OH262548   0.230   0.476  29.203  0.2255  0.2252 -0.5616
13686TIP3    H162549   0.222   0.551  29.263  1.7173  1.2868 -1.5964
13686TIP3    H262550   0.309   0.430  29.233 -1.3515 -1.7239  0.8305
13687TIP3   OH262551   1.741   1.402  28.681  0.6356 -0.6238  0.3217
13687TIP3    H162552   1.770   1.324  28.635  0.6793 -1.1419  1.2122
13687TIP3    H262553   1.778   1.475  28.631 -1.6123 -0.9968 -2.1379
13688TIP3   OH262554   0.003   1.166   1.082 -0.3260  0.1000  0.1018
13688TIP3    H162555   0.031   1.192   1.170 -0.7965 -0.0912  0.3102
13688TIP3    H262556   0.040   1.079   1.070  1.4454  0.9155 -0.6852
13689TIP3   OH262557   0.980   1.729  88.873  0.4784 -0.1455  0.3655
13689TIP3    H162558   0.895   1.761  88.904 -1.1544 -3.1203 -0.6605
13689TIP3    H262559   1.025   1.808  88.844 -1.6019  1.6456  1.6587
13690TIP3   OH262560   1.814   1.280  11.654 -0.3464 -0.8203  0.0801
13690TIP3    H162561   1.887   1.301  11.713  0.6158 -1.5209 -0.8139
13690TIP3    H262562   1.766   1.362  11.645  1.2372  0.0882 -0.5145
13691TIP3   OH262563   0.716   2.097  89.074  0.0073  0.1366  0.0798
13691TIP3    H162564   0.799   2.092  89.121 -0.6727 -0.7269  1.2334
13691TIP3    H262565   0.731   2.163  89.007  1.5731  0.1125  0.3648
13692TIP3   OH262566   1.534   0.614  17.346  0.2603 -0.0983  0.2435
13692TIP3    H162567   1.573   0.701  17.338 -0.2809  0.3114  1.7202
13692TIP3    H262568   1.537   0.595  17.440  0.2027 -1.5939 -0.0405
13693TIP3   OH262569   1.848   0.841  34.952 -0.2527  0.8354  0.0555
13693TIP3    H162570   1.872   0.901  35.023 -1.1194  2.0143 -0.6359
13693TIP3    H262571   1.879   0.755  34.983 -1.9741  1.0172  2.5711
13694TIP3   OH262572   2.225   1.064  34.442 -0.2189  0.2924  0.1278
13694TIP3    H162573   2.232   1.048  34.349 -0.3306  1.2618 -0.0636
13694TIP3    H262574   2.132   1.082  34.456 -0.2685 -0.2098  0.4981
13695TIP3   OH262575   0.528   0.477   7.938  0.0793 -0.0299  0.0464
13695TIP3    H162576   0.508   0.393   7.979 -1.2978 -0.4840 -1.4528
13695TIP3    H262577   0.589   0.455   7.868 -0.8402  0.0843 -0.8087
13696TIP3   OH262578   0.024   0.382  79.969  0.2917 -0.5930 -0.5293
13696TIP3    H162579   0.069   0.303  79.937 -0.0190 -1.3712  0.8542
13696TIP3    H262580   0.080   0.414  80.039 -0.6879 -0.8843  0.4123
13697TIP3   OH262581   0.422   0.461  69.238  0.0712 -0.3019  0.5615
13697TIP3    H162582   0.431   0.469  69.143 -2.4722  0.3674  0.2980
13697TIP3    H262583   0.505   0.494  69.272  0.4373  0.9901 -1.3883
13698TIP3   OH262584   1.636   1.719  52.303  0.1602 -0.1624 -0.1580
13698TIP3    H162585   1.670   1.802  52.337 -0.7348  1.2426 -2.4157
13698TIP3    H262586   1.680   1.708  52.219  0.5255 -2.2188  0.2533
13699TIP3   OH262587   2.576   2.495  31.317 -0.1912 -0.2847 -0.6595
13699TIP3    H162588   2.592   2.552  31.392 -1.9982  0.7791 -1.0012
13699TIP3    H262589   2.521   2.424  31.352  0.8547 -1.0434 -0.5290
13700TIP3   OH262590   2.071   1.969  89.951  0.7307  0.2561  0.0225
13700TIP3    H162591   2.117   2.050  89.974  1.4869 -0.0519 -0.3751
13700TIP3    H262592   2.037   1.937  90.035  0.8283  0.7413  0.2537
13701TIP3   OH262593   0.264   2.212  74.147  0.5370  0.2633 -0.1913
13701TIP3    H162594   0.254   2.270  74.222  1.3073  0.4898 -0.2578
13701TIP3    H262595   0.280   2.270  74.073 -1.2307  0.0998 -0.7334
13702TIP3   OH262596   1.447   0.644  75.674 -0.2986 -0.5221 -0.3459
13702TIP3    H162597   1.390   0.641  75.750  0.0026  1.0860 -0.0219
13702TIP3    H262598   1.390   0.673  75.603 -0.9184 -3.3355 -1.1338
13703TIP3   OH262599   0.431   1.618  96.934  0.1306  0.1276 -0.3060
13703TIP3    H162600   0.510   1.633  96.987  0.0164  0.9321 -0.3592
13703TIP3    H262601   0.440   1.678  96.860 -0.6651  0.4172 -0.1755
13704TIP3   OH262602   1.189   1.780  82.603  0.1462 -0.1588 -0.5450
13704TIP3    H162603   1.108   1.760  82.556 -0.8928  2.4734 -0.0516
13704TIP3    H262604   1.226   1.855  82.557  0.2295  1.1340  1.5028
13705TIP3   OH262605   1.192   1.877   6.466 -0.2014 -0.5182 -0.1580
13705TIP3    H162606   1.278   1.906   6.436 -0.4047 -0.6784 -0.9093
13705TIP3    H262607   1.165   1.944   6.528  0.4504 -0.4522  0.0674
13706TIP3   OH262608   0.099   1.045  16.881 -0.3277 -0.0505  0.4484
13706TIP3    H162609   0.040   1.079  16.814  0.9193  0.2121 -0.5620
13706TIP3    H262610   0.135   1.123  16.923  0.0947 -0.1714  0.3214
13707TIP3   OH262611   1.399   0.573  29.332  0.3509  0.2007 -0.4226
13707TIP3    H162612   1.460   0.504  29.307 -0.7310 -1.5081  1.3132
13707TIP3    H262613   1.353   0.537  29.408  0.5232  3.3040  1.3014
13708TIP3   OH262614   2.271   0.256 105.772  0.0251  0.0264  0.6115
13708TIP3    H162615   2.245   0.165 105.777  0.0692  0.0491  1.2761
13708TIP3    H262616   2.219   0.301 105.838 -0.8238  0.6861 -0.4669
13709TIP3   OH262617   1.349   1.599  29.905 -0.0601  0.0224  0.4002
13709TIP3    H162618   1.353   1.679  29.853 -0.9859 -0.9575 -1.2562
13709TIP3    H262619   1.277   1.614  29.967  0.1195  0.6473  0.4706
13710TIP3   OH262620   2.233   1.042  22.848 -0.0636  0.0939 -0.4460
13710TIP3    H162621   2.149   1.020  22.808 -1.1305  0.3117  1.5654
13710TIP3    H262622   2.260   0.961  22.892  1.1148 -0.1599 -1.5768
13711TIP3   OH262623   0.600   1.479 105.727 -0.2636  0.5511  0.2672
13711TIP3    H162624   0.602   1.571 105.703 -0.8058  0.2114 -1.1535
13711TIP3    H262625   0.621   1.432 105.646 -0.8703 -0.5997  0.7549
13712TIP3   OH262626   0.379   0.338   2.401 -0.0497 -0.2779  0.0006
13712TIP3    H162627   0.401   0.365   2.312  1.1701 -0.1291  0.3282
13712TIP3    H262628   0.395   0.416   2.454 -1.9315  0.0107  0.2117
13713TIP3   OH262629   1.951   2.268 100.844 -0.0878  0.0398 -0.2181
13713TIP3    H162630   2.036   2.284 100.804  0.5594 -1.1876  0.5990
13713TIP3    H262631   1.947   2.173 100.856 -0.7038  0.2432  1.5591
13714TIP3   OH262632   2.030   1.138 104.615  0.0686  0.2492  0.3465
13714TIP3    H162633   2.088   1.213 104.601 -0.1107  0.2877 -0.2332
13714TIP3    H262634   1.950   1.177 104.650  0.1394  0.2768  0.4752
13715TIP3   OH262635   0.872   0.396  91.704 -0.9231 -0.0216  0.2075
13715TIP3    H162636   0.901   0.305  91.700 -1.7229 -0.3227  1.0815
13715TIP3    H262637   0.778   0.392  91.687 -1.0803  0.5742  0.9249
13716TIP3   OH262638   2.632   0.446  89.944  0.1733 -0.9358 -0.2949
13716TIP3    H162639   2.588   0.442  90.028  1.7121  1.7939  0.7771
13716TIP3    H262640   2.564   0.475  89.882 -0.4801 -0.8747  0.4432
13717TIP3   OH262641   1.032   1.365 100.935 -0.3521 -0.3278 -0.0835
13717TIP3    H162642   1.073   1.350 101.021  0.0595  0.0347 -0.2065
13717TIP3    H262643   1.095   1.331 100.872 -0.2655  0.1839 -0.2772
13718TIP3   OH262644   2.069   2.443  27.738 -0.2681 -0.2144 -0.0444
13718TIP3    H162645   2.004   2.513  27.738  0.0266  0.0820  0.9821
13718TIP3    H262646   2.017   2.362  27.742 -0.6122 -0.0811 -1.3982
13719TIP3   OH262647   1.824   1.559 100.511  0.1532  0.0746  0.1364
13719TIP3    H162648   1.915   1.581 100.496  0.2250 -0.4207 -0.1979
13719TIP3    H262649   1.826   1.469 100.546 -0.1033  0.6607  1.7533
13720TIP3   OH262650   0.504   0.555  13.018  0.1866  0.3253 -0.3331
13720TIP3    H162651   0.441   0.624  12.998 -0.7834 -0.0685  1.1526
13720TIP3    H262652   0.572   0.598  13.070  0.4519  0.4792 -0.8014
13721TIP3   OH262653   0.794   1.643  31.218 -0.0720  0.0103  0.6597
13721TIP3    H162654   0.712   1.623  31.174  0.4356  0.9361 -0.7960
13721TIP3    H262655   0.770   1.708  31.284 -0.4142  0.9178 -0.3223
13722TIP3   OH262656   0.278   2.564   5.896  0.2155 -1.1265 -0.2301
13722TIP3    H162657   0.302   2.508   5.823 -0.8912 -3.3498  1.0002
13722TIP3    H262658   0.182   2.559   5.899  0.0505  1.0373 -0.1728
13723TIP3   OH262659   0.460   0.758 100.691 -0.1392 -0.0492  0.3711
13723TIP3    H162660   0.445   0.705 100.770 -1.2232 -0.2406  0.0536
13723TIP3    H262661   0.381   0.812 100.683  0.0048  0.0393 -0.5214
13724TIP3   OH262662   0.599   2.261  74.506 -0.2334 -0.1227 -0.0369
13724TIP3    H162663   0.680   2.211  74.517 -0.7061 -0.9563 -0.3032
13724TIP3    H262664   0.602   2.326  74.577  1.1252  0.4957 -0.6192
13725TIP3   OH262665   0.954   2.117  86.217 -0.5727  0.1844 -0.0278
13725TIP3    H162666   0.949   2.093  86.124 -0.3196 -1.3694  0.3400
13725TIP3    H262667   1.009   2.050  86.257  0.6860  1.7309  0.9808
13726TIP3   OH262668   0.097   1.017 101.492 -0.2530  0.0447 -0.0370
13726TIP3    H162669   0.144   0.947 101.538  0.5224 -1.3450 -2.7118
13726TIP3    H262670   0.166   1.078 101.464 -0.2537 -0.6802 -1.7844
13727TIP3   OH262671   2.546   0.375 103.567 -0.1353 -0.2696  0.4489
13727TIP3    H162672   2.547   0.294 103.618 -0.1740  0.4229  1.5955
13727TIP3    H262673   2.523   0.443 103.631  0.7785  0.7691 -0.2860
13728TIP3   OH262674   1.971   1.303  37.308 -0.1398 -0.4434 -0.3208
13728TIP3    H162675   1.889   1.341  37.338  0.3504  0.3865  0.0111
13728TIP3    H262676   1.988   1.232  37.370 -0.2227 -0.1182  0.0867
13729TIP3   OH262677   0.084   0.617  41.478  0.0752 -0.2972  0.3277
13729TIP3    H162678   0.096   0.671  41.556 -1.6077  1.0465 -0.2823
13729TIP3    H262679   0.144   0.654  41.413  1.4199 -1.3682  0.9068
13730TIP3   OH262680   1.281   1.330  31.050 -0.2267  0.1342 -0.3225
13730TIP3    H162681   1.196   1.333  31.006 -0.8733 -0.9781  0.7823
13730TIP3    H262682   1.266   1.374  31.133  0.2244 -0.1914 -0.0645
13731TIP3   OH262683   1.703   1.336  30.669 -0.6073  0.4620 -0.2248
13731TIP3    H162684   1.718   1.374  30.756 -0.1699 -0.3674  0.0655
13731TIP3    H262685   1.683   1.244  30.686 -0.0552  0.1856 -1.0391
13732TIP3   OH262686   2.079   0.287  29.091 -0.6098  0.0312  0.3328
13732TIP3    H162687   2.112   0.359  29.038  2.7487 -0.8768  0.9960
13732TIP3    H262688   2.057   0.218  29.027 -0.5434  0.3992 -0.0917
13733TIP3   OH262689   0.101   0.471  25.374 -0.8370 -0.3781  0.5484
13733TIP3    H162690   0.166   0.435  25.314  1.5751  0.0610  2.7363
13733TIP3    H262691   0.080   0.398  25.432 -1.4296 -0.1739  0.5963
13734TIP3   OH262692   0.476   0.129  93.978  0.4586  0.2215  0.0655
13734TIP3    H162693   0.480   0.186  94.055  1.3394  0.4949 -0.1809
13734TIP3    H262694   0.540   0.165  93.917 -0.0476 -0.1444 -0.7052
13735TIP3   OH262695   0.063   1.589  93.663 -0.5121 -0.1811  0.0725
13735TIP3    H162696   0.092   1.664  93.714  1.9678 -0.9983 -0.0175
13735TIP3    H262697   0.070   1.514  93.723  2.3438 -1.1373 -1.2780
13736TIP3   OH262698   1.170   0.682  25.812  0.6491 -0.0142 -0.4648
13736TIP3    H162699   1.095   0.646  25.766 -0.2104 -0.5415  1.2616
13736TIP3    H262700   1.228   0.714  25.743 -0.7974 -0.2981 -1.8613
13737TIP3   OH262701   1.661   1.468  77.161  0.3048  0.2474 -0.1731
13737TIP3    H162702   1.706   1.520  77.095 -1.1115 -0.1520 -1.5261
13737TIP3    H262703   1.570   1.463  77.130 -0.5433  0.4464  2.0738
13738TIP3   OH262704   0.705   1.871  89.252 -0.0231 -0.4649 -0.1808
13738TIP3    H162705   0.627   1.918  89.224  0.1729 -0.0052  0.0400
13738TIP3    H262706   0.697   1.785  89.211 -0.1936 -0.1149 -0.8970
13739TIP3   OH262707   2.420   1.236   4.904  0.2754 -0.7981 -0.0480
13739TIP3    H162708   2.367   1.315   4.888  0.9641 -0.4596 -0.6739
13739TIP3    H262709   2.403   1.180   4.829  0.0954 -1.0847  0.2051
13740TIP3   OH262710   0.263   1.579  18.837  0.1648  0.0070  0.2049
13740TIP3    H162711   0.209   1.509  18.876 -0.8866  0.6900  0.0188
13740TIP3    H262712   0.207   1.656  18.840  1.5923  1.0635  1.1396
13741TIP3   OH262713   2.096   0.488   8.261  0.2359 -0.1318 -0.0469
13741TIP3    H162714   2.056   0.449   8.338  0.1999 -1.2197 -0.6070
13741TIP3    H262715   2.190   0.474   8.273  0.3472  0.8880  0.4270
13742TIP3   OH262716   1.248   2.035  78.597  0.0181 -0.3305  0.1882
13742TIP3    H162717   1.215   2.000  78.515 -0.3542 -1.3850  0.7754
13742TIP3    H262718   1.171   2.070  78.642 -0.0985 -1.3932  0.8655
13743TIP3   OH262719   0.115   1.350 102.003  0.1499  0.2129 -0.0574
13743TIP3    H162720   0.021   1.355 101.986 -0.2948 -0.6751  1.8986
13743TIP3    H262721   0.132   1.258 102.020  1.2560  0.4591  0.2752
13744TIP3   OH262722   1.046   0.619  90.455 -0.1264  0.6241  0.4828
13744TIP3    H162723   1.083   0.694  90.409  1.0310  1.1382  2.1673
13744TIP3    H262724   1.112   0.550  90.447  0.7866  1.1898  2.5586
13745TIP3   OH262725   1.740   1.146  98.652 -0.1127  0.9373 -0.3841
13745TIP3    H162726   1.661   1.094  98.636  0.4330  0.2545 -0.9656
13745TIP3    H262727   1.747   1.148  98.748  0.0005 -0.3268 -0.3456
13746TIP3   OH262728   1.549   2.075  18.704 -0.4663  0.0333 -0.0585
13746TIP3    H162729   1.495   1.997  18.711  1.3010 -1.2061  0.4293
13746TIP3    H262730   1.548   2.097  18.610  0.4685 -1.6869 -0.5142
13747TIP3   OH262731   0.518   0.592  36.740 -0.3837  0.1568 -0.3074
13747TIP3    H162732   0.426   0.586  36.712 -0.2872 -2.3297 -0.3202
13747TIP3    H262733   0.565   0.534  36.680  1.3995  2.1001 -0.9032
13748TIP3   OH262734   0.969   0.770  58.642  0.7865  0.1938  0.2378
13748TIP3    H162735   1.007   0.783  58.555  1.2778  1.3268  0.6017
13748TIP3    H262736   0.884   0.814  58.639  0.2453 -0.8208 -0.0210
13749TIP3   OH262737   1.724   0.809  36.793  0.0225 -0.0379 -0.1601
13749TIP3    H162738   1.748   0.897  36.824  2.3085 -0.3668 -0.8746
13749TIP3    H262739   1.651   0.783  36.850 -1.6748  2.8277 -0.8027
13750TIP3   OH262740   2.116   2.338  81.353  0.1698 -0.1373  0.7004
13750TIP3    H162741   2.075   2.258  81.385  0.3017 -0.6086 -0.2779
13750TIP3    H262742   2.056   2.370  81.285  0.7021 -0.0602  0.2610
13751TIP3   OH262743   1.726   1.844  14.576  0.4186  0.6337 -0.3389
13751TIP3    H162744   1.631   1.855  14.586  0.2333 -1.1571  0.1616
13751TIP3    H262745   1.736   1.763  14.525  1.6791 -0.8579  2.1151
13752TIP3   OH262746   1.314   2.265  91.331 -0.6975 -0.1898 -0.1075
13752TIP3    H162747   1.350   2.242  91.246  2.2204  0.6393  0.8026
13752TIP3    H262748   1.303   2.181  91.376 -2.1552 -0.6214 -1.2040
13753TIP3   OH262749   1.387   0.042  74.476  0.1915  0.2157  0.4424
13753TIP3    H162750   1.362   0.003  74.392 -3.0945 -2.0494  2.2363
13753TIP3    H262751   1.465   0.093  74.456  1.1783 -2.3272 -3.4585
13754TIP3   OH262752   1.910   1.961  73.969  0.0107  0.6494  0.5424
13754TIP3    H162753   1.905   1.875  74.013 -0.4404  0.1628 -0.4094
13754TIP3    H262754   1.993   1.998  73.996  0.8598 -0.7128 -0.0960
13755TIP3   OH262755   0.423   0.801  32.692 -0.5949  0.2217  0.0365
13755TIP3    H162756   0.410   0.858  32.616 -1.1436  0.7716  0.5290
13755TIP3    H262757   0.483   0.849  32.748 -0.7695  0.1499  0.2870
13756TIP3   OH262758   1.712   0.492 105.639 -0.0689  0.0233  0.0286
13756TIP3    H162759   1.694   0.425 105.705  1.8763 -1.2725 -0.6578
13756TIP3    H262760   1.684   0.452 105.556  0.8218  0.1590 -0.3502
13757TIP3   OH262761   0.569   1.669   0.429  0.3022  0.3316  0.0334
13757TIP3    H162762   0.500   1.661   0.494 -1.3559  0.4697 -1.6277
13757TIP3    H262763   0.649   1.682   0.480 -0.7731 -0.5478  2.0309
13758TIP3   OH262764   1.327   1.985  88.048  0.0795  0.1381  0.0001
13758TIP3    H162765   1.253   2.012  88.103  0.2120 -0.1183  0.3016
13758TIP3    H262766   1.286   1.945  87.971 -0.1042  0.4787 -0.0875
13759TIP3   OH262767   0.013   1.271   6.702 -0.5537 -0.0695 -0.4032
13759TIP3    H162768   0.050   1.235   6.782 -0.7278  1.0758  0.2198
13759TIP3    H262769   0.077   1.251   6.634 -0.6730 -1.5594 -0.1004
13760TIP3   OH262770   2.666   0.715  88.084 -0.1199  0.3440 -0.1776
13760TIP3    H162771   2.752   0.749  88.109 -0.2657 -0.1156  1.0014
13760TIP3    H262772   2.642   0.765  88.006  1.3777  0.2174 -0.7429
13761TIP3   OH262773   2.460   0.710  88.292 -0.0840  0.1215  0.0546
13761TIP3    H162774   2.521   0.689  88.221 -0.2670  0.6546 -0.2615
13761TIP3    H262775   2.508   0.770  88.348  0.1490 -0.4941  0.5270
13762TIP3   OH262776   0.004   0.805  68.847  0.0764  0.1195  0.3700
13762TIP3    H162777  -0.009   0.815  68.941  0.5099  0.6697  0.3829
13762TIP3    H262778  -0.072   0.755  68.816  0.9285 -1.8737  1.3352
13763TIP3   OH262779   0.082   0.029  57.082  0.1769 -1.2272 -0.0117
13763TIP3    H162780   0.067  -0.065  57.084 -2.0843 -0.9648 -1.1557
13763TIP3    H262781   0.071   0.057  57.172  0.9814 -2.0567  0.3576
13764TIP3   OH262782   1.966   0.747  90.102  0.5104 -0.4557 -0.3229
13764TIP3    H162783   1.940   0.783  90.187 -1.1749 -0.0359 -0.9685
13764TIP3    H262784   2.041   0.800  90.076  0.8845 -0.4222  0.7833
13765TIP3   OH262785   2.517   0.401   7.558 -0.0454  0.0247  0.1631
13765TIP3    H162786   2.576   0.474   7.536 -0.6415  1.0752  1.7834
13765TIP3    H262787   2.555   0.364   7.638 -0.6114 -0.4342  0.2221
13766TIP3   OH262788   1.196   2.499   4.716 -0.0445 -0.0778  0.5315
13766TIP3    H162789   1.263   2.479   4.781  1.0030  1.0578 -0.1521
13766TIP3    H262790   1.205   2.593   4.700 -0.0877 -0.3698 -1.4319
13767TIP3   OH262791   0.925   1.159  75.429  0.1329  0.7870  0.0095
13767TIP3    H162792   0.921   1.191  75.338  0.1566 -1.6329 -0.9159
13767TIP3    H262793   0.870   1.081  75.429  1.7951 -0.4678  1.5458
13768TIP3   OH262794   2.627   2.673  12.968 -0.2075 -0.5206 -0.1029
13768TIP3    H162795   2.665   2.636  13.048 -0.5159  0.0130  0.2956
13768TIP3    H262796   2.631   2.768  12.981 -0.8287 -0.4404 -0.4598
13769TIP3   OH262797   1.030   0.615  35.191  0.2986  0.1074 -0.4866
13769TIP3    H162798   1.116   0.639  35.155 -0.3163  1.2752 -1.2259
13769TIP3    H262799   0.977   0.595  35.115  0.0421 -1.1493 -0.0065
13770TIP3   OH262800   2.418   0.696  33.954 -0.0128  0.6319 -0.0582
13770TIP3    H162801   2.412   0.649  34.038  0.5618 -0.2979 -0.5127
13770TIP3    H262802   2.481   0.766  33.971  1.4183 -0.5730 -0.1201
13771TIP3   OH262803   0.628   0.050  99.936 -0.0462 -0.0787 -0.1986
13771TIP3    H162804   0.552   0.078  99.988  1.4907  1.6023  1.2699
13771TIP3    H262805   0.689   0.014 100.001  0.8510 -0.4376 -1.2116
13772TIP3   OH262806   2.560   2.053  28.991  0.0952 -0.2973 -0.0175
13772TIP3    H162807   2.501   1.983  29.017 -0.1298 -0.8045 -1.7452
13772TIP3    H262808   2.505   2.115  28.944  0.4540  0.6331  0.7462
13773TIP3   OH262809   0.924   1.980  79.501  0.1083  0.0874  0.8021
13773TIP3    H162810   0.964   1.928  79.571  2.4450  0.6262 -0.0216
13773TIP3    H262811   0.980   2.057  79.494  0.2728 -0.1580 -1.9208
13774TIP3   OH262812   2.565   2.351  47.806 -0.2601 -0.6151  0.1412
13774TIP3    H162813   2.496   2.291  47.835 -0.7228 -0.0397  0.2525
13774TIP3    H262814   2.522   2.436  47.799 -0.0043 -0.5882 -1.5799
13775TIP3   OH262815   1.269   1.059   9.853 -0.4095  0.2778 -0.0728
13775TIP3    H162816   1.248   1.051   9.760 -0.1459 -0.4536 -0.0757
13775TIP3    H262817   1.363   1.039   9.859 -0.7624 -1.4045  0.5469
13776TIP3   OH262818   2.308   0.814  19.513  0.4893  0.1777  0.1715
13776TIP3    H162819   2.349   0.728  19.523 -0.6022 -0.2535  1.3112
13776TIP3    H262820   2.257   0.825  19.593 -0.9969  1.0026 -0.8427
13777TIP3   OH262821   1.106   0.271  20.593  0.2849  0.2625  0.4523
13777TIP3    H162822   1.151   0.346  20.631 -0.3539  0.4402  0.8880
13777TIP3    H262823   1.100   0.291  20.499 -0.1002  0.8862  0.6001
13778TIP3   OH262824   1.253   0.026   9.501  0.2109  0.0744 -0.2026
13778TIP3    H162825   1.203   0.068   9.571  0.7723  1.5914 -0.6904
13778TIP3    H262826   1.226  -0.066   9.505 -0.4155  0.2978  1.4334
13779TIP3   OH262827   0.673   2.669 110.130 -0.4159  0.0332 -0.0018
13779TIP3    H162828   0.633   2.596 110.082  0.9879 -1.6030  1.2270
13779TIP3    H262829   0.760   2.638 110.153 -0.4404  1.3987  2.1652
13780TIP3   OH262830   2.243   1.599  31.211  0.0928 -0.7176  0.0778
13780TIP3    H162831   2.241   1.512  31.170 -0.9464 -0.3734 -0.6331
13780TIP3    H262832   2.334   1.611  31.236  0.0279 -2.5959  1.4739
13781TIP3   OH262833   1.896   0.312 102.164 -0.4656  0.0991  0.0068
13781TIP3    H162834   1.965   0.311 102.230 -0.3678 -0.1857 -0.0971
13781TIP3    H262835   1.823   0.357 102.206  0.1281  1.3303 -0.2231
13782TIP3   OH262836   1.044   1.673  81.568 -0.5358  0.0724  0.2688
13782TIP3    H162837   1.033   1.600  81.507  1.0351 -0.1496  0.2163
13782TIP3    H262838   0.972   1.664  81.630 -0.3516 -1.5533  0.2882
13783TIP3   OH262839   0.334   2.232 103.309 -0.0691 -0.3240 -0.5089
13783TIP3    H162840   0.362   2.292 103.240 -0.8225  1.6207  0.7886
13783TIP3    H262841   0.416   2.205 103.352  0.1738  2.3909  0.9206
13784TIP3   OH262842   1.949   2.550  28.583 -0.2174 -0.4354 -0.3643
13784TIP3    H162843   1.957   2.461  28.548 -0.4538 -0.6767  0.1712
13784TIP3    H262844   2.009   2.551  28.658 -0.2926 -0.1791 -0.3074
13785TIP3   OH262845   0.303   2.375  76.697  0.4267  0.0270  0.2949
13785TIP3    H162846   0.292   2.351  76.605 -1.9809 -0.4284  0.6298
13785TIP3    H262847   0.328   2.467  76.695 -1.4274  0.5780 -0.8419
13786TIP3   OH262848   0.379   1.633   8.235 -0.3354  0.3852 -0.2103
13786TIP3    H162849   0.451   1.694   8.217  0.2621 -0.2243  0.0928
13786TIP3    H262850   0.380   1.623   8.330 -0.1619 -0.4162 -0.2911
13787TIP3   OH262851   0.038   1.938  27.252  0.0603 -0.2462  0.1759
13787TIP3    H162852  -0.003   2.020  27.279  0.4222  0.0925 -0.2968
13787TIP3    H262853   0.111   1.964  27.196  0.2260 -0.8869  0.0792
13788TIP3   OH262854   1.624   2.096   2.074 -0.0608 -0.1085  0.2376
13788TIP3    H162855   1.581   2.045   2.006 -0.7359 -0.0989  0.6455
13788TIP3    H262856   1.563   2.167   2.093  0.9286  0.9560 -0.4270
13789TIP3   OH262857   1.732   2.058   6.501 -0.1000  0.7779 -0.0175
13789TIP3    H162858   1.666   1.992   6.481  1.1216 -0.1782 -0.9921
13789TIP3    H262859   1.746   2.050   6.596  0.1473 -0.4715 -0.1504
13790TIP3   OH262860   1.375   0.893   0.159 -0.0558  0.2370 -0.3126
13790TIP3    H162861   1.447   0.892   0.096 -0.2448  1.0751 -0.5449
13790TIP3    H262862   1.305   0.843   0.116 -0.5106  1.5632 -1.1800
13791TIP3   OH262863   0.998   0.046 110.010  0.2113  0.0984 -0.3243
13791TIP3    H162864   1.050  -0.022 110.053  2.0953  1.0797 -0.9379
13791TIP3    H262865   0.999   0.022 109.917 -0.0170  0.3904 -0.4073
13792TIP3   OH262866   0.761   0.973 104.009  0.0264  0.3302  0.0505
13792TIP3    H162867   0.807   0.902 103.963  0.4983  0.7171 -0.0881
13792TIP3    H262868   0.829   1.013 104.064 -0.0058  1.2550 -0.5670
13793TIP3   OH262869   2.475   1.142 101.489 -0.4231  0.1323  0.4921
13793TIP3    H162870   2.550   1.200 101.501 -0.5520  0.1251  1.3864
13793TIP3    H262871   2.408   1.176 101.548 -1.5827  0.8621 -1.1759
13794TIP3   OH262872   0.204   1.514  22.586  0.0902 -0.1260 -0.0462
13794TIP3    H162873   0.248   1.524  22.670 -0.3581 -0.2315  0.2035
13794TIP3    H262874   0.267   1.546  22.521  1.4516 -2.3218  0.0727
13795TIP3   OH262875   0.049   0.088   5.997  0.1788  0.2538  0.2944
13795TIP3    H162876   0.069   0.049   6.082 -2.0671  0.0828  0.8146
13795TIP3    H262877   0.023   0.013   5.943 -0.3885  0.5856  0.1036
13796TIP3   OH262878   0.274   2.014  83.807  0.1405  0.6146 -0.8463
13796TIP3    H162879   0.327   2.077  83.857 -0.6206  0.9470 -0.4322
13796TIP3    H262880   0.337   1.965  83.755  0.7881  1.5018 -0.9243
13797TIP3   OH262881   0.053   2.547  18.835  0.0534 -0.5416 -0.1238
13797TIP3    H162882   0.133   2.584  18.874  0.9609 -0.8613 -1.6147
13797TIP3    H262883  -0.018   2.597  18.875  1.0782  0.7230  0.1978
13798TIP3   OH262884   1.796   0.838 100.360  0.0742 -0.0493 -0.3850
13798TIP3    H162885   1.891   0.853 100.361  0.0349  0.2473  1.0423
13798TIP3    H262886   1.775   0.822 100.268  1.5327 -0.2770 -0.6983
13799TIP3   OH262887   2.258   1.062 103.345 -0.1979  0.3624 -0.3187
13799TIP3    H162888   2.234   1.059 103.252  0.6921  0.1845 -0.5513
13799TIP3    H262889   2.315   1.139 103.352 -0.8945  0.8438  0.2484
13800TIP3   OH262890   0.326   0.284 103.111 -0.1587 -0.2833  0.0623
13800TIP3    H162891   0.231   0.282 103.109 -0.1814  0.2301  0.4850
13800TIP3    H262892   0.351   0.200 103.149 -0.4069 -0.7729 -0.8179
13801TIP3   OH262893   2.628   2.580  77.658  0.1847 -0.2524 -0.2091
13801TIP3    H162894   2.569   2.656  77.666  2.5517  1.8078 -1.0307
13801TIP3    H262895   2.710   2.617  77.626  2.4619 -2.7063  2.2442
13802TIP3   OH262896   1.737   1.837  10.411  0.5728  0.2214 -0.1681
13802TIP3    H162897   1.709   1.768  10.350 -0.1582  0.1029  0.2890
13802TIP3    H262898   1.823   1.864  10.379  0.9250 -0.9906 -0.2880
13803TIP3   OH262899   0.016   0.889  16.558  0.1077 -0.2343  0.3349
13803TIP3    H162900   0.087   0.855  16.612  1.1419 -1.8808 -1.8835
13803TIP3    H262901  -0.025   0.811  16.521 -1.7928  0.7621  0.2129
13804TIP3   OH262902   2.186   1.056  79.123  0.0792  0.2985  0.3841
13804TIP3    H162903   2.131   0.992  79.076 -0.6529  0.6465  0.7574
13804TIP3    H262904   2.219   1.008  79.199  1.0062 -0.1695 -0.2844
13805TIP3   OH262905   2.161   0.144  74.005 -0.1488  0.2334  0.1335
13805TIP3    H162906   2.244   0.119  73.965  0.4215  0.5156  1.1178
13805TIP3    H262907   2.136   0.225  73.960 -0.8348 -0.7888 -1.4246
13806TIP3   OH262908   2.589   1.078  85.887 -0.5911  0.1347 -0.7521
13806TIP3    H162909   2.507   1.086  85.839 -1.3289  0.9106  0.6082
13806TIP3    H262910   2.577   1.002  85.943  0.0828 -0.4617 -1.3842
13807TIP3   OH262911   2.112   2.154  45.527 -0.3005  0.2292  0.0131
13807TIP3    H162912   2.148   2.171  45.440 -3.0342  0.0613 -1.2811
13807TIP3    H262913   2.033   2.208  45.531 -0.5280 -0.1773  2.1997
13808TIP3   OH262914   1.612   1.113  77.876 -0.2527 -0.1335 -0.3861
13808TIP3    H162915   1.703   1.085  77.882 -0.6266 -1.4252 -0.4283
13808TIP3    H262916   1.562   1.031  77.868 -1.5210  0.4630  0.9567
13809TIP3   OH262917   0.705   0.282  99.826 -0.5979  0.1595 -0.1894
13809TIP3    H162918   0.721   0.317  99.914 -1.2464 -0.3244  0.1259
13809TIP3    H262919   0.684   0.190  99.840 -0.5152  0.0322 -0.8697
13810TIP3   OH262920   1.518   0.686  91.877 -0.6087  0.0718  0.1521
13810TIP3    H162921   1.548   0.634  91.802 -1.0207 -0.6139  0.4630
13810TIP3    H262922   1.555   0.773  91.861  0.9589 -0.5651  0.1555
13811TIP3   OH262923   0.053   2.118   3.264  0.4002 -0.0731 -0.1944
13811TIP3    H162924  -0.020   2.178   3.281  0.1054 -0.4735 -0.0404
13811TIP3    H262925   0.074   2.082   3.350 -0.8727 -1.8513 -0.5748
13812TIP3   OH262926   2.416   1.533  81.341  0.5441 -0.2625  0.5016
13812TIP3    H162927   2.429   1.447  81.299 -0.6837  0.2099 -0.9690
13812TIP3    H262928   2.384   1.512  81.429 -0.3535 -1.3422 -0.0545
13813TIP3   OH262929   0.984   2.149 103.161 -0.0162 -0.0867  0.6294
13813TIP3    H162930   0.914   2.140 103.096 -0.0219  1.1955  0.4319
13813TIP3    H262931   1.004   2.059 103.188 -0.3349 -0.6049 -0.8019
13814TIP3   OH262932   2.392   1.687  10.510 -0.0259 -0.0177 -0.0053
13814TIP3    H162933   2.357   1.603  10.481 -0.9917  0.8556 -1.5210
13814TIP3    H262934   2.365   1.694  10.601  0.2922 -1.4623  0.2126
13815TIP3   OH262935   2.148   1.575   4.062 -0.6777 -0.1853  0.5038
13815TIP3    H162936   2.212   1.577   4.132 -1.3721 -0.4133  1.1594
13815TIP3    H262937   2.094   1.498   4.080 -0.4265 -0.6590 -0.6799
13816TIP3   OH262938   0.000   2.493  80.681  0.0925 -0.6534 -0.1018
13816TIP3    H162939   0.035   2.534  80.602  0.8031 -2.2394 -0.6468
13816TIP3    H262940   0.078   2.465  80.730 -0.3591 -0.7977  0.5477
13817TIP3   OH262941   1.100   0.988 102.956 -0.2260  0.1682 -0.3755
13817TIP3    H162942   1.014   1.007 102.919  0.0081 -0.0834 -1.0498
13817TIP3    H262943   1.144   1.074 102.959 -0.9008  0.4944  1.0309
13818TIP3   OH262944   0.572   1.038  63.957  0.2218  0.2746 -0.3754
13818TIP3    H162945   0.573   1.008  64.048 -0.5644 -0.1810 -0.5019
13818TIP3    H262946   0.602   1.128  63.961  0.4498  0.1762  0.3054
13819TIP3   OH262947   1.565   0.311 100.681  0.3145 -0.1452 -0.2355
13819TIP3    H162948   1.628   0.245 100.709  0.4277 -0.9367 -2.1984
13819TIP3    H262949   1.519   0.270 100.608 -1.4801  0.9688  0.2169
13820TIP3   OH262950   0.402   1.596  95.178  0.0929  0.0400 -0.0308
13820TIP3    H162951   0.460   1.671  95.191  0.4287  0.0564 -1.4309
13820TIP3    H262952   0.383   1.564  95.266  2.4199 -0.1082  0.4703
13821TIP3   OH262953   1.703   0.496   8.853 -0.1934 -0.4960 -0.4083
13821TIP3    H162954   1.680   0.533   8.767 -0.2577  0.6232  0.0803
13821TIP3    H262955   1.625   0.509   8.906  0.6973  1.1929  0.5721
13822TIP3   OH262956   2.527   0.085  78.054  0.1955  0.6090  0.4195
13822TIP3    H162957   2.494   0.156  78.108  0.1982  1.1464 -0.2717
13822TIP3    H262958   2.533   0.122  77.966  0.2276 -0.2349  0.0530
13823TIP3   OH262959   1.276   0.107 106.246  0.4312 -0.0306  0.1231
13823TIP3    H162960   1.344   0.165 106.279 -0.0162  0.9732 -0.6841
13823TIP3    H262961   1.321   0.052 106.182  0.0761  2.2777 -2.2892
13824TIP3   OH262962   0.263   1.861  78.792 -0.3604  0.2809  0.4995
13824TIP3    H162963   0.349   1.898  78.773 -0.1386 -0.1823  0.5665
13824TIP3    H262964   0.281   1.788  78.852 -0.4862 -1.5392 -1.5360
13825TIP3   OH262965   0.424   2.485  17.861  0.0726 -0.2078  0.6504
13825TIP3    H162966   0.355   2.424  17.833  1.4418 -1.4782 -0.0801
13825TIP3    H262967   0.405   2.566  17.813 -0.3389 -0.8598 -0.3241
13826TIP3   OH262968   2.214   0.671  79.534 -0.0497  0.1504 -0.2062
13826TIP3    H162969   2.188   0.674  79.442 -2.7214 -0.7533  0.4268
13826TIP3    H262970   2.133   0.688  79.582  0.7840 -1.6432  1.9932
13827TIP3   OH262971   0.346   0.577  96.422 -0.0831 -0.3723 -0.4125
13827TIP3    H162972   0.399   0.635  96.366 -0.6310  1.1314  0.5556
13827TIP3    H262973   0.376   0.489  96.400  2.0429  0.3506 -0.6844
13828TIP3   OH262974   0.432   2.393  63.847  0.2848  0.4805 -0.1705
13828TIP3    H162975   0.457   2.312  63.803  0.0217 -1.1773  2.5508
13828TIP3    H262976   0.485   2.461  63.803  3.2167 -1.6466 -0.2551
13829TIP3   OH262977   1.223   1.573   6.824  1.0251  0.3443 -0.1225
13829TIP3    H162978   1.189   1.484   6.818 -0.3934  0.8818 -0.4040
13829TIP3    H262979   1.259   1.580   6.912 -0.0611 -0.1072  0.3744
13830TIP3   OH262980   0.077   1.745  90.537 -0.0432  0.0373  0.1850
13830TIP3    H162981   0.014   1.697  90.483 -0.2803 -0.0718  0.5588
13830TIP3    H262982   0.156   1.692  90.534  1.0094  1.5341 -2.5915
13831TIP3   OH262983   0.638   2.619  63.194  0.2853  0.2370 -0.7201
13831TIP3    H162984   0.634   2.701  63.244  0.1296  0.9318 -1.8342
13831TIP3    H262985   0.548   2.585  63.197 -0.3693  1.6306 -2.6665
13832TIP3   OH262986   0.196   2.586  89.809  0.4080  0.2221 -0.6008
13832TIP3    H162987   0.285   2.594  89.843  0.0129 -1.1419  0.8970
13832TIP3    H262988   0.145   2.648  89.861  0.0516 -0.8946  0.4590
13833TIP3   OH262989   2.583   0.107  76.711 -0.1782 -0.1099  0.4181
13833TIP3    H162990   2.610   0.168  76.779 -0.8520  0.6499  0.0181
13833TIP3    H262991   2.492   0.131  76.692  0.2622  0.3037 -1.3724
13834TIP3   OH262992   0.442   2.298   9.920  0.3070  0.2398 -0.6494
13834TIP3    H162993   0.527   2.336   9.895  0.5170 -0.7515 -1.5230
13834TIP3    H262994   0.457   2.203   9.916 -0.3645  0.0506  0.9204
13835TIP3   OH262995   0.445   0.362  16.623 -0.2946  0.1018 -0.2532
13835TIP3    H162996   0.486   0.332  16.704  0.4590  2.0770  0.1407
13835TIP3    H262997   0.516   0.400  16.572 -1.3093  2.0630 -0.2933
13836TIP3   OH262998   0.145   0.179 108.338  0.7500  0.1266  0.3412
13836TIP3    H162999   0.206   0.251 108.326 -0.3641  1.1793  0.7931
13836TIP3    H263000   0.085   0.209 108.407  0.1231 -1.1372  0.3888
13837TIP3   OH263001   1.660   2.559   6.116 -0.2224  0.6230  0.0892
13837TIP3    H163002   1.728   2.607   6.164 -0.4875  0.1482  0.9632
13837TIP3    H263003   1.600   2.528   6.184 -0.1609 -0.7848 -0.4526
13838TIP3   OH263004   1.743   1.754  77.017  1.0557 -0.1978 -0.0737
13838TIP3    H163005   1.656   1.735  77.052  1.1168 -0.1524  0.1053
13838TIP3    H263006   1.732   1.836  76.969  1.1337  0.1320  0.4662
13839TIP3   OH263007   2.202   1.790  13.058  0.2007  0.4417  0.2192
13839TIP3    H163008   2.125   1.792  13.115  0.0282 -0.5738  0.0427
13839TIP3    H263009   2.172   1.827  12.975  0.6585  2.6738  0.9901
13840TIP3   OH263010   0.551   0.968  89.270  0.0756 -0.4081 -0.3795
13840TIP3    H163011   0.492   1.005  89.204  0.2529  0.0934 -0.2601
13840TIP3    H263012   0.629   1.023  89.268 -0.7884  1.0645  1.8079
13841TIP3   OH263013   0.826   1.134  97.994  0.4234  0.2929  0.0002
13841TIP3    H163014   0.797   1.143  98.085 -1.9190  1.0322 -0.7455
13841TIP3    H263015   0.826   1.040  97.978 -1.1796  0.2279  0.2165
13842TIP3   OH263016   1.974   0.213  75.795 -0.4001 -0.3052  0.5276
13842TIP3    H163017   1.894   0.161  75.788 -0.4196 -0.0940 -1.1899
13842TIP3    H263018   2.040   0.162  75.749  0.2558 -0.0470  1.1619
13843TIP3   OH263019   2.329   0.245  86.432 -0.5094 -0.5504  0.4686
13843TIP3    H163020   2.333   0.281  86.520  0.4139 -0.2540  0.3238
13843TIP3    H263021   2.336   0.321  86.374 -0.6056 -0.7819  0.1495
13844TIP3   OH263022   0.471   1.786  88.663  0.7309  0.2209  0.4430
13844TIP3    H163023   0.481   1.838  88.744 -0.3826  2.4645 -0.7491
13844TIP3    H263024   0.460   1.696  88.694 -1.1070  1.1591  2.9261
13845TIP3   OH263025   2.136   0.543 101.494 -0.3241  0.3438  0.4591
13845TIP3    H163026   2.153   0.578 101.581 -1.7998 -1.3159  1.4799
13845TIP3    H263027   2.081   0.609 101.452  0.1939  1.0445  0.8566
13846TIP3   OH263028   0.071   2.197 108.556  0.0249  0.0713  0.2496
13846TIP3    H163029   0.019   2.169 108.632 -0.5685 -1.5618 -0.7119
13846TIP3    H263030   0.132   2.125 108.541 -0.3642  0.0303 -1.2664
13847TIP3   OH263031   0.908   0.156  12.521 -0.1427  0.0844  0.1440
13847TIP3    H163032   0.932   0.245  12.543 -0.2217 -0.2045  1.4749
13847TIP3    H263033   0.957   0.136  12.441 -0.1017  1.2882 -0.1406
13848TIP3   OH263034   2.003   2.313  14.261 -0.2241  0.7572 -0.4526
13848TIP3    H163035   2.011   2.252  14.334 -0.8291 -0.0135 -1.0068
13848TIP3    H263036   1.957   2.389  14.298 -2.1177 -0.3533 -0.3989
13849TIP3   OH263037   1.284   2.137  33.256  0.3911  0.4468  0.1977
13849TIP3    H163038   1.276   2.041  33.252 -0.2846  0.4823  0.4863
13849TIP3    H263039   1.304   2.163  33.167  0.1012  0.0701  0.0199
13850TIP3   OH263040   0.358   0.562  83.457  0.3146  0.1351  0.8556
13850TIP3    H163041   0.425   0.593  83.518  1.5638 -1.4590  0.3750
13850TIP3    H263042   0.336   0.474  83.488 -0.0450 -0.1536 -0.1751
13851TIP3   OH263043   1.881   1.926   4.681  0.1754  0.0493  0.1316
13851TIP3    H163044   1.844   1.839   4.693  0.9035 -0.1730  0.8582
13851TIP3    H263045   1.972   1.910   4.655  0.0782  0.5934 -0.6001
13852TIP3   OH263046   1.336   0.781 103.443  0.1069  0.2535 -0.1820
13852TIP3    H163047   1.416   0.797 103.392  0.3176 -1.2708 -0.3623
13852TIP3    H263048   1.366   0.766 103.532 -0.2070  2.1764  0.2930
13853TIP3   OH263049   2.534   0.176  77.801 -0.6507 -0.3110  0.1260
13853TIP3    H163050   2.629   0.187  77.810 -0.3774 -1.9644 -0.5306
13853TIP3    H263051   2.509   0.240  77.735  0.1941 -0.6329 -0.5192
13854TIP3   OH263052   0.659   2.274  88.552 -0.4298  0.4182  0.1281
13854TIP3    H163053   0.572   2.314  88.554 -0.8148 -0.1056 -2.5729
13854TIP3    H263054   0.655   2.210  88.481  2.4136  0.9297 -0.6174
13855TIP3   OH263055   0.230   2.233  85.340 -0.1094 -0.6175  0.6195
13855TIP3    H163056   0.143   2.193  85.337 -0.4782  0.2024  0.1572
13855TIP3    H263057   0.264   2.212  85.427 -0.6044 -1.2774  0.6636
13856TIP3   OH263058   2.660   0.670   6.861 -0.0269 -0.5155 -0.2313
13856TIP3    H163059   2.691   0.710   6.780 -0.4108 -0.1768 -0.2165
13856TIP3    H263060   2.567   0.693   6.865  0.1965  0.3067  0.7852
13857TIP3   OH263061   0.110   0.016  87.953 -0.1244  0.0154  0.5416
13857TIP3    H163062   0.155   0.100  87.962  0.1948 -0.2741  2.0425
13857TIP3    H263063   0.181  -0.046  87.934 -0.2605 -0.0241  0.1676
13858TIP3   OH263064   1.634   2.597  81.822 -0.4719  0.1711  0.5153
13858TIP3    H163065   1.681   2.553  81.893  1.2095  0.8706 -0.1116
13858TIP3    H263066   1.564   2.536  81.799 -0.4930 -0.4801  2.1272
13859TIP3   OH263067   0.411   2.134  18.570  0.6581 -0.2191 -0.4762
13859TIP3    H163068   0.336   2.079  18.549  0.6027 -0.2171 -0.2872
13859TIP3    H263069   0.411   2.138  18.666  1.0667 -0.4524 -0.4657
13860TIP3   OH263070   2.240   2.467  16.524 -0.1180  0.2122  0.0711
13860TIP3    H163071   2.278   2.440  16.608  0.1744 -0.0599 -0.1453
13860TIP3    H263072   2.147   2.445  16.531  0.0048 -0.2992  0.1266
13861TIP3   OH263073   0.588   2.443  34.802 -0.2414 -0.1450 -0.4132
13861TIP3    H163074   0.599   2.452  34.707  1.4957  2.3249 -0.0755
13861TIP3    H263075   0.616   2.353  34.821 -2.9683 -1.5623 -2.4401
13862TIP3   OH263076   2.670   0.174   3.080 -0.1470  0.2243 -0.0598
13862TIP3    H163077   2.745   0.115   3.070  1.1100  1.6168  0.8567
13862TIP3    H263078   2.616   0.156   3.003  1.0812 -0.8498 -0.7161
13863TIP3   OH263079   1.340   0.759 100.999 -0.2531  0.1625  0.3968
13863TIP3    H163080   1.395   0.724 100.929 -0.0351  2.5564 -0.7392
13863TIP3    H263081   1.254   0.773 100.958 -1.0529 -1.2472  1.4986
13864TIP3   OH263082   0.300   2.564   0.650  0.1918  0.0337 -0.4212
13864TIP3    H163083   0.249   2.502   0.702  0.5558 -0.0362 -0.1337
13864TIP3    H263084   0.265   2.649   0.672  1.6183  0.1966  1.4987
13865TIP3   OH263085   0.805   2.261  34.304 -0.1750 -0.2195  0.5811
13865TIP3    H163086   0.900   2.268  34.311 -0.0941 -1.3226  0.7690
13865TIP3    H263087   0.785   2.173  34.335 -0.9761 -1.0461 -1.9825
13866TIP3   OH263088   0.560   0.969  23.278  0.0298  0.4034  0.4119
13866TIP3    H163089   0.495   0.908  23.241 -0.1972 -0.5802  2.2844
13866TIP3    H263090   0.638   0.957  23.223 -1.1831  1.2676 -1.5946
13867TIP3   OH263091   1.400   1.325  34.255 -0.5209  0.6755  0.1425
13867TIP3    H163092   1.366   1.241  34.284 -0.3326  0.4028 -0.4073
13867TIP3    H263093   1.360   1.339  34.169 -1.4073  1.6672  0.6875
13868TIP3   OH263094   2.589   0.278 108.772  0.1747 -0.0753  0.2157
13868TIP3    H163095   2.531   0.220 108.822 -0.4336  0.0776 -0.2999
13868TIP3    H263096   2.615   0.345 108.836  1.6217 -1.3925  1.0723
13869TIP3   OH263097   1.944   2.493  25.271  0.5506 -0.0477 -0.9094
13869TIP3    H163098   1.875   2.434  25.241  1.0987 -0.3671 -1.5667
13869TIP3    H263099   1.948   2.562  25.205 -0.3879  0.9996  0.0772
13870TIP3   OH263100   2.503   1.044  11.924 -0.0491  0.4337  0.1361
13870TIP3    H163101   2.482   1.019  12.014 -0.5194  3.4175  0.9837
13870TIP3    H263102   2.428   1.012  11.873 -0.5639  0.0875  1.0759
13871TIP3   OH263103   1.103   0.629  21.772  0.2587 -0.0237  0.2428
13871TIP3    H163104   1.165   0.664  21.708 -0.3781 -0.4809 -0.6461
13871TIP3    H263105   1.017   0.659  21.741 -0.1386 -0.9793  0.3943
13872TIP3   OH263106   0.238   1.757  17.633  0.4605  0.2206  0.0303
13872TIP3    H163107   0.167   1.736  17.695  0.4171  1.0613  0.2822
13872TIP3    H263108   0.313   1.707  17.665 -0.0484 -0.8191 -0.3379
13873TIP3   OH263109   1.306   1.137  21.151 -0.1870 -0.5260 -0.0873
13873TIP3    H163110   1.393   1.139  21.192 -0.3447 -0.3713  0.2493
13873TIP3    H263111   1.323   1.139  21.057  0.3305 -4.1368 -0.2188
13874TIP3   OH263112   1.833   1.904  89.475  0.5033 -0.2213  0.4552
13874TIP3    H163113   1.738   1.906  89.463  0.4918  1.8652  0.4673
13874TIP3    H263114   1.861   1.823  89.432 -1.1983 -0.5076 -0.2012
13875TIP3   OH263115   1.645   1.272  22.933  0.3646  0.0916 -0.5133
13875TIP3    H163116   1.732   1.311  22.937 -0.2814  2.0346 -2.9407
13875TIP3    H263117   1.646   1.219  22.852 -0.3519 -0.9057  0.1018
13876TIP3   OH263118   2.325   0.971  89.771  0.1851  0.6784  0.0042
13876TIP3    H163119   2.358   1.058  89.796 -0.9282  0.8790  0.8467
13876TIP3    H263120   2.380   0.945  89.697  1.4245  1.5089  0.5989
13877TIP3   OH263121   0.798   1.608  77.907 -0.1199  0.5620 -0.0444
13877TIP3    H163122   0.734   1.582  77.841 -0.0747  0.3512 -0.0032
13877TIP3    H263123   0.753   1.676  77.958 -0.6938 -0.3041  0.6305
13878TIP3   OH263124   0.810   1.217  85.782 -0.2349  0.0005  1.0649
13878TIP3    H163125   0.898   1.234  85.748 -0.4203  1.2057  1.1420
13878TIP3    H263126   0.778   1.303  85.809 -2.2543 -0.0346 -0.9338
13879TIP3   OH263127   0.436   0.177  41.532 -0.6003  0.4617  0.3562
13879TIP3    H163128   0.520   0.188  41.576  0.6110 -0.2712 -1.6056
13879TIP3    H263129   0.411   0.266  41.506  0.6528  0.5200 -0.8132
13880TIP3   OH263130   2.419   2.246  91.741  0.0380  0.3143  0.0466
13880TIP3    H163131   2.466   2.315  91.695  0.2195 -0.3758 -0.8316
13880TIP3    H263132   2.334   2.285  91.763  0.6457  1.2509  0.7867
13881TIP3   OH263133   1.845   2.466  94.116 -0.6668  0.3095 -0.2964
13881TIP3    H163134   1.898   2.500  94.188 -1.3810  0.7075  0.0428
13881TIP3    H263135   1.876   2.513  94.038  1.0938 -1.1217 -0.5340
13882TIP3   OH263136   0.874   1.830  25.086 -0.5902 -0.4689 -0.0381
13882TIP3    H163137   0.889   1.823  24.992 -0.6971 -0.5697 -0.0468
13882TIP3    H263138   0.953   1.872  25.119 -0.8694  0.2462 -0.2717
13883TIP3   OH263139   0.577   1.023  98.272 -0.0626 -0.1473 -0.0200
13883TIP3    H163140   0.666   1.058  98.284 -1.0145  1.9918  1.2937
13883TIP3    H263141   0.543   1.070  98.196  0.1900 -1.6576 -1.1288
13884TIP3   OH263142   2.537   1.953  13.471  0.1893  0.4272 -0.1054
13884TIP3    H163143   2.448   1.920  13.479 -0.4804  2.2489  0.5647
13884TIP3    H263144   2.579   1.929  13.554  1.0641 -2.2841 -1.2198
13885TIP3   OH263145   1.982   2.045   8.512  0.2833  0.2057 -0.1858
13885TIP3    H163146   2.001   2.118   8.572 -1.7096  0.6938 -0.0715
13885TIP3    H263147   1.900   2.008   8.545  1.2562 -2.1523 -0.2311
13886TIP3   OH263148   2.663   0.513  75.853 -0.5263  0.5211  0.1269
13886TIP3    H163149   2.584   0.559  75.826 -0.1709  1.1110  0.0670
13886TIP3    H263150   2.648   0.422  75.827 -0.5152  0.9219 -1.3784
13887TIP3   OH263151   0.852   0.234  56.904  0.6864  0.0349  0.0816
13887TIP3    H163152   0.940   0.245  56.868  0.5462 -2.5729 -1.3417
13887TIP3    H263153   0.795   0.279  56.841  0.9849  2.6440  1.5584
13888TIP3   OH263154   1.167   0.405 104.652  0.0224  0.2394  0.1504
13888TIP3    H163155   1.119   0.332 104.615 -1.0701  0.9512  0.0997
13888TIP3    H263156   1.099   0.458 104.695  0.7488  1.3315 -0.0162
13889TIP3   OH263157   1.787   0.883   9.768  0.0090  0.0174  0.2104
13889TIP3    H163158   1.777   0.870   9.674 -0.2045 -0.4746  0.2973
13889TIP3    H263159   1.709   0.931   9.794  0.0809  0.1771  0.1340
13890TIP3   OH263160   0.595   0.990 100.509  0.1834 -0.3252 -0.5184
13890TIP3    H163161   0.624   1.081 100.513  0.6828 -0.5214  0.8633
13890TIP3    H263162   0.502   0.994 100.532  0.4803 -0.2690  0.7282
13891TIP3   OH263163   0.760   1.365  75.701 -0.0143  0.4496  0.2889
13891TIP3    H163164   0.844   1.326  75.728 -0.3465  0.4478  1.3937
13891TIP3    H263165   0.758   1.449  75.747 -1.0945 -0.0281  1.1425
13892TIP3   OH263166   0.379   2.175 101.801  0.4702 -0.1623 -0.5457
13892TIP3    H163167   0.468   2.210 101.803  0.5887 -0.3560  2.9155
13892TIP3    H263168   0.355   2.166 101.893 -2.2070 -2.4919 -1.3516
13893TIP3   OH263169   1.519   2.483  23.703  0.2529  0.1324 -0.0623
13893TIP3    H163170   1.500   2.408  23.646  1.6411  0.4255 -0.9506
13893TIP3    H263171   1.574   2.541  23.649 -1.6222  2.3146  0.2273
13894TIP3   OH263172   2.149   2.535  32.429 -0.2839 -0.1133 -0.1871
13894TIP3    H163173   2.063   2.493  32.437  0.8054 -2.6533 -0.9303
13894TIP3    H263174   2.133   2.613  32.376 -2.1744 -0.3038  0.0350
13895TIP3   OH263175   1.144   2.055  83.473 -0.2991 -0.1064  0.4733
13895TIP3    H163176   1.137   1.983  83.410  0.3653 -0.0702  0.3533
13895TIP3    H263177   1.101   2.022  83.552 -1.1626 -0.1442  0.0061
13896TIP3   OH263178   0.400   0.024  81.907 -0.4147 -0.6854  0.2411
13896TIP3    H163179   0.392  -0.044  81.975 -2.0710 -1.8465 -1.0401
13896TIP3    H263180   0.453  -0.018  81.839 -0.8071 -0.4264 -0.2279
13897TIP3   OH263181   0.689   1.649  92.931 -0.2622  0.2833 -0.7024
13897TIP3    H163182   0.648   1.612  92.853 -2.0196 -0.2135  0.3994
13897TIP3    H263183   0.760   1.704  92.897 -1.5680  0.8527 -2.7128
13898TIP3   OH263184   0.134   0.545  94.451  0.5491  0.1032  0.1781
13898TIP3    H163185   0.063   0.561  94.514  1.6907  0.5069  1.4132
13898TIP3    H263186   0.096   0.568  94.366 -1.0631 -0.5367  0.6854
13899TIP3   OH263187   2.476   1.652  81.054 -0.7320  0.0672  0.0006
13899TIP3    H163188   2.447   1.595  81.125 -2.3297  0.4047 -0.3387
13899TIP3    H263189   2.567   1.627  81.038 -0.4983 -0.3532  1.8223
13900TIP3   OH263190   1.763   1.658  37.238  0.5248 -0.4421 -0.0914
13900TIP3    H163191   1.738   1.714  37.312  1.6369  1.6122 -1.1782
13900TIP3    H263192   1.687   1.658  37.181 -0.2900 -1.9238  0.9352
13901TIP3   OH263193   1.147   0.997  90.880  0.0450  0.3299  0.3844
13901TIP3    H163194   1.084   0.946  90.931  0.0921  1.2748  1.4056
13901TIP3    H263195   1.222   1.010  90.938  0.7880  0.0516 -0.4906
13902TIP3   OH263196   0.199   2.597  86.433 -0.7074  0.1785 -0.3619
13902TIP3    H163197   0.192   2.690  86.411 -1.2367  0.1300 -0.3913
13902TIP3    H263198   0.269   2.594  86.499  0.5864  0.3776 -1.6487
13903TIP3   OH263199   0.263   0.649   6.723 -0.4803  0.1789  0.0961
13903TIP3    H163200   0.226   0.626   6.637  0.6245 -0.6552 -0.1755
13903TIP3    H263201   0.225   0.584   6.783 -1.0891  0.6332  0.2138
13904TIP3   OH263202   2.005   1.674 108.500  0.6138  0.2338  0.4696
13904TIP3    H163203   2.098   1.694 108.510  0.9140 -1.0034  0.3502
13904TIP3    H263204   1.991   1.596 108.554 -0.7135  1.3008  1.7480
13905TIP3   OH263205   1.003   0.631  27.031 -0.4770  0.3230 -0.0170
13905TIP3    H163206   1.014   0.613  26.938 -0.8041 -2.0791  0.3417
13905TIP3    H263207   0.952   0.557  27.064  1.4855 -0.0526  2.4577
13906TIP3   OH263208   0.546   0.455  52.513 -0.3699 -0.3603 -0.3216
13906TIP3    H163209   0.479   0.506  52.559  0.8029 -0.2561  1.3209
13906TIP3    H263210   0.610   0.520  52.485  0.0490 -0.6821 -0.1176
13907TIP3   OH263211   0.658   0.998  97.622 -0.3892 -0.2002 -0.1189
13907TIP3    H163212   0.581   1.053  97.639  0.0563  0.0502  1.2326
13907TIP3    H263213   0.701   1.040  97.548 -2.1607 -1.0243 -1.7155
13908TIP3   OH263214   1.623   2.665  87.952  0.0742 -0.4873 -0.4679
13908TIP3    H163215   1.538   2.624  87.935 -1.1454  0.8324  1.9974
13908TIP3    H263216   1.617   2.751  87.911  0.7679 -0.8909 -1.4460
13909TIP3   OH263217   1.801   0.764  18.320 -0.1533 -0.4201  0.0024
13909TIP3    H163218   1.831   0.749  18.230 -0.8618  0.2623 -0.3588
13909TIP3    H263219   1.850   0.840  18.350 -1.3646  0.6043 -0.5364
13910TIP3   OH263220   2.582   0.057  32.248 -0.3181  0.1691  0.3525
13910TIP3    H163221   2.675   0.058  32.226 -0.5234  0.7982 -0.5339
13910TIP3    H263222   2.575   0.110  32.327 -0.2753  2.5194 -1.1441
13911TIP3   OH263223   2.454   1.197  92.865 -0.3190 -0.2982  0.2851
13911TIP3    H163224   2.520   1.173  92.930 -0.1849 -0.3881  0.1149
13911TIP3    H263225   2.502   1.199  92.782 -0.0669  1.5397  0.4169
13912TIP3   OH263226   0.803   1.936  19.667  0.2464  0.0812 -0.3198
13912TIP3    H163227   0.864   1.920  19.595 -0.4281 -1.8094 -0.5454
13912TIP3    H263228   0.720   1.955  19.624 -0.2339 -1.3643 -0.1071
13913TIP3   OH263229   1.086   1.295  52.642  0.4448  0.2371 -0.0272
13913TIP3    H163230   1.108   1.360  52.576  0.3192  0.5207  0.2066
13913TIP3    H263231   1.170   1.259  52.671  0.4811 -0.1493 -0.5947
13914TIP3   OH263232   0.714   0.135   6.957  0.4579  0.9211 -0.1683
13914TIP3    H163233   0.793   0.167   6.913 -0.3901  0.7949 -1.8627
13914TIP3    H263234   0.648   0.132   6.888 -1.2076  1.5702  1.3326
13915TIP3   OH263235   1.104   2.308  82.623  0.2619  0.0498  0.6562
13915TIP3    H163236   1.040   2.372  82.652  1.6836  1.4393  0.8618
13915TIP3    H263237   1.129   2.261  82.703 -0.3986 -0.4165  0.5979
13916TIP3   OH263238   0.627   2.593   9.601 -0.2485 -0.3846  0.4453
13916TIP3    H163239   0.722   2.605   9.595 -0.4084  1.2638  0.7101
13916TIP3    H263240   0.595   2.608   9.512 -0.3155 -0.2733  0.4876
13917TIP3   OH263241   0.640   0.690 111.730 -0.3944 -1.2055 -0.4502
13917TIP3    H163242   0.595   0.722 111.808 -1.6680  0.8874 -1.9110
13917TIP3    H263243   0.573   0.642 111.681  0.1935 -1.9071 -0.5839
13918TIP3   OH263244   2.212   0.610  24.071  0.3980  0.0310 -0.0653
13918TIP3    H163245   2.302   0.608  24.103  0.3002  0.7083  0.2655
13918TIP3    H263246   2.182   0.699  24.088 -0.3090 -0.1639 -0.2473
13919TIP3   OH263247   0.527   0.213 105.512  0.7914  0.1392 -0.1694
13919TIP3    H163248   0.568   0.288 105.557  2.3289 -0.8111  0.1073
13919TIP3    H263249   0.514   0.149 105.581 -2.1518  0.7113 -0.0509
13920TIP3   OH263250   2.473   1.322  81.138  0.2609  0.1036 -0.1766
13920TIP3    H163251   2.442   1.339  81.049 -2.2771 -1.9108  0.2029
13920TIP3    H263252   2.558   1.281  81.126  1.8789  3.4917 -1.4084
13921TIP3   OH263253   2.440   0.345  35.205 -0.4506  0.0334  0.3481
13921TIP3    H163254   2.376   0.274  35.193 -0.7334  0.5707 -1.4842
13921TIP3    H263255   2.437   0.362  35.299 -2.3266 -0.5952  0.4595
13922TIP3   OH263256   0.474   0.635 104.942 -0.1913  0.4808  0.0279
13922TIP3    H163257   0.392   0.599 104.907 -0.2910  0.9435 -0.2179
13922TIP3    H263258   0.455   0.651 105.034  0.1275 -0.9131  0.3645
13923TIP3   OH263259   1.250   2.671  47.373  0.4424  0.3205 -0.7184
13923TIP3    H163260   1.305   2.652  47.296  2.2774  0.5518  0.4801
13923TIP3    H263261   1.209   2.588  47.394 -1.4976  0.6110 -2.9426
13924TIP3   OH263262   0.935   1.033  34.260 -0.3396 -0.0977  0.0732
13924TIP3    H163263   0.951   0.953  34.209 -1.1305 -2.6801  3.4607
13924TIP3    H263264   0.840   1.035  34.272 -0.0624 -1.0386  3.2860
13925TIP3   OH263265   0.554   1.305  13.832  0.1167  0.3516  0.0943
13925TIP3    H163266   0.584   1.387  13.870  0.3993 -0.3244  1.4007
13925TIP3    H263267   0.458   1.309  13.837  0.0925  0.9373 -0.6359
13926TIP3   OH263268   2.018   2.110  81.446  0.2887 -0.3517 -0.2770
13926TIP3    H163269   2.031   2.041  81.511 -0.1350  0.7853  1.0684
13926TIP3    H263270   1.932   2.147  81.468  0.9473  1.2619 -0.2940
13927TIP3   OH263271   1.988   1.263  27.097  0.2414  0.7361 -0.1198
13927TIP3    H163272   2.078   1.292  27.079  1.4843 -2.4458  0.1745
13927TIP3    H263273   1.992   1.227  27.185 -1.2508  0.1870 -0.2462
13928TIP3   OH263274   2.346   1.151  84.665 -0.4679  0.1307 -0.2699
13928TIP3    H163275   2.376   1.084  84.726 -1.1883  0.0765  0.0330
13928TIP3    H263276   2.298   1.103  84.598  0.8654  0.1119 -1.2621
13929TIP3   OH263277   0.649   0.768  25.187  0.1514  0.3081 -0.4467
13929TIP3    H163278   0.683   0.850  25.151 -1.5844  0.8210 -1.0434
13929TIP3    H263279   0.717   0.703  25.170  0.2570  0.9706 -2.7902
13930TIP3   OH263280   0.200   1.216  30.740 -0.0210 -0.2765  0.2595
13930TIP3    H163281   0.200   1.136  30.793  0.2766 -0.9593 -0.7339
13930TIP3    H263282   0.266   1.200  30.673 -1.8621 -0.3466 -1.6245
13931TIP3   OH263283   0.902   2.588   9.549  0.4953  0.2554  0.3160
13931TIP3    H163284   0.937   2.618   9.465 -0.7483 -0.3118 -0.4342
13931TIP3    H263285   0.950   2.507   9.567  2.9037  1.8513  1.6876
13932TIP3   OH263286   2.085   1.137  35.330 -0.5962 -0.1908  0.0855
13932TIP3    H163287   2.097   1.211  35.389  0.6858  0.2088 -0.6402
13932TIP3    H263288   2.093   1.060  35.386 -0.3592  0.1986  0.5961
13933TIP3   OH263289   0.131   2.504  33.861 -0.0716 -0.2521  0.1842
13933TIP3    H163290   0.223   2.476  33.862  0.4416  1.2461  2.4105
13933TIP3    H263291   0.098   2.480  33.947 -1.3929  0.4015 -0.1176
13934TIP3   OH263292   1.499   2.182   6.117 -0.0804 -0.5008 -0.1592
13934TIP3    H163293   1.542   2.238   6.052 -0.4185  0.4468  0.4210
13934TIP3    H263294   1.539   2.207   6.200 -2.1119  0.8230  0.4940
13935TIP3   OH263295   1.538   1.509  18.728  0.1800 -0.0617  0.0726
13935TIP3    H163296   1.502   1.594  18.706  1.5426  0.1116 -1.6986
13935TIP3    H263297   1.492   1.448  18.671  1.9390  0.0556 -1.5842
13936TIP3   OH263298   0.477   0.992   8.917  0.1815  0.1222  0.0943
13936TIP3    H163299   0.415   0.984   8.990 -1.4541 -0.5336 -1.2983
13936TIP3    H263300   0.552   0.939   8.942 -0.3722 -0.1269  1.2778
13937TIP3   OH263301   0.187   0.003 108.071  0.9129  0.1416  0.2830
13937TIP3    H163302   0.164  -0.080 108.113  0.6721 -0.2944 -0.6902
13937TIP3    H263303   0.126   0.011 107.998  1.9571  0.4000 -0.5876
13938TIP3   OH263304   0.934   0.231  19.390  0.0870 -0.2396 -0.5343
13938TIP3    H163305   0.887   0.159  19.348 -0.4651  0.5577 -1.3185
13938TIP3    H263306   0.926   0.304  19.328 -1.1409  1.1225  1.1404
13939TIP3   OH263307   0.443   1.193  18.689 -0.3044  0.1809 -0.0488
13939TIP3    H163308   0.516   1.200  18.627 -1.1285 -0.5323 -1.1511
13939TIP3    H263309   0.376   1.145  18.641 -2.0617  2.0316  0.4172
13940TIP3   OH263310   0.884   1.589  78.838 -0.2118  0.0971  0.1135
13940TIP3    H163311   0.957   1.634  78.796 -1.3598  0.2373 -1.8186
13940TIP3    H263312   0.909   1.586  78.931  2.6089 -0.5768 -0.5468
13941TIP3   OH263313   0.201   2.564  98.818  0.6476 -0.0059  0.0348
13941TIP3    H163314   0.269   2.549  98.884  0.3720  0.4614  0.4355
13941TIP3    H263315   0.212   2.656  98.793 -0.2205  0.2508  0.5576
13942TIP3   OH263316   0.576   1.017 111.222 -0.1520  0.0200 -0.0706
13942TIP3    H163317   0.535   1.101 111.241 -0.2870  0.1336 -0.8461
13942TIP3    H263318   0.602   1.022 111.130  0.2351 -0.6244 -0.0014
13943TIP3   OH263319   0.820   0.079  18.211 -0.3475 -0.0710  0.2493
13943TIP3    H163320   0.742   0.119  18.172 -1.3661 -0.4989  1.7502
13943TIP3    H263321   0.876   0.152  18.235 -1.1250  0.3545  0.8125
13944TIP3   OH263322   1.341   2.522  83.527 -1.2526  0.0714 -0.8696
13944TIP3    H163323   1.278   2.449  83.527  0.6274 -1.6522  0.6450
13944TIP3    H263324   1.323   2.568  83.445 -3.8883 -0.8252 -0.9117
13945TIP3   OH263325   0.595   1.485  14.902 -0.2057 -0.0507 -0.0266
13945TIP3    H163326   0.674   1.468  14.954  0.1207  0.8812 -0.2037
13945TIP3    H263327   0.547   1.550  14.953 -0.8176 -0.5471  0.0334
13946TIP3   OH263328   0.177   1.370  98.281  0.5367 -0.3907  0.0930
13946TIP3    H163329   0.197   1.300  98.344  0.5108 -0.1636  0.3527
13946TIP3    H263330   0.082   1.378  98.284  0.3924 -1.3966 -1.0557
13947TIP3   OH263331   1.611   0.512  97.796 -0.1112 -0.1896  0.1990
13947TIP3    H163332   1.579   0.565  97.723 -2.3659  0.5886  1.6452
13947TIP3    H263333   1.673   0.451  97.756 -1.0840  0.3373 -2.3152
13948TIP3   OH263334   0.995   1.098 111.602 -0.4272  0.1514 -0.4574
13948TIP3    H163335   1.016   1.070 111.691  0.4944  0.7862 -0.4647
13948TIP3    H263336   0.905   1.068 111.589  0.0680 -1.6829 -0.0234
13949TIP3   OH263337   0.071   1.073  19.501  0.1873 -0.6503  0.0515
13949TIP3    H163338   0.145   1.093  19.557  0.8240 -0.0201 -0.9671
13949TIP3    H263339   0.062   1.151  19.446  0.3361 -1.6863 -1.5016
13950TIP3   OH263340   0.138   1.286  98.750 -0.5220 -0.0079 -0.2057
13950TIP3    H163341   0.142   1.280  98.654  0.7453 -0.8042 -0.1366
13950TIP3    H263342   0.087   1.209  98.777  0.5456 -0.7310 -0.1819
13951TIP3   OH263343   1.170   0.655  30.231 -0.2717 -0.2414  0.1287
13951TIP3    H163344   1.176   0.748  30.253 -1.9992 -0.2155  0.6351
13951TIP3    H263345   1.207   0.610  30.307  0.6564  0.0103 -0.1554
13952TIP3   OH263346   2.281   2.525   9.562 -0.1741  0.1392  0.0612
13952TIP3    H163347   2.332   2.601   9.589  0.2109 -0.1723  0.2296
13952TIP3    H263348   2.195   2.539   9.600  0.1985 -0.0271  1.0010
13953TIP3   OH263349   2.136   2.383   4.106  0.0415  0.0855 -0.0452
13953TIP3    H163350   2.056   2.341   4.076  0.8451 -0.8931 -0.9014
13953TIP3    H263351   2.174   2.423   4.028 -0.2856  1.7491  0.6043
13954TIP3   OH263352   1.775   1.537  12.189 -0.3035 -0.3083 -0.3769
13954TIP3    H163353   1.761   1.620  12.233 -0.1480 -0.5797  0.1886
13954TIP3    H263354   1.720   1.475  12.236  0.3089 -0.7187 -0.1868
13955TIP3   OH263355   1.022   2.465   7.248 -0.3220 -0.1550  0.5285
13955TIP3    H163356   1.021   2.370   7.237 -0.9263 -0.3643  2.1697
13955TIP3    H263357   0.961   2.497   7.181  1.2850 -0.7128 -1.3197
13956TIP3   OH263358   2.302   1.161   3.682  0.5715  0.0050 -0.2116
13956TIP3    H163359   2.258   1.204   3.755  0.9980  0.1442 -0.0321
13956TIP3    H263360   2.270   1.071   3.684 -2.1222  0.7950 -1.9914
13957TIP3   OH263361   1.663   1.775  75.756  0.7706 -0.7973 -0.7175
13957TIP3    H163362   1.727   1.709  75.782  0.1275 -0.5574  1.7111
13957TIP3    H263363   1.703   1.859  75.780 -0.3318 -0.6357  0.6744
13958TIP3   OH263364   0.064   2.368  41.405 -0.4876  0.4201  0.2659
13958TIP3    H163365   0.125   2.295  41.420  0.9618  1.8772  1.7996
13958TIP3    H263366   0.041   2.398  41.493 -0.0241  2.6104 -0.3123
13959TIP3   OH263367   2.207   2.378  97.336  0.1454  0.1100 -0.1486
13959TIP3    H163368   2.260   2.329  97.398 -0.4533  0.0500  0.3232
13959TIP3    H263369   2.270   2.428  97.284  0.6688 -0.0896  0.2881
13960TIP3   OH263370   2.147   0.787  14.857 -0.2225  0.0952  0.2706
13960TIP3    H163371   2.159   0.728  14.932 -0.5437 -1.0622 -0.5576
13960TIP3    H263372   2.082   0.743  14.802 -0.9206  1.5286 -0.0836
13961TIP3   OH263373   1.507   0.200  16.992  0.4416 -0.4997 -0.4069
13961TIP3    H163374   1.537   0.113  16.966  0.7822 -0.6117  0.3284
13961TIP3    H263375   1.542   0.212  17.081 -3.2109 -1.4354  1.3597
13962TIP3   OH263376   2.508   1.297  19.656  0.3617  0.5148  0.5251
13962TIP3    H163377   2.601   1.277  19.658  0.5831  1.4829  0.3250
13962TIP3    H263378   2.501   1.374  19.599 -0.7399 -0.5141 -0.8412
13963TIP3   OH263379   2.150   0.322   2.632  0.2122  0.0582 -0.1449
13963TIP3    H163380   2.231   0.330   2.581 -0.4765  2.0475 -0.9907
13963TIP3    H263381   2.164   0.378   2.708  0.1770 -0.7607  0.4748
13964TIP3   OH263382   2.267   0.207  58.339 -0.1633 -0.1366  0.7423
13964TIP3    H163383   2.325   0.138  58.307  0.3342  0.1131  1.1037
13964TIP3    H263384   2.180   0.180  58.309  0.2198 -0.1490 -0.4207
13965TIP3   OH263385   0.644   2.032  18.460  0.1381  0.2781  0.0825
13965TIP3    H163386   0.703   1.978  18.513 -0.1817 -0.0418  0.1182
13965TIP3    H263387   0.591   2.080  18.524 -0.2381 -0.0971  0.0586
13966TIP3   OH263388   1.419   1.177  86.224 -0.3813  0.1846 -0.1746
13966TIP3    H163389   1.418   1.222  86.308  0.3483 -0.3866  0.1573
13966TIP3    H263390   1.409   1.246  86.159  1.7758  0.9937  0.2625
13967TIP3   OH263391   2.335   2.223  94.736 -0.5892 -0.1081  0.2633
13967TIP3    H163392   2.292   2.155  94.788 -1.2825 -0.0723 -0.2515
13967TIP3    H263393   2.382   2.175  94.667 -0.6708 -0.0962  0.1964
13968TIP3   OH263394   2.321   0.971  83.000  0.2633 -0.4416 -0.1369
13968TIP3    H163395   2.321   0.993  82.906 -0.8209  0.0634 -0.0376
13968TIP3    H263396   2.321   1.056  83.044  0.5628 -0.6760  0.3228
13969TIP3   OH263397   0.444   0.452  22.825  0.5100  0.6601  0.6948
13969TIP3    H163398   0.538   0.435  22.834  0.1520 -2.1543  0.2639
13969TIP3    H263399   0.430   0.464  22.731  0.1331 -2.1380  0.2888
13970TIP3   OH263400   1.287   0.927  20.740 -0.0277  0.6144  0.5830
13970TIP3    H163401   1.314   0.836  20.749  1.9165  0.9264 -1.2902
13970TIP3    H263402   1.194   0.922  20.716  0.2320 -0.9158 -0.2060
13971TIP3   OH263403   0.763   2.496  25.061 -0.2235  0.2243 -0.0631
13971TIP3    H163404   0.714   2.548  25.124  1.6893  1.4124  0.5467
13971TIP3    H263405   0.796   2.422  25.111 -0.4866  0.0032 -0.2133
13972TIP3   OH263406   1.615   1.003  23.100 -0.5957 -0.2097  0.2986
13972TIP3    H163407   1.543   0.998  23.038 -0.5959 -0.9170  0.3497
13972TIP3    H263408   1.677   1.065  23.061 -0.8466 -0.2389 -0.1467
13973TIP3   OH263409   2.576   1.131  25.677  0.0406 -0.2428  0.7012
13973TIP3    H163410   2.581   1.226  25.666 -0.0064 -0.4076 -1.0993
13973TIP3    H263411   2.602   1.116  25.768 -1.7251  1.6193  1.6035
13974TIP3   OH263412   1.557   1.845  48.792  0.2613  0.5147  0.3119
13974TIP3    H163413   1.473   1.817  48.755  1.6117 -1.6719 -1.3749
13974TIP3    H263414   1.573   1.930  48.751 -0.7748  0.6225  0.0908
13975TIP3   OH263415   2.223   2.351  36.999  0.2623  0.0142 -0.0619
13975TIP3    H163416   2.175   2.367  36.918 -0.4381  0.1919  0.3785
13975TIP3    H263417   2.175   2.281  37.043 -1.6438  2.3997  1.9560
13976TIP3   OH263418   2.442   0.447   6.926  0.1697 -0.0746 -0.2297
13976TIP3    H163419   2.351   0.455   6.900  0.6822  0.9838 -1.8414
13976TIP3    H263420   2.476   0.373   6.875  0.6477  0.6548 -0.9851
13977TIP3   OH263421   2.616   1.863  26.026 -0.1448  0.0100  0.2989
13977TIP3    H163422   2.665   1.945  26.036  0.3197 -0.3682  1.2736
13977TIP3    H263423   2.549   1.867  26.094  0.8547 -1.0807  1.3903
13978TIP3   OH263424   1.265   0.658  35.063 -0.4804  0.1414  0.2255
13978TIP3    H163425   1.294   0.651  34.972 -0.0767  0.6296  0.3139
13978TIP3    H263426   1.328   0.606  35.113 -0.6800 -0.0950  0.2358
13979TIP3   OH263427   2.388   1.582  32.541  0.0512  0.2185  0.0985
13979TIP3    H163428   2.409   1.639  32.467  0.9859 -0.5784 -0.2853
13979TIP3    H263429   2.369   1.641  32.613  1.6211  1.0252 -0.1061
13980TIP3   OH263430   0.639   2.659  88.538 -0.0882 -0.0764  0.0396
13980TIP3    H163431   0.571   2.644  88.603  0.9792 -1.9867  0.8005
13980TIP3    H263432   0.612   2.606  88.463  0.5987 -0.9646  0.4039
13981TIP3   OH263433   2.235   0.290   0.990 -0.1119  0.6621  0.5444
13981TIP3    H163434   2.200   0.202   0.974  0.6287  0.1137  1.8515
13981TIP3    H263435   2.194   0.318   1.071  0.3097  1.1783  0.5816
13982TIP3   OH263436   1.182   2.425  90.141  0.0042 -0.5697  0.1022
13982TIP3    H163437   1.091   2.414  90.113  0.0289 -1.2415  0.2800
13982TIP3    H263438   1.231   2.362  90.089  0.4013 -0.0926 -0.1065
13983TIP3   OH263439   0.927   0.218 110.815  0.2308 -0.1916 -0.4195
13983TIP3    H163440   0.881   0.197 110.734 -0.4176 -0.6268  0.0585
13983TIP3    H263441   0.858   0.219 110.882  0.5257  1.5864 -0.1036
13984TIP3   OH263442   1.853   2.621   0.275  0.4066  0.2376 -0.0934
13984TIP3    H163443   1.786   2.586   0.333  0.4571 -0.4459 -0.4441
13984TIP3    H263444   1.808   2.636   0.192  0.2745  1.4478  0.1785
13985TIP3   OH263445   1.742   2.663   9.277 -0.1529  0.0107 -0.5020
13985TIP3    H163446   1.696   2.609   9.213 -0.0879 -0.0442 -0.5031
13985TIP3    H263447   1.672   2.702   9.330 -0.1992 -0.1709 -0.4243
13986TIP3   OH263448   2.126   0.509  32.413  0.4287 -0.5219  0.3281
13986TIP3    H163449   2.056   0.458  32.373  0.2248 -1.8226  2.2358
13986TIP3    H263450   2.203   0.453  32.406  1.1393  0.5631 -1.0200
13987TIP3   OH263451   1.280   0.414 105.683  0.1036 -0.1308  0.1482
13987TIP3    H163452   1.347   0.380 105.742  0.3826  0.2663  0.0699
13987TIP3    H263453   1.205   0.356 105.695  0.1815 -0.0901  0.8424
13988TIP3   OH263454   1.660   1.601  29.616  0.5351  0.4777  0.3975
13988TIP3    H163455   1.697   1.532  29.561 -1.2916 -0.8298  0.7128
13988TIP3    H263456   1.666   1.680  29.563 -0.7983 -0.6555 -1.5814
13989TIP3   OH263457   1.799   2.405   6.955  0.4580 -0.1797 -0.5059
13989TIP3    H163458   1.784   2.341   7.024 -0.2694 -0.2068 -0.6822
13989TIP3    H263459   1.893   2.425   6.961  0.7701 -1.4844 -0.6438
13990TIP3   OH263460   1.892   1.660  29.769  0.2008  0.2349  0.1729
13990TIP3    H163461   1.973   1.660  29.718  0.0036  0.1438 -0.1441
13990TIP3    H263462   1.831   1.608  29.716  0.7493 -2.1446  1.7105
13991TIP3   OH263463   2.581   0.262  14.412 -0.2163 -0.7601 -0.1164
13991TIP3    H163464   2.559   0.346  14.371 -1.5005 -0.0195  1.9406
13991TIP3    H263465   2.518   0.200  14.375  0.1580 -0.6506 -0.9709
13992TIP3   OH263466   0.417   0.639  19.979 -0.0221  0.4173 -0.3375
13992TIP3    H163467   0.433   0.546  19.963 -0.2712  0.2496  0.3523
13992TIP3    H263468   0.452   0.683  19.902  0.0822 -0.2499 -0.6789
13993TIP3   OH263469   2.146   1.470  32.564 -0.0104  0.1731  0.2694
13993TIP3    H163470   2.098   1.548  32.591 -0.1707 -0.2596  1.2778
13993TIP3    H263471   2.235   1.501  32.548 -0.4096  0.8225 -0.7846
13994TIP3   OH263472   0.540   0.413 107.566  0.2724 -0.0254  0.2226
13994TIP3    H163473   0.456   0.397 107.610 -0.1541  0.6027 -0.3499
13994TIP3    H263474   0.528   0.377 107.478  0.4539  0.4523  0.0031
13995TIP3   OH263475   0.201   0.040  18.376 -0.3190  0.2590  0.1444
13995TIP3    H163476   0.135   0.040  18.307  0.5007 -0.2169 -0.6642
13995TIP3    H263477   0.281   0.009  18.333  0.0955 -0.5204  1.4123
13996TIP3   OH263478   2.542   2.026   9.452 -0.0216 -0.1097  0.0197
13996TIP3    H163479   2.635   2.047   9.441 -0.2112  0.3688 -0.8182
13996TIP3    H263480   2.504   2.039   9.365 -0.8895 -0.2276  0.3643
13997TIP3   OH263481   0.337   2.571  20.759 -0.6620  0.0712  0.1284
13997TIP3    H163482   0.321   2.524  20.841  1.9992 -0.1330  0.6036
13997TIP3    H263483   0.339   2.663  20.785 -1.3575  0.1269 -0.0007
13998TIP3   OH263484   0.173   1.853  11.925 -0.0788 -0.0094 -0.4544
13998TIP3    H163485   0.115   1.779  11.906  0.9399 -0.7608 -0.7848
13998TIP3    H263486   0.245   1.814  11.975  0.4051  0.7842 -0.5189
13999TIP3   OH263487   1.321   2.479   0.603 -0.2317  0.2131  0.1163
13999TIP3    H163488   1.352   2.393   0.574 -0.8609  0.4597 -1.3864
13999TIP3    H263489   1.300   2.466   0.695 -0.5829 -1.3476 -0.1379
14000TIP3   OH263490   0.378   1.226  35.132 -0.7134  0.3646 -0.3316
14000TIP3    H163491   0.286   1.252  35.140 -1.3309 -1.3731 -1.2326
14000TIP3    H263492   0.390   1.210  35.038  0.3675  0.1018 -0.1552
14001TIP3   OH263493   1.465   0.465  96.135 -0.1862 -0.1304 -0.2486
14001TIP3    H163494   1.378   0.448  96.100 -0.6527  1.2230  0.1858
14001TIP3    H263495   1.453   0.470  96.230  0.6469 -1.4171 -0.0550
14002TIP3   OH263496   0.903   0.384 111.294 -0.1377  0.2205  0.2647
14002TIP3    H163497   0.969   0.315 111.296 -0.3177 -0.1099 -2.1399
14002TIP3    H263498   0.827   0.344 111.252 -0.1771  1.8723 -1.4124
14003TIP3   OH263499   2.041   1.509 102.979  0.2008 -0.6147  0.7205
14003TIP3    H163500   1.951   1.525 102.953  1.1186  0.3585 -2.2935
14003TIP3    H263501   2.050   1.554 103.063 -2.4240 -2.0058  1.8525
14004TIP3   OH263502   0.521   2.532  93.886  0.3677 -0.3946 -0.2683
14004TIP3    H163503   0.512   2.465  93.953 -0.5218 -0.3735 -0.3493
14004TIP3    H263504   0.525   2.615  93.934 -0.4009 -0.3691 -0.2305
14005TIP3   OH263505   1.288   2.042  78.017 -0.2141  0.2782 -0.0957
14005TIP3    H163506   1.237   1.962  78.017 -2.4033  1.5919  1.0654
14005TIP3    H263507   1.344   2.036  78.094 -0.9155  0.1667  0.4117
14006TIP3   OH263508   1.125   1.503  32.925  0.1128  0.3102  0.5328
14006TIP3    H163509   1.095   1.441  32.860 -0.0068  0.6469  0.2624
14006TIP3    H263510   1.183   1.453  32.982 -0.4682 -0.1985  0.6854
14007TIP3   OH263511   1.903   2.667  41.272 -0.0040 -0.1555  0.3348
14007TIP3    H163512   1.845   2.709  41.210 -0.7028 -0.8849  0.4847
14007TIP3    H263513   1.845   2.619  41.331  0.7123 -0.4175  0.8449
14008TIP3   OH263514   0.213   0.952 108.493  0.1711 -0.4771 -0.1405
14008TIP3    H163515   0.139   1.013 108.495 -0.1060 -0.8009 -0.4005
14008TIP3    H263516   0.182   0.878 108.441  0.7409 -0.5418 -0.3968
14009TIP3   OH263517   1.532   0.470  94.525  0.8601 -0.0513  0.0866
14009TIP3    H163518   1.460   0.445  94.467 -0.2111 -1.6825  1.9763
14009TIP3    H263519   1.611   0.443  94.479  0.0913 -0.7097 -0.8917
14010TIP3   OH263520   2.582   0.956  92.096 -0.1463  0.4590 -0.2238
14010TIP3    H163521   2.633   0.950  92.015  0.8569 -2.2470  0.5122
14010TIP3    H263522   2.538   0.871  92.103 -0.2938  0.6702  2.0198
14011TIP3   OH263523   0.902   2.213 106.309 -0.0073 -0.5680 -0.0679
14011TIP3    H163524   0.922   2.121 106.289  1.7248  0.1232 -1.9024
14011TIP3    H263525   0.933   2.261 106.232  0.3333  1.6888  1.3871
14012TIP3   OH263526   1.555   0.418  32.523 -0.1817 -0.2779  0.0349
14012TIP3    H163527   1.534   0.502  32.562  2.9210  1.1766 -1.1305
14012TIP3    H263528   1.642   0.396  32.557  0.6827 -1.1298 -2.4993
14013TIP3   OH263529   0.013   1.880  37.504 -0.0890 -0.1248  0.4916
14013TIP3    H163530  -0.052   1.875  37.434  0.0400 -0.9527  0.4117
14013TIP3    H263531   0.021   1.789  37.535  0.8087  0.0153  0.6919
14014TIP3   OH263532   0.084   2.260  67.048  0.1768  0.8262 -0.1456
14014TIP3    H163533   0.104   2.347  67.012  0.4678  0.2023 -1.5643
14014TIP3    H263534   0.063   2.277  67.139  0.4400  2.3693 -0.3308
14015TIP3   OH263535   0.803   0.969  13.757  0.4816  0.1449  0.1986
14015TIP3    H163536   0.873   0.931  13.811  0.1515 -0.2679  0.3431
14015TIP3    H263537   0.823   0.939  13.668  1.4960  1.5106 -0.0618
14016TIP3   OH263538   0.475   0.195  29.765 -0.0879 -0.0461 -0.0845
14016TIP3    H163539   0.442   0.129  29.825  0.1443 -1.2736 -1.2727
14016TIP3    H263540   0.437   0.173  29.681  2.1770 -0.3855 -1.1124
14017TIP3   OH263541   1.087   0.792   9.405  0.5602 -0.4286 -0.2429
14017TIP3    H163542   1.008   0.742   9.421 -1.1477  0.8154 -3.7170
14017TIP3    H263543   1.150   0.727   9.371  0.4548 -1.1232  0.8442
14018TIP3   OH263544   0.659   0.779  95.474 -0.5002 -0.5893  0.6377
14018TIP3    H163545   0.719   0.710  95.447 -0.7176 -0.4541 -0.2105
14018TIP3    H263546   0.592   0.781  95.406 -1.2191 -0.4206  1.3305
14019TIP3   OH263547   1.100   2.548   5.472  0.1564 -0.6730 -0.2229
14019TIP3    H163548   1.182   2.551   5.522 -0.5582 -1.0165  1.0358
14019TIP3    H263549   1.035   2.587   5.531 -0.1890  1.8078 -2.0913
14020TIP3   OH263550   2.006   1.681  77.089  0.7518 -0.4455 -0.4894
14020TIP3    H163551   1.911   1.694  77.088  0.6928 -0.8598 -0.7864
14020TIP3    H263552   2.024   1.636  77.006  1.3202  0.3993 -0.8371
14021TIP3   OH263553   2.363   2.184  16.926 -0.2241  0.4304  0.1205
14021TIP3    H163554   2.455   2.176  16.900  0.0046 -0.2507  1.0477
14021TIP3    H263555   2.338   2.094  16.951 -1.0360  0.6719  0.1897
14022TIP3   OH263556   2.176   1.501  28.538  0.3702  0.3230 -0.0948
14022TIP3    H163557   2.252   1.500  28.480  0.3641 -0.0750 -0.1011
14022TIP3    H263558   2.166   1.592  28.564  1.1688  0.2964  0.3325
14023TIP3   OH263559   0.843   2.472  17.292  0.1597 -0.6061  0.9607
14023TIP3    H163560   0.885   2.496  17.210  0.1358 -1.3404  0.7344
14023TIP3    H263561   0.750   2.487  17.277  0.3345  1.3949  1.5877
14024TIP3   OH263562   2.390   1.078  17.048 -0.3799 -0.1704  0.1117
14024TIP3    H163563   2.320   1.048  16.989 -1.1233  0.2131  0.7770
14024TIP3    H263564   2.370   1.036  17.131  0.8036 -0.8997  0.0378
14025TIP3   OH263565   1.340   1.172  96.536 -0.3122 -0.5152  0.0958
14025TIP3    H163566   1.391   1.096  96.564 -1.0458 -0.8218  0.6461
14025TIP3    H263567   1.307   1.149  96.449 -0.3199 -0.7247  0.1557
14026TIP3   OH263568   1.450   0.061  16.665 -0.4545 -0.2775  0.2817
14026TIP3    H163569   1.444  -0.028  16.700  0.0767 -0.5444 -0.2834
14026TIP3    H263570   1.544   0.081  16.666 -0.4356 -0.2373 -0.8321
14027TIP3   OH263571   0.799   0.832  94.738  0.1299 -0.2585 -0.7222
14027TIP3    H163572   0.812   0.868  94.651 -0.7339 -0.3473 -0.9037
14027TIP3    H263573   0.754   0.749  94.723 -0.3234 -0.1180 -0.1805
14028TIP3   OH263574   2.106   0.865  96.466 -0.2084  0.0971 -0.3652
14028TIP3    H163575   2.083   0.837  96.378  0.4816 -0.1978 -0.4600
14028TIP3    H263576   2.192   0.907  96.456 -0.5880  0.9912  0.0048
14029TIP3   OH263577   0.035   1.280  28.587  0.2058 -0.0476  0.3736
14029TIP3    H163578  -0.006   1.330  28.657  0.5703 -2.0397  2.1419
14029TIP3    H263579   0.128   1.304  28.592 -0.1232  1.7604 -1.2314
14030TIP3   OH263580   0.587   0.723  18.560 -0.3645 -0.0389  0.5627
14030TIP3    H163581   0.503   0.718  18.515  0.0326  3.6168 -0.9031
14030TIP3    H263582   0.651   0.698  18.494 -0.0980  0.1512  0.7491
14031TIP3   OH263583   0.447   1.937  12.382 -0.1510  0.5231 -0.0896
14031TIP3    H163584   0.513   1.877  12.346  0.8378  0.7924  1.1835
14031TIP3    H263585   0.466   1.939  12.476  0.0077  2.9886 -0.1155
14032TIP3   OH263586   1.208   1.176  26.981  0.2680  0.0243  0.3756
14032TIP3    H163587   1.130   1.232  26.988  0.0380 -0.3292  0.7184
14032TIP3    H263588   1.281   1.235  26.997  0.0981  0.4341 -0.3127
14033TIP3   OH263589   0.370   1.877  94.066 -0.5234  0.2871  0.0635
14033TIP3    H163590   0.351   1.968  94.089 -0.2893  0.3203  0.1277
14033TIP3    H263591   0.445   1.882  94.008 -1.3818  0.2310 -1.0811
14034TIP3   OH263592   2.224   0.553  90.003 -0.1035 -0.0613  0.0137
14034TIP3    H163593   2.221   0.643  90.034  1.1161  0.2254 -0.6357
14034TIP3    H263594   2.152   0.548  89.940 -0.0309  0.5397 -0.1296
14035TIP3   OH263595   1.164   1.800  30.051 -0.5996 -0.1330 -0.0233
14035TIP3    H163596   1.197   1.831  29.967  1.3172 -0.7931  0.4492
14035TIP3    H263597   1.086   1.748  30.028 -0.3388  0.0282 -1.3491
14036TIP3   OH263598   1.581   0.117  32.617 -0.2793  0.2570 -0.4262
14036TIP3    H163599   1.567   0.122  32.522 -0.0869  2.0415 -0.4045
14036TIP3    H263600   1.521   0.183  32.653 -0.8938 -0.9091  0.7718
14037TIP3   OH263601   0.908   1.362  20.109  0.1684  0.1456 -0.5895
14037TIP3    H163602   0.894   1.310  20.029 -0.0109  1.0988 -1.1930
14037TIP3    H263603   0.849   1.322  20.173  0.8355 -1.0799 -0.7134
14038TIP3   OH263604   2.273   0.298  79.264  0.1960  0.0875 -0.2514
14038TIP3    H163605   2.307   0.226  79.210  0.4299 -1.0537  1.3279
14038TIP3    H263606   2.201   0.334  79.213  1.3048  0.0047 -1.9482
14039TIP3   OH263607   0.828   1.646  26.225  0.2524 -0.1488 -0.2008
14039TIP3    H163608   0.827   1.550  26.227 -1.4515 -0.2279 -1.8317
14039TIP3    H263609   0.921   1.669  26.222  0.6946 -1.7255  0.3078
14040TIP3   OH263610   0.016   0.435  79.263  0.7297  0.1940 -0.0993
14040TIP3    H163611  -0.037   0.515  79.263  0.4604  0.0538 -1.7922
14040TIP3    H263612   0.055   0.433  79.176 -0.1995 -2.0943 -0.5268
14041TIP3   OH263613   0.931   1.704  92.489 -0.1128  0.1765 -0.1788
14041TIP3    H163614   0.843   1.671  92.470  0.3966 -0.3510 -1.7533
14041TIP3    H263615   0.981   1.686  92.410  1.4321  0.4554  0.6968
14042TIP3   OH263616   1.121   2.578  10.845 -0.4013  0.2270  0.2955
14042TIP3    H163617   1.101   2.612  10.757  0.1401 -0.5586 -0.1445
14042TIP3    H263618   1.056   2.619  10.902 -1.2928  0.1021 -0.6052
14043TIP3   OH263619   1.400   0.390  26.208  0.1657 -0.5560  0.3846
14043TIP3    H163620   1.397   0.417  26.116  1.1818 -0.5796  0.3333
14043TIP3    H263621   1.480   0.429  26.241  1.2525 -2.7825  0.5505
14044TIP3   OH263622   1.581   1.715  13.073 -0.0772 -0.5829 -0.4806
14044TIP3    H163623   1.489   1.723  13.099  0.2751  0.5997  0.4952
14044TIP3    H263624   1.591   1.777  13.001  0.8056  2.3817  1.9651
14045TIP3   OH263625   0.706   1.339  34.843  0.3175 -0.1722  0.7112
14045TIP3    H163626   0.696   1.434  34.845  1.7532  0.0179  0.0604
14045TIP3    H263627   0.705   1.313  34.935 -3.1631  0.0527  0.8513
14046TIP3   OH263628   2.471   0.527   6.444  0.1282 -0.1551 -0.1490
14046TIP3    H163629   2.558   0.505   6.409  0.6308  3.0494 -1.2798
14046TIP3    H263630   2.414   0.529   6.367 -0.3723  0.1901  0.2238
14047TIP3   OH263631   2.299   1.837  80.916  0.0971 -0.1685 -0.0873
14047TIP3    H163632   2.212   1.845  80.955 -0.1168  0.3041 -0.6500
14047TIP3    H263633   2.341   1.767  80.967 -0.2047  0.3576  0.9243
14048TIP3   OH263634   0.447   0.729  89.092 -0.1110  0.7229  0.0634
14048TIP3    H163635   0.368   0.732  89.145 -0.3455  0.3072 -0.2481
14048TIP3    H263636   0.434   0.798  89.026 -0.1674  0.7226  0.0771
14049TIP3   OH263637   2.598   0.502   8.004  0.5675  0.0610  0.1931
14049TIP3    H163638   2.681   0.462   7.977  0.7502  1.2458 -1.1060
14049TIP3    H263639   2.536   0.429   8.009  1.5622 -0.7660  0.7209
14050TIP3   OH263640   2.201   1.847  77.754  0.2021  0.0649 -0.3648
14050TIP3    H163641   2.232   1.780  77.693 -1.3758 -0.5949 -0.4956
14050TIP3    H263642   2.108   1.827  77.766 -0.1251  1.7821  0.2004
14051TIP3   OH263643   2.212   0.219 110.190 -0.0697 -0.3299 -0.0413
14051TIP3    H163644   2.207   0.292 110.251  2.4225  0.9732 -1.2110
14051TIP3    H263645   2.161   0.247 110.114  0.3615 -0.0672 -0.2338
14052TIP3   OH263646   0.589   2.047  25.191  0.4338  0.3929  0.0460
14052TIP3    H163647   0.662   2.047  25.130  0.1922  1.3672 -0.2656
14052TIP3    H263648   0.613   2.112  25.257  0.1820  0.1777  0.3517
14053TIP3   OH263649   0.526   0.932   1.554 -0.1516  0.0831  0.0439
14053TIP3    H163650   0.622   0.934   1.559 -0.0432 -1.0097 -1.1386
14053TIP3    H263651   0.497   0.964   1.640  1.2570  0.5820  0.3651
14054TIP3   OH263652   2.566   0.001  41.431  0.3126  0.5074 -0.0943
14054TIP3    H163653   2.556   0.062  41.504  0.2841 -0.3979  0.6779
14054TIP3    H263654   2.645  -0.048  41.451  0.6654  0.6933 -1.0117
14055TIP3   OH263655   1.856   2.242 104.071  0.4265 -0.4786  0.2184
14055TIP3    H163656   1.802   2.188 104.014 -0.0363 -0.9367  1.0663
14055TIP3    H263657   1.927   2.273 104.015  0.0170 -0.9581 -0.5795
14056TIP3   OH263658   1.721   0.985  25.698 -0.1235 -0.4262  0.4269
14056TIP3    H163659   1.629   0.990  25.724  0.4611  1.3425  2.4616
14056TIP3    H263660   1.742   1.073  25.666  0.7355 -0.9622 -0.5398
14057TIP3   OH263661   0.022   0.382  95.306  0.0217 -0.3327  0.2882
14057TIP3    H163662   0.015   0.292  95.273  2.5416 -0.2718 -0.6019
14057TIP3    H263663   0.046   0.434  95.229  3.8522  0.1885  1.6461
14058TIP3   OH263664   1.365   2.228   6.720 -0.4438 -0.2266  0.4117
14058TIP3    H163665   1.303   2.225   6.793 -0.1146 -0.2692  0.6958
14058TIP3    H263666   1.450   2.245   6.762 -0.3090  0.1268  0.0030
14059TIP3   OH263667   0.482   1.620  86.631 -0.1080  0.4547 -0.0572
14059TIP3    H163668   0.444   1.602  86.716 -0.5540 -1.9080 -0.6794
14059TIP3    H263669   0.425   1.686  86.591  0.4359  2.0205  1.6258
14060TIP3   OH263670   0.923   1.464   6.541  0.3923 -0.6315 -0.0420
14060TIP3    H163671   0.896   1.397   6.478  1.2652 -0.6243 -0.4346
14060TIP3    H263672   1.018   1.468   6.532  0.2715  1.5732 -0.9671
14061TIP3   OH263673   2.226   1.591  29.965  0.0940 -0.7688 -0.3224
14061TIP3    H163674   2.236   1.581  29.871 -0.0547  0.1289 -0.4385
14061TIP3    H263675   2.136   1.564  29.983 -0.8403  1.7012 -0.8609
14062TIP3   OH263676   2.339   2.109  23.097  0.0850 -0.0221  0.1183
14062TIP3    H163677   2.354   2.191  23.050  0.5137  0.1835  0.6070
14062TIP3    H263678   2.393   2.044  23.051  0.8288  0.2652  0.5651
14063TIP3   OH263679   1.845   1.754  20.404  0.3039 -0.7777 -0.1462
14063TIP3    H163680   1.854   1.850  20.409 -0.4564 -0.6587 -0.8392
14063TIP3    H263681   1.861   1.724  20.494 -0.6099  0.1154  0.3371
14064TIP3   OH263682   0.870   0.017  77.119 -0.3494  0.0305 -0.2504
14064TIP3    H163683   0.908  -0.048  77.061  1.0801  0.6414 -0.0423
14064TIP3    H263684   0.908  -0.002  77.205 -1.6928 -0.2620  0.3017
14065TIP3   OH263685   1.309   0.000  91.330 -0.2940 -0.3325 -0.0192
14065TIP3    H163686   1.290   0.073  91.389 -0.5911 -0.6775  0.3142
14065TIP3    H263687   1.344  -0.069  91.387 -1.2258 -0.9172 -0.1384
14066TIP3   OH263688   1.670   2.368 108.678 -0.1930  0.5369 -0.3749
14066TIP3    H163689   1.605   2.311 108.719 -0.2756 -0.3788 -1.6893
14066TIP3    H263690   1.708   2.418 108.750 -1.4557  0.1775  0.5786
14067TIP3   OH263691   1.644   2.420   7.658 -0.3153  0.1844 -0.0761
14067TIP3    H163692   1.596   2.494   7.621  0.4589  0.3056 -0.8766
14067TIP3    H263693   1.688   2.455   7.735 -0.7270  0.3157  0.1000
14068TIP3   OH263694   1.298   1.271 106.251 -0.7111 -0.1086 -0.6356
14068TIP3    H163695   1.367   1.253 106.187 -0.0062  0.6595 -0.1085
14068TIP3    H263696   1.339   1.258 106.336 -0.4748  2.6669 -0.2291
14069TIP3   OH263697   1.886   0.001   1.756 -0.2361  0.2343  0.0155
14069TIP3    H163698   1.861  -0.091   1.745  0.9783 -0.1420  0.1750
14069TIP3    H263699   1.845   0.047   1.683 -2.8473  0.0064  1.2367
14070TIP3   OH263700   0.358   0.192  18.015  0.3643  0.2094  0.0723
14070TIP3    H163701   0.365   0.137  17.937 -0.6121  2.6815 -1.9053
14070TIP3    H263702   0.445   0.230  18.026  0.4981 -0.1265  0.1633
14071TIP3   OH263703   2.012   1.409  83.844  0.2226  0.5863  0.2234
14071TIP3    H163704   2.002   1.314  83.829  0.5689  0.5890 -0.0329
14071TIP3    H263705   1.979   1.449  83.763 -0.6978  0.7185  0.6425
14072TIP3   OH263706   0.151   2.013 108.189 -0.6640  0.1689 -0.4508
14072TIP3    H163707   0.167   1.993 108.282  0.5328  0.3909 -0.5918
14072TIP3    H263708   0.218   2.078 108.167 -0.6067 -0.2734 -1.6126
14073TIP3   OH263709   1.995   0.514  16.965 -0.0275 -0.2101  0.0110
14073TIP3    H163710   2.066   0.545  16.908 -0.6904 -1.9241 -1.8886
14073TIP3    H263711   1.920   0.568  16.941 -0.3934 -1.1502 -1.0661
14074TIP3   OH263712   1.715   2.260  35.988 -0.1060 -0.0671 -0.4772
14074TIP3    H163713   1.715   2.202  36.064  1.1042 -0.4116 -0.7215
14074TIP3    H263714   1.752   2.342  36.020  2.2107 -0.8029 -1.0737
14075TIP3   OH263715   0.002   1.928 104.558  0.2199  0.1349  0.0339
14075TIP3    H163716   0.084   1.941 104.606  0.2675 -0.7870  0.2262
14075TIP3    H263717  -0.031   1.844 104.590 -0.5447  0.2609 -0.4074
14076TIP3   OH263718   0.036   0.744  90.207 -0.1180 -0.1197  0.3757
14076TIP3    H163719  -0.058   0.766  90.202  0.4680  3.3887  1.5082
14076TIP3    H263720   0.047   0.707  90.295 -0.4436 -0.5591  0.2337
14077TIP3   OH263721   1.491   0.457  89.890  0.0761 -0.1250  0.1228
14077TIP3    H163722   1.545   0.392  89.844 -0.4136  0.3433 -1.1781
14077TIP3    H263723   1.495   0.535  89.834 -1.6886  0.0087  0.1146
14078TIP3   OH263724   2.531   1.924  24.167  0.2491 -0.6985  0.1317
14078TIP3    H163725   2.493   1.947  24.082 -0.4807 -0.5824  0.4893
14078TIP3    H263726   2.464   1.948  24.231  0.9002 -0.5331  0.7651
14079TIP3   OH263727   0.676   1.058 109.771 -0.0513 -0.4864  0.2746
14079TIP3    H163728   0.713   1.002 109.702 -0.1259 -0.5677  0.2965
14079TIP3    H263729   0.752   1.101 109.809 -0.1302  0.6833 -0.8301
14080TIP3   OH263730   1.590   1.577   0.553 -0.1440  0.2286 -0.8851
14080TIP3    H163731   1.667   1.624   0.584 -0.5522 -0.2977  1.0695
14080TIP3    H263732   1.553   1.633   0.486  2.3666  0.1202 -2.5188
14081TIP3   OH263733   1.426   0.505  19.072  0.0482 -0.6825  0.2568
14081TIP3    H163734   1.404   0.447  19.145 -1.5564 -2.0803 -1.2603
14081TIP3    H263735   1.522   0.511  19.075  0.0565 -1.1930  2.0985
14082TIP3   OH263736   0.700   2.326 110.208 -0.0896 -0.1012 -0.5934
14082TIP3    H163737   0.704   2.290 110.297 -1.4497 -0.9333 -0.8348
14082TIP3    H263738   0.775   2.386 110.203  0.6390 -0.8369  0.7520
14083TIP3   OH263739   0.824   2.329  76.377 -0.4818  0.0682  0.4957
14083TIP3    H163740   0.911   2.289  76.387  0.3475  2.0113  1.4463
14083TIP3    H263741   0.766   2.273  76.429  0.4558 -0.4888  0.9656
14084TIP3   OH263742   0.282   2.537  88.484 -0.0506  0.5379 -0.0576
14084TIP3    H163743   0.306   2.603  88.419 -0.6468  0.5778 -0.2386
14084TIP3    H263744   0.257   2.461  88.432  0.5878  0.1762  0.1529
14085TIP3   OH263745   0.750   2.380  79.946 -0.2543  0.9388 -0.0824
14085TIP3    H163746   0.727   2.445  80.013 -2.1549 -1.8710  2.2783
14085TIP3    H263747   0.673   2.377  79.889  1.1515  2.9454 -2.2239
14086TIP3   OH263748   2.610   0.150  91.693  0.1650 -0.0999 -0.5648
14086TIP3    H163749   2.660   0.122  91.616  0.6122 -0.9930  0.0319
14086TIP3    H263750   2.667   0.128  91.768 -1.0793 -1.0996  0.1252
14087TIP3   OH263751   0.396   0.231  87.927 -0.3926 -0.3585 -0.0916
14087TIP3    H163752   0.320   0.267  87.973 -0.0869  0.2319 -0.0359
14087TIP3    H263753   0.401   0.280  87.846  1.1198  1.0750  0.7967
14088TIP3   OH263754   0.154   1.412 106.460  0.5323  0.3604 -0.5578
14088TIP3    H163755   0.186   1.335 106.508 -1.6591  0.2948  0.9583
14088TIP3    H263756   0.086   1.449 106.517 -0.0074  2.1379 -2.2544
14089TIP3   OH263757   0.850   0.512  67.785 -0.1009 -0.5050 -0.0541
14089TIP3    H163758   0.881   0.593  67.743  1.0435 -0.5296  0.6792
14089TIP3    H263759   0.757   0.509  67.765  0.0829  0.3362 -1.1768
14090TIP3   OH263760   0.305   0.322  17.622 -0.2085  0.0867  0.0045
14090TIP3    H163761   0.219   0.326  17.662 -1.2576 -0.8788 -1.9756
14090TIP3    H263762   0.288   0.298  17.531  2.0927  0.9225 -0.7293
14091TIP3   OH263763   1.764   2.009   6.197  0.1203 -0.5888  0.6603
14091TIP3    H163764   1.789   2.034   6.286  0.8699 -0.8899  0.5389
14091TIP3    H263765   1.692   2.068   6.175  0.9095  0.5092  0.9173
14092TIP3   OH263766   2.159   2.301  77.299  0.1373  0.2413 -0.0429
14092TIP3    H163767   2.210   2.363  77.247  1.4445 -0.6444  0.1345
14092TIP3    H263768   2.089   2.273  77.241  2.1574 -1.5245 -1.8001
14093TIP3   OH263769   1.314   2.442  12.735  0.0124  0.0051 -0.4237
14093TIP3    H163770   1.239   2.461  12.792  0.0094 -0.4168 -0.2799
14093TIP3    H263771   1.385   2.495  12.772 -0.4495  1.1578 -1.1473
14094TIP3   OH263772   0.846   1.723   0.567 -0.0968  0.2011 -0.1786
14094TIP3    H163773   0.843   1.768   0.651 -0.7247  0.2146 -0.2057
14094TIP3    H263774   0.913   1.770   0.517 -1.1167  1.4649 -0.4105
14095TIP3   OH263775   2.302   2.380   6.726 -0.1624  0.4235 -0.1952
14095TIP3    H163776   2.314   2.341   6.813 -0.6212  0.0787 -0.2813
14095TIP3    H263777   2.387   2.416   6.704  0.4309 -1.0132 -0.3464
14096TIP3   OH263778   1.704   1.999  31.800 -0.3557  0.0004  0.2183
14096TIP3    H163779   1.761   2.000  31.723 -0.9989  0.3383 -0.2531
14096TIP3    H263780   1.683   2.091  31.816  0.3494  0.0046  1.2384
14097TIP3   OH263781   0.049   2.257 102.001  0.6232  0.2703  0.9749
14097TIP3    H163782  -0.005   2.196 102.052 -1.7702  0.8435 -0.7103
14097TIP3    H263783   0.042   2.225 101.911 -0.4126  2.7521  0.0924
14098TIP3   OH263784   2.145   2.498  20.412  0.4838  0.5883 -0.1279
14098TIP3    H163785   2.120   2.534  20.326  1.9218  1.0031 -0.4046
14098TIP3    H263786   2.133   2.571  20.473 -0.4385  0.3248  0.0129
14099TIP3   OH263787   0.603   0.194  95.386  0.1596 -0.6244  0.2855
14099TIP3    H163788   0.556   0.133  95.329 -0.3803  0.2034 -0.1813
14099TIP3    H263789   0.536   0.227  95.446  0.2689  0.0882  0.0245
14100TIP3   OH263790   1.082   1.481 108.877  0.1987  0.3557  0.6793
14100TIP3    H163791   1.135   1.404 108.862  0.3564  0.7416 -0.9357
14100TIP3    H263792   1.101   1.539 108.803 -3.5557 -0.1186 -0.9210
14101TIP3   OH263793   0.532   1.619  79.862  0.4120 -0.1222 -0.1584
14101TIP3    H163794   0.533   1.637  79.956  2.9464  0.0430 -0.1510
14101TIP3    H263795   0.613   1.658  79.829 -1.1573  1.2294 -2.7416
14102TIP3   OH263796   0.953   1.751  36.348  0.3245 -0.0610  0.4815
14102TIP3    H163797   1.035   1.748  36.398 -0.3543  1.7302  1.8087
14102TIP3    H263798   0.936   1.659  36.326  2.1490 -0.5866  1.0623
14103TIP3   OH263799   0.767   0.157  34.468 -0.5034 -0.8869 -1.0525
14103TIP3    H163800   0.710   0.234  34.463  0.3775 -0.2697 -2.1220
14103TIP3    H263801   0.847   0.184  34.423  0.9704 -1.4445  1.0748
14104TIP3   OH263802   1.876   0.402  87.910  0.2726 -0.4456  0.1112
14104TIP3    H163803   1.844   0.348  87.982  1.4031 -0.0005  0.9817
14104TIP3    H263804   1.839   0.488  87.926  0.2558 -0.4266 -0.0312
14105TIP3   OH263805   1.231   0.774   3.253  0.0640  0.7046 -0.3415
14105TIP3    H163806   1.250   0.833   3.326 -0.0098  0.4449 -0.1106
14105TIP3    H263807   1.311   0.722   3.243 -0.0226  0.5558 -0.2683
14106TIP3   OH263808   0.116   1.940 109.630 -0.1339  0.0253  0.5174
14106TIP3    H163809   0.199   1.965 109.589 -0.3287  0.9203  0.6457
14106TIP3    H263810   0.126   1.966 109.721 -0.7302  0.5967  0.4302
14107TIP3   OH263811   0.332   2.352  26.340 -0.0371 -0.2812 -0.1467
14107TIP3    H163812   0.390   2.381  26.411 -0.1192 -0.6183  0.0576
14107TIP3    H263813   0.349   2.415  26.269 -0.0189  0.1068  0.1964
14108TIP3   OH263814   2.498   1.900  24.648 -0.8713  0.3650  0.3323
14108TIP3    H163815   2.552   1.932  24.577  0.4328 -0.5999  0.8390
14108TIP3    H263816   2.439   1.972  24.669  1.9636  2.5593  1.5083
14109TIP3   OH263817   1.672   1.625  85.506 -0.0675 -0.5177  0.4610
14109TIP3    H163818   1.578   1.630  85.520 -0.0724  0.6712  0.1046
14109TIP3    H263819   1.684   1.652  85.414  0.7104  0.5835  0.8678
14110TIP3   OH263820   1.047   0.171  78.969 -0.2423  0.2608  0.1139
14110TIP3    H163821   1.044   0.119  79.049  1.4766 -0.5250 -0.2724
14110TIP3    H263822   1.024   0.260  78.997 -1.4078 -0.3333  1.1308
14111TIP3   OH263823   2.515   2.294  82.664 -0.3672  0.0637  0.5090
14111TIP3    H163824   2.515   2.206  82.625  0.4507  0.4491 -0.4084
14111TIP3    H263825   2.514   2.354  82.589 -0.9169  0.8433  1.1215
14112TIP3   OH263826   2.200   1.055  36.086 -0.5682 -0.4500  0.2558
14112TIP3    H163827   2.104   1.053  36.092 -0.8425  0.4467 -2.5180
14112TIP3    H263828   2.218   1.090  35.999  2.3225  0.2752  1.0382
14113TIP3   OH263829   0.156   1.862   8.629  0.3319 -0.1613  0.0982
14113TIP3    H163830   0.189   1.776   8.658  1.6766  0.4613  0.4889
14113TIP3    H263831   0.088   1.884   8.692 -0.1173 -0.9981 -0.0832
14114TIP3   OH263832   1.338   0.939 106.119  0.1667 -0.1108  0.0161
14114TIP3    H163833   1.368   1.030 106.117 -0.6844  0.1586 -1.2180
14114TIP3    H263834   1.372   0.900 106.039 -0.5163 -0.5408 -0.0697
14115TIP3   OH263835   2.167   1.604  75.074 -0.6014 -0.0204  0.2810
14115TIP3    H163836   2.080   1.626  75.107 -0.1604  1.1160  0.7549
14115TIP3    H263837   2.182   1.667  75.004  0.8734  1.5725  1.9367
14116TIP3   OH263838   0.705   1.957  74.383 -0.5675  0.1806  1.0236
14116TIP3    H163839   0.739   1.911  74.307 -2.5944  0.1023  0.0896
14116TIP3    H263840   0.777   1.956  74.446  0.8757 -0.5002 -0.5525
14117TIP3   OH263841   2.054   0.941  35.505 -0.1603 -0.2347  0.4081
14117TIP3    H163842   1.963   0.914  35.521 -0.3011  1.0590  2.1279
14117TIP3    H263843   2.106   0.864  35.526 -0.8064 -0.7718  0.1071
14118TIP3   OH263844   2.467   0.992  19.394  0.1924  0.8256 -0.3200
14118TIP3    H163845   2.421   0.926  19.446  0.4748 -0.0454 -1.1396
14118TIP3    H263846   2.555   0.995  19.432  0.4619  0.0413 -0.8411
14119TIP3   OH263847   1.943   1.326  26.165 -0.0550 -0.2596  0.2590
14119TIP3    H163848   1.989   1.376  26.098 -0.3579  1.6103  1.3701
14119TIP3    H263849   1.862   1.297  26.122 -0.1707  0.7710 -0.2642
14120TIP3   OH263850   1.823   2.333  97.511 -0.1981  0.0229 -0.2832
14120TIP3    H163851   1.847   2.247  97.475 -0.1591 -0.6964  1.3621
14120TIP3    H263852   1.727   2.334  97.508 -0.1956 -0.0285 -0.3934
14121TIP3   OH263853   1.138   2.327  83.555 -0.2044  0.3984 -0.3987
14121TIP3    H163854   1.137   2.247  83.501 -0.0532  0.4191 -0.4330
14121TIP3    H263855   1.065   2.378  83.523  0.0554  0.5395 -0.7827
14122TIP3   OH263856   2.463   1.822  20.171  0.3661  0.5782  0.3837
14122TIP3    H163857   2.506   1.849  20.090  0.2539  1.3567  0.5769
14122TIP3    H263858   2.370   1.814  20.148  0.5683 -1.0085 -0.0095
14123TIP3   OH263859   0.623   1.295  86.048 -0.3812 -0.3638  0.1848
14123TIP3    H163860   0.554   1.236  86.019 -0.7563  0.4043 -0.5389
14123TIP3    H263861   0.651   1.341  85.968  0.1313  0.1823  0.6637
14124TIP3   OH263862   0.611   2.406  81.909 -0.2549  0.1848 -0.0958
14124TIP3    H163863   0.529   2.359  81.925 -0.2088 -0.0603 -0.5444
14124TIP3    H263864   0.595   2.454  81.827  0.3509 -0.5915 -0.6930
14125TIP3   OH263865   2.646   2.014  76.176 -0.0855 -0.0737  0.0887
14125TIP3    H163866   2.725   1.967  76.204 -0.0289  0.5486  1.0080
14125TIP3    H263867   2.576   1.979  76.231 -0.8561 -1.9170 -1.9246
14126TIP3   OH263868   0.096   0.342  25.759 -0.5159  0.3358 -0.2724
14126TIP3    H163869   0.069   0.433  25.748  1.1118  0.7816 -0.8261
14126TIP3    H263870   0.088   0.303  25.672 -1.0225 -0.0174 -0.0751
14127TIP3   OH263871   1.708   1.417 102.819  0.6275  0.0285 -0.0313
14127TIP3    H163872   1.787   1.398 102.769  0.8867  0.0021  0.3818
14127TIP3    H263873   1.727   1.501 102.861  0.2390  0.2653 -0.3275
14128TIP3   OH263874   1.574   2.044  95.133 -0.0675  0.1286 -0.1205
14128TIP3    H163875   1.664   2.026  95.159  0.4324  1.4001 -0.8399
14128TIP3    H263876   1.579   2.056  95.038 -1.2218 -0.9817 -0.3422
14129TIP3   OH263877   1.162   0.536  31.454 -0.2981 -0.1168  1.0225
14129TIP3    H163878   1.253   0.509  31.451 -0.0752  0.5342  1.6388
14129TIP3    H263879   1.113   0.460  31.422  0.4261 -0.5958  1.0304
14130TIP3   OH263880   2.242   1.675  68.627 -0.2403  0.3523  0.2864
14130TIP3    H163881   2.211   1.742  68.565 -0.6584 -0.3903 -0.3249
14130TIP3    H263882   2.215   1.592  68.588  0.1339 -0.1715  1.1120
14131TIP3   OH263883   2.387   1.367  34.222 -0.0987 -0.1247  0.1102
14131TIP3    H163884   2.386   1.382  34.316  1.3505  0.0704  0.1083
14131TIP3    H263885   2.480   1.359  34.199 -0.4727 -1.5785 -1.0804
14132TIP3   OH263886   2.609   1.240  15.603 -0.0281  0.0385 -0.1446
14132TIP3    H163887   2.704   1.243  15.613  0.0155 -1.5524  0.2099
14132TIP3    H263888   2.595   1.229  15.508  0.0843  1.4154 -0.3296
14133TIP3   OH263889   0.671   2.103  84.798 -0.7483 -0.3409  0.1797
14133TIP3    H163890   0.612   2.162  84.846  0.1578  0.4582  0.3338
14133TIP3    H263891   0.741   2.159  84.767  0.2093 -1.3572  0.4273
14134TIP3   OH263892   1.522   2.255 103.279  0.1040  0.1904  0.0803
14134TIP3    H163893   1.548   2.213 103.197 -0.2363 -0.7106  0.4202
14134TIP3    H263894   1.454   2.318 103.253  1.3363  1.3119 -0.5742
14135TIP3   OH263895   2.509   1.108  83.638 -0.4513  0.2711 -0.2803
14135TIP3    H163896   2.436   1.131  83.696 -2.3909 -1.9193 -1.6490
14135TIP3    H263897   2.536   1.021  83.669  1.1518  0.7540 -0.2583
14136TIP3   OH263898   1.893   2.570 108.504 -0.3334  0.3076  0.0212
14136TIP3    H163899   1.891   2.512 108.580 -0.6021  1.4749  0.9301
14136TIP3    H263900   1.916   2.656 108.540  0.5435  0.6772 -1.3599
14137TIP3   OH263901   0.562   1.995  24.665  0.1730  0.1518 -0.0183
14137TIP3    H163902   0.513   1.932  24.612  0.2293  0.5765 -0.5901
14137TIP3    H263903   0.518   1.994  24.750  0.8099 -1.4012  0.3220
14138TIP3   OH263904   1.055   1.270  34.552  0.4467 -0.0585  0.8481
14138TIP3    H163905   0.986   1.310  34.500  2.0086  0.4477 -0.9558
14138TIP3    H263906   1.050   1.314  34.637 -0.1920  1.3667  0.1026
14139TIP3   OH263907   2.465   2.089  83.879 -0.2713 -0.1753  0.3932
14139TIP3    H163908   2.502   2.176  83.859 -0.3125 -0.5376 -1.3808
14139TIP3    H263909   2.375   2.107  83.906 -0.4956  0.2997 -0.6321
14140TIP3   OH263910   1.941   1.000  77.409  0.2227  0.3183  0.0853
14140TIP3    H163911   1.898   1.022  77.491  1.0391 -1.8895  1.2010
14140TIP3    H263912   1.870   0.992  77.345 -0.7281 -0.4533  1.2050
14141TIP3   OH263913   0.483   1.200  98.070  0.0361 -0.7281 -0.2237
14141TIP3    H163914   0.475   1.140  97.995 -1.4486  0.2900 -0.9392
14141TIP3    H263915   0.420   1.269  98.051  0.4114  0.1176  1.4747
14142TIP3   OH263916   1.209   1.093  10.623 -0.4239 -0.4597  0.1149
14142TIP3    H163917   1.180   1.015  10.671 -0.2597 -0.7354 -0.2266
14142TIP3    H263918   1.254   1.146  10.689 -1.0584 -0.3738  0.4833
14143TIP3   OH263919   1.746   1.323   2.029  0.3101 -0.1608  0.2021
14143TIP3    H163920   1.668   1.268   2.017  0.4684 -0.5683  0.9620
14143TIP3    H263921   1.769   1.312   2.122  0.3067  1.2530  0.3927
14144TIP3   OH263922   1.253   0.418  33.515 -0.3273 -0.0651  0.2345
14144TIP3    H163923   1.334   0.451  33.553 -0.4405 -0.9757  1.3268
14144TIP3    H263924   1.220   0.356  33.580 -1.4888 -0.2990 -0.5547
14145TIP3   OH263925   1.732   0.104  18.214 -0.1885 -0.0753  0.1141
14145TIP3    H163926   1.789   0.127  18.287  1.0661  0.0953 -0.8785
14145TIP3    H263927   1.710   0.188  18.175 -0.8598 -0.1659  0.2938
14146TIP3   OH263928   1.538   2.339  73.734 -0.3895 -0.0289  0.1355
14146TIP3    H163929   1.627   2.328  73.769  0.8069 -0.1800 -2.6862
14146TIP3    H263930   1.502   2.250  73.732  0.9033 -0.5626 -2.2227
14147TIP3   OH263931   2.641   1.626  34.186 -0.0889  0.6177  0.2562
14147TIP3    H163932   2.656   1.545  34.234 -0.4076  1.2359  1.4332
14147TIP3    H263933   2.597   1.598  34.106 -0.9441 -0.2924  1.0214
14148TIP3   OH263934   0.444   1.531  32.748 -0.2463  0.3450  0.3894
14148TIP3    H163935   0.474   1.556  32.835 -0.3817  0.7626  0.3153
14148TIP3    H263936   0.390   1.604  32.719  1.7706  1.3763 -1.0401
14149TIP3   OH263937   0.500   1.985  11.311 -0.5006 -0.3552  0.1637
14149TIP3    H163938   0.583   1.961  11.271  0.7361 -0.3803  2.5707
14149TIP3    H263939   0.435   1.973  11.241  1.6357  1.0246 -2.2336
14150TIP3   OH263940   1.079   1.871  27.367 -0.1836 -0.2578 -0.2789
14150TIP3    H163941   1.034   1.927  27.305 -2.0408 -0.9547  0.3683
14150TIP3    H263942   1.054   1.905  27.453  0.8876 -0.4171  0.1218
14151TIP3   OH263943   2.003   1.875  97.615  0.1126 -0.2199  0.0682
14151TIP3    H163944   2.000   1.797  97.561 -0.2348  0.3355 -0.7348
14151TIP3    H263945   1.934   1.862  97.680  0.6755 -0.9861  0.5290
14152TIP3   OH263946   1.384   1.293 108.553 -0.3591  0.0961 -0.1495
14152TIP3    H163947   1.411   1.384 108.563 -0.0178  0.4200 -3.0877
14152TIP3    H263948   1.466   1.243 108.554 -0.5809 -0.3561  2.1184
14153TIP3   OH263949   2.016   1.267  14.646 -0.9841 -0.1501  0.2867
14153TIP3    H163950   1.994   1.349  14.602  0.0213 -0.0438 -0.0397
14153TIP3    H263951   2.049   1.293  14.732 -1.3870 -0.2585  0.4749
14154TIP3   OH263952   1.431   0.012   4.286  0.2651  0.0694 -0.1023
14154TIP3    H163953   1.527   0.019   4.282  0.3465 -0.7634  0.2110
14154TIP3    H263954   1.404   0.011   4.194  0.6236 -0.4759 -0.2060
14155TIP3   OH263955   2.225   0.666  12.476  0.9817  0.3719  0.1827
14155TIP3    H163956   2.255   0.583  12.439  0.6715  0.6972 -0.8405
14155TIP3    H263957   2.184   0.642  12.559  0.3290 -0.5855 -0.3970
14156TIP3   OH263958   1.378   0.826  23.336  0.1285 -0.1474  0.3736
14156TIP3    H163959   1.468   0.846  23.310  0.7844 -0.6503  2.1528
14156TIP3    H263960   1.369   0.732  23.321  0.7895 -0.6100  2.6151
14157TIP3   OH263961   0.483   1.726  22.638 -0.1684 -0.1501  0.4688
14157TIP3    H163962   0.563   1.773  22.614  0.1168 -0.8401  0.0261
14157TIP3    H263963   0.445   1.699  22.554 -2.0701  2.0612  0.5007
14158TIP3   OH263964   1.364   1.355   0.309  0.3026 -0.1452 -0.7498
14158TIP3    H163965   1.337   1.325   0.222 -0.1910  0.4812 -0.8223
14158TIP3    H263966   1.310   1.432   0.325 -0.2772 -0.7827  0.5020
14159TIP3   OH263967   1.486   2.319  26.657  0.3978  0.1465 -0.1102
14159TIP3    H163968   1.469   2.232  26.694  1.1338 -0.6657 -1.5511
14159TIP3    H263969   1.581   2.320  26.643  0.3171  0.9339 -0.6725
14160TIP3   OH263970   0.609   2.153  15.692 -0.1685  0.3930  0.0389
14160TIP3    H163971   0.627   2.137  15.599 -1.0483 -0.2190 -0.0387
14160TIP3    H263972   0.523   2.114  15.707  0.8620 -1.4279  1.6391
14161TIP3   OH263973   0.971   1.535 111.453  0.6047  0.2750  0.2926
14161TIP3    H163974   1.016   1.467 111.503 -0.5321 -1.0796 -0.4732
14161TIP3    H263975   0.886   1.497 111.431 -0.2363  2.1041  0.1985
14162TIP3   OH263976   2.024   2.673  31.067  0.6483  0.3451  0.2520
14162TIP3    H163977   2.006   2.727  31.143  0.3140  0.4792  0.0814
14162TIP3    H263978   1.962   2.704  31.000  1.4129  0.7175 -0.3020
14163TIP3   OH263979   0.448   2.357  22.773  0.2291  0.1689  0.0075
14163TIP3    H163980   0.397   2.321  22.845  1.8207 -0.0867  1.0744
14163TIP3    H263981   0.491   2.434  22.811  1.2081 -0.0557 -0.6020
14164TIP3   OH263982   0.645   2.112  13.725 -0.0522 -0.1541 -0.4051
14164TIP3    H163983   0.712   2.116  13.656  0.1587  0.7896 -0.1544
14164TIP3    H263984   0.588   2.187  13.707  0.5677  0.6979  1.0085
14165TIP3   OH263985   2.456   2.442  96.699 -0.0392 -0.1829 -0.4699
14165TIP3    H163986   2.470   2.362  96.750  3.0941  1.0751  0.8296
14165TIP3    H263987   2.475   2.416  96.608  0.8926 -0.9109 -0.0761
14166TIP3   OH263988   2.592   0.629  12.467 -0.1571 -0.3061 -0.1633
14166TIP3    H163989   2.627   0.595  12.384 -0.8371 -1.7623  0.1210
14166TIP3    H263990   2.515   0.574  12.485 -0.5060  0.5376  1.0136
14167TIP3   OH263991   2.023   2.632   3.358 -0.1074  0.3343 -0.5496
14167TIP3    H163992   2.022   2.601   3.448 -0.2497  0.5088 -0.4901
14167TIP3    H263993   2.051   2.556   3.307 -0.7365  0.0161 -0.4402
14168TIP3   OH263994   0.471   0.100  84.645 -0.1239  0.0867  0.0417
14168TIP3    H163995   0.380   0.091  84.616  0.0713 -0.4451 -0.4387
14168TIP3    H263996   0.466   0.109  84.740 -0.7385  1.0589 -0.0708
14169TIP3   OH263997   0.859   1.465  85.533 -0.3597  0.1662  0.1723
14169TIP3    H163998   0.900   1.494  85.451  1.4890  0.5027  1.1516
14169TIP3    H263999   0.819   1.544  85.569 -1.8482 -0.1389 -0.7390
14170TIP3   OH264000   2.326   0.651  37.353  0.0855 -0.2971 -0.4755
14170TIP3    H164001   2.243   0.616  37.388  0.5858 -0.8374  0.1975
14170TIP3    H264002   2.301   0.733  37.311 -0.7128 -0.1722  0.2108
14171TIP3   OH264003   1.294   2.473  10.199 -0.4974 -0.1250  0.0348
14171TIP3    H164004   1.331   2.559  10.183 -0.4651 -0.1870 -0.2281
14171TIP3    H264005   1.200   2.486  10.193 -0.4947 -0.8308 -4.0195
14172TIP3   OH264006   0.414   0.569  97.884  0.0519 -0.6890 -0.1192
14172TIP3    H164007   0.459   0.536  97.962 -0.0801  0.5566  0.5235
14172TIP3    H264008   0.338   0.512  97.874 -0.0353 -0.7557  0.7874
14173TIP3   OH264009   0.374   1.199  14.187  0.1872  0.0299 -0.6491
14173TIP3    H164010   0.427   1.269  14.225 -0.4298  0.2937 -0.2641
14173TIP3    H264011   0.436   1.128  14.171  0.4186 -0.2199  1.1536
14174TIP3   OH264012   2.077   2.274 100.315  0.3131  0.3510  0.2552
14174TIP3    H164013   2.021   2.351 100.323 -1.0286 -0.6664  1.1905
14174TIP3    H264014   2.037   2.222 100.245  0.1487 -0.3106  0.8236
14175TIP3   OH264015   2.664   2.264   5.628  0.1662 -0.6296 -0.3155
14175TIP3    H164016   2.749   2.246   5.588  0.6737 -0.6485  0.7587
14175TIP3    H264017   2.675   2.241   5.720 -1.2344 -1.3716 -0.3128
14176TIP3   OH264018   1.793   2.676  26.352 -0.4495  0.0293 -0.7590
14176TIP3    H164019   1.748   2.599  26.387 -0.2174 -1.0036 -2.6098
14176TIP3    H264020   1.823   2.723  26.430 -1.2296 -1.3605  0.4439
14177TIP3   OH264021   1.020   1.739 102.433 -0.1731 -0.0133  0.2458
14177TIP3    H164022   1.073   1.673 102.390 -1.7612 -1.1298 -0.0942
14177TIP3    H264023   1.011   1.707 102.523  0.8574  0.9024  0.7038
14178TIP3   OH264024   0.639   1.527  52.619 -0.7294 -0.3771  0.5051
14178TIP3    H164025   0.726   1.488  52.627  0.4110  1.8383 -0.4348
14178TIP3    H264026   0.609   1.500  52.532  0.2675  1.1323 -0.3501
14179TIP3   OH264027   1.877   2.557   9.567  0.3486  0.3481 -0.3705
14179TIP3    H164028   1.918   2.521   9.646  2.1386  0.3374 -1.2305
14179TIP3    H264029   1.786   2.571   9.590  0.1616 -2.3010  0.8350
14180TIP3   OH264030   2.332   2.037   3.012 -0.2762 -0.0519  0.2584
14180TIP3    H164031   2.340   2.132   3.015 -1.0150  0.0071  0.8599
14180TIP3    H264032   2.403   2.004   3.067 -0.5343  0.1934  0.7453
14181TIP3   OH264033   2.210   0.164  11.852 -0.0790 -1.0683 -0.0493
14181TIP3    H164034   2.184   0.078  11.884 -0.2444 -0.8480  0.4203
14181TIP3    H264035   2.127   0.210  11.839  0.0119 -0.9427 -0.1876
14182TIP3   OH264036   0.491   1.215  29.862  0.3279  0.0229 -0.1961
14182TIP3    H164037   0.477   1.283  29.797 -0.7019  0.0232  0.0117
14182TIP3    H264038   0.404   1.177  29.877  0.8941 -1.4281 -0.4014
14183TIP3   OH264039   1.371   0.886   9.106  0.3013  0.3952 -0.5482
14183TIP3    H164040   1.400   0.866   9.195 -0.3328  0.1866 -0.3838
14183TIP3    H264041   1.285   0.926   9.117  0.5397  1.0700 -1.0241
14184TIP3   OH264042   0.523   2.089  22.280  0.2805 -0.0864 -0.6569
14184TIP3    H164043   0.468   2.061  22.354 -0.5125 -2.1386 -1.9572
14184TIP3    H264044   0.531   2.184  22.292 -1.6948 -0.0358  0.8129
14185TIP3   OH264045   2.450   0.682  88.785  0.4495 -0.1586  0.3005
14185TIP3    H164046   2.471   0.665  88.694 -1.5178  1.1794 -0.4766
14185TIP3    H264047   2.356   0.699  88.785  0.2294 -0.9828  2.7223
14186TIP3   OH264048   0.447   0.768  99.781 -0.1756  0.6673  0.4343
14186TIP3    H164049   0.360   0.791  99.748  0.5585  1.3146 -1.1730
14186TIP3    H264050   0.446   0.795  99.873 -2.0956 -0.5894  0.8342
14187TIP3   OH264051   2.134   0.261   4.256  0.3852  0.1432  0.6324
14187TIP3    H164052   2.181   0.199   4.200 -0.5287  1.1852 -1.3661
14187TIP3    H264053   2.055   0.214   4.283  0.6327 -0.2212  0.7338
14188TIP3   OH264054   0.155   0.515  79.051  0.7192 -0.5522 -0.2225
14188TIP3    H164055   0.161   0.603  79.089 -0.4094 -0.5256 -0.0633
14188TIP3    H264056   0.246   0.488  79.038  1.0832  0.6987 -0.4160
14189TIP3   OH264057   1.810   0.930  13.295  0.5244  0.5361 -0.3091
14189TIP3    H164058   1.808   0.976  13.211  0.8738  1.6339  0.2604
14189TIP3    H264059   1.902   0.933  13.321  0.6592 -1.0043 -0.5089
14190TIP3   OH264060   1.885   1.281  87.233 -0.1086  0.2809 -0.5190
14190TIP3    H164061   1.807   1.287  87.178  0.0107  1.6517 -0.5633
14190TIP3    H264062   1.852   1.294  87.322 -0.0742 -0.3174 -0.4179
14191TIP3   OH264063   0.997   2.294  12.703 -0.3783 -0.6390 -0.6031
14191TIP3    H164064   1.045   2.348  12.766  0.1043 -0.9123 -0.7322
14191TIP3    H264065   0.910   2.335  12.698 -0.3952 -0.5681  0.1751
14192TIP3   OH264066   1.746   1.237  90.774  0.0357  0.2499  0.2835
14192TIP3    H164067   1.718   1.269  90.689 -0.0216  0.3944  0.3575
14192TIP3    H264068   1.673   1.258  90.833 -0.6733 -1.3419  0.0460
14193TIP3   OH264069   1.130   0.056  91.866 -0.6887  0.0200  0.4493
14193TIP3    H164070   1.182   0.072  91.945 -1.8839  2.6685  0.8088
14193TIP3    H264071   1.053   0.008  91.897 -0.6516  0.1357  0.7272
14194TIP3   OH264072   2.188   2.313   2.341  0.4198 -0.5638  0.4510
14194TIP3    H164073   2.194   2.222   2.313  0.0419 -0.5258  0.2337
14194TIP3    H264074   2.112   2.315   2.400 -0.4067 -0.1406 -0.5852
14195TIP3   OH264075   2.316   0.483  74.058 -0.1796 -0.9169 -1.0908
14195TIP3    H164076   2.258   0.426  74.110  0.5459 -1.1311 -0.4802
14195TIP3    H264077   2.355   0.542  74.123 -2.4743  1.7528 -1.9450
14196TIP3   OH264078   1.251   2.668 101.351 -0.0692  0.3560  0.5063
14196TIP3    H164079   1.292   2.669 101.265 -0.5577  0.1661  0.2681
14196TIP3    H264080   1.320   2.697 101.411  1.0545 -1.8234  0.3938
14197TIP3   OH264081   0.193   0.047  19.033 -0.0918 -0.1354 -0.1372
14197TIP3    H164082   0.288   0.043  19.044 -0.1215 -0.4000  0.0311
14197TIP3    H264083   0.179   0.119  18.972  0.1235  1.0776  1.1835
14198TIP3   OH264084   0.870   0.608   3.150  0.1285 -0.3578  0.5220
14198TIP3    H164085   0.955   0.624   3.110  0.4605 -1.0814  0.9091
14198TIP3    H264086   0.844   0.522   3.117 -1.5825  0.8589 -1.4948
14199TIP3   OH264087   1.188   0.108  95.540 -0.5306 -0.0696 -0.0158
14199TIP3    H164088   1.118   0.158  95.499 -0.4018 -0.1641 -0.3564
14199TIP3    H264089   1.269   0.146  95.505 -0.3899  0.4428  0.8308
14200TIP3   OH264090   0.757   1.155  15.536  0.7826  0.2435 -0.2847
14200TIP3    H164091   0.771   1.101  15.458 -1.6462 -2.5303  0.9901
14200TIP3    H264092   0.839   1.147  15.586  1.2155 -0.5715 -1.1054
14201TIP3   OH264093   0.936   1.778  90.669 -0.2400 -0.2015  0.0340
14201TIP3    H164094   0.999   1.848  90.687 -1.4130  1.1151 -0.7355
14201TIP3    H264095   0.962   1.743  90.584 -0.7216  0.5861 -0.4514
14202TIP3   OH264096   2.368   2.356  12.877 -0.9029 -0.0023 -0.1738
14202TIP3    H164097   2.412   2.391  12.955  1.0512 -0.8467 -0.8372
14202TIP3    H264098   2.424   2.384  12.804 -2.0864 -0.1933 -1.1814
14203TIP3   OH264099   2.597   2.521  30.581  0.4931  0.4738  0.1713
14203TIP3    H164100   2.535   2.452  30.606  1.0387 -0.0882 -0.0161
14203TIP3    H264101   2.636   2.549  30.664 -0.3214  1.1425  0.3421
14204TIP3   OH264102   0.061   2.523  28.184 -0.2674 -0.3029 -0.3062
14204TIP3    H164103   0.034   2.553  28.271 -1.8150  1.0840 -1.2116
14204TIP3    H264104   0.144   2.568  28.168 -0.3479  0.0219  0.1650
14205TIP3   OH264105   1.453   2.574  11.614  0.3514  0.4397  0.3111
14205TIP3    H164106   1.496   2.582  11.529  0.4186 -0.5228  0.2461
14205TIP3    H264107   1.413   2.487  11.612  1.0399  0.0759  1.5866
14206TIP3   OH264108   2.149   1.899  88.723 -0.6744 -0.2331  0.7335
14206TIP3    H164109   2.101   1.850  88.790 -1.3020 -2.6745 -1.3562
14206TIP3    H264110   2.085   1.963  88.691 -1.9695 -2.0783 -0.5874
14207TIP3   OH264111   1.017   2.087  63.577  0.2342 -0.3590  0.5273
14207TIP3    H164112   1.001   2.073  63.484 -0.5238 -0.4736  0.6671
14207TIP3    H264113   1.079   2.160  63.580 -1.3775  1.1032 -0.0150
14208TIP3   OH264114   1.540   1.817  74.558  0.3617  0.0576 -0.1808
14208TIP3    H164115   1.481   1.881  74.598  0.8354  1.7077 -1.9257
14208TIP3    H264116   1.620   1.823  74.609  0.7957  1.7675 -0.9994
14209TIP3   OH264117   0.505   1.926  80.112  0.0026  0.9917 -0.2214
14209TIP3    H164118   0.540   2.014  80.123 -0.7991  1.8375 -3.4265
14209TIP3    H264119   0.581   1.869  80.114  0.7495  1.9681 -0.0256
14210TIP3   OH264120   0.621   0.025  30.065  0.6080 -0.3627  0.7142
14210TIP3    H164121   0.680  -0.005  30.134  0.9250  0.6206  0.8798
14210TIP3    H264122   0.626  -0.043  29.997  0.1098 -1.4718  1.7397
14211TIP3   OH264123   0.880   0.291  77.087  0.0871 -0.1117  0.4680
14211TIP3    H164124   0.812   0.332  77.140  1.7098 -0.3938  2.9204
14211TIP3    H264125   0.881   0.200  77.115  1.9938  0.0682  1.1086
14212TIP3   OH264126   0.108   1.318 101.260 -0.1429 -0.3517 -0.9834
14212TIP3    H164127   0.190   1.272 101.281  0.3845  1.3348  1.0011
14212TIP3    H264128   0.135   1.393 101.207 -0.3898  0.1743 -0.3794
14213TIP3   OH264129   0.152   0.964  89.649 -0.1513  0.0092 -0.5984
14213TIP3    H164130   0.188   0.875  89.644  2.4655  0.9742 -0.2034
14213TIP3    H264131   0.115   0.979  89.562  0.4625 -1.0353 -1.0621
14214TIP3   OH264132   0.736   1.746   2.050  0.2431  0.6167  0.1281
14214TIP3    H164133   0.732   1.836   2.083  0.3403  0.7581 -0.2383
14214TIP3    H264134   0.762   1.755   1.959  2.4612  0.1157  0.6353
14215TIP3   OH264135   1.287   0.381  83.850  0.5585  0.1448 -0.0735
14215TIP3    H164136   1.197   0.400  83.826 -0.2561 -1.7083  1.3508
14215TIP3    H264137   1.324   0.337  83.774  0.2184  0.7294 -0.5813
14216TIP3   OH264138   0.276   1.410  34.783 -0.0403 -0.4942  0.1170
14216TIP3    H164139   0.271   1.316  34.799  0.4956 -0.5841 -0.2256
14216TIP3    H264140   0.315   1.446  34.863 -0.7510 -0.4879  0.4710
14217TIP3   OH264141   2.183   2.422 111.230 -0.4506 -0.0904  0.0116
14217TIP3    H164142   2.089   2.440 111.227 -0.3069  0.6224 -1.1718
14217TIP3    H264143   2.223   2.504 111.258 -0.0890  0.1119 -1.0403
14218TIP3   OH264144   0.825   1.817  80.832 -0.1834 -0.0094 -0.0754
14218TIP3    H164145   0.864   1.797  80.917 -2.3505  0.1154  1.0058
14218TIP3    H264146   0.838   1.738  80.780  1.3901  0.0093  0.2543
14219TIP3   OH264147   1.679   1.719  25.015  0.7034 -0.2126  0.0325
14219TIP3    H164148   1.649   1.641  25.062 -0.6007 -0.6680 -1.4203
14219TIP3    H264149   1.612   1.785  25.033  0.2554 -0.3534 -0.9923
14220TIP3   OH264150   2.597   2.064 104.124 -0.0233  0.3368  0.0694
14220TIP3    H164151   2.678   2.064 104.074  0.2669  1.0172  0.5141
14220TIP3    H264152   2.558   2.150 104.107 -0.3299  0.2576  0.3565
14221TIP3   OH264153   0.354   2.364  84.468  0.5968  0.1578  0.0734
14221TIP3    H164154   0.298   2.429  84.426 -0.5828 -0.8004  0.1138
14221TIP3    H264155   0.364   2.295  84.403 -0.3615 -0.8404  0.9306
14222TIP3   OH264156   1.319   0.557  23.251  0.0008  0.1180 -0.2076
14222TIP3    H164157   1.256   0.521  23.189 -0.5931  1.6295 -0.5399
14222TIP3    H264158   1.362   0.481  23.289 -0.3993 -0.8810 -1.6650
14223TIP3   OH264159   1.333   2.426   2.064 -0.5037 -0.3612  0.1395
14223TIP3    H164160   1.345   2.459   1.976 -2.1204 -0.1227 -0.0230
14223TIP3    H264161   1.371   2.493   2.121  0.0129 -0.2443 -0.3376
14224TIP3   OH264162   0.943   2.634  80.147  0.2289  0.1278 -0.2889
14224TIP3    H164163   0.860   2.590  80.160  0.8530 -0.9535  0.1213
14224TIP3    H264164   0.939   2.711  80.205 -1.1047  1.0002 -1.4577
14225TIP3   OH264165   0.264   1.136   6.584 -0.5232  0.1675 -0.3142
14225TIP3    H164166   0.325   1.140   6.657  0.2748  0.6519 -0.9808
14225TIP3    H264167   0.281   1.052   6.542  0.8031  0.9274 -1.3970
14226TIP3   OH264168   0.458   0.601   8.379 -0.2103 -0.2659 -0.8065
14226TIP3    H164169   0.494   0.679   8.420 -4.2883  0.9796  0.8992
14226TIP3    H264170   0.447   0.625   8.287 -0.4008  0.7884 -0.5209
14227TIP3   OH264171   1.693   0.252  88.483  0.0165  0.4058  0.3719
14227TIP3    H164172   1.717   0.342  88.462 -0.1184  0.4058  0.2166
14227TIP3    H264173   1.606   0.240  88.444 -0.5865  0.6523  1.5711
14228TIP3   OH264174   0.158   1.771  99.990  0.3372  0.1378 -0.2019
14228TIP3    H164175   0.168   1.758  99.896 -1.0868  0.7782 -0.4657
14228TIP3    H264176   0.173   1.684 100.028 -0.6354 -0.4838 -1.1684
14229TIP3   OH264177   0.884   1.180  85.379  0.2494 -0.4102 -0.0293
14229TIP3    H164178   0.968   1.221  85.401 -0.5157  1.0193  0.3175
14229TIP3    H264179   0.866   1.208  85.289 -0.4297  0.2825  0.3194
14230TIP3   OH264180   0.209   1.765  99.714  0.0627  0.0705 -0.4689
14230TIP3    H164181   0.258   1.728  99.640 -1.3523 -0.4033 -1.2092
14230TIP3    H264182   0.137   1.813  99.673 -1.4767 -1.2335  0.5806
14231TIP3   OH264183   2.666   1.314   9.012 -0.1096  0.3572  0.6388
14231TIP3    H164184   2.645   1.222   9.026  1.1305  0.0022  0.3548
14231TIP3    H264185   2.634   1.358   9.090  0.2922 -0.4976  1.3139
14232TIP3   OH264186   0.189   0.229  74.087 -0.3369  0.3319 -0.3325
14232TIP3    H164187   0.144   0.149  74.059 -0.2977 -0.2835  1.2371
14232TIP3    H264188   0.140   0.300  74.045 -1.8795 -0.3933  0.1461
14233TIP3   OH264189   0.980   1.897  23.406  0.1190 -0.3101 -0.3171
14233TIP3    H164190   0.899   1.847  23.413 -1.3703  2.1624  3.2106
14233TIP3    H264191   0.951   1.984  23.378  1.8203  0.2102 -0.5812
14234TIP3   OH264192   1.684   2.236  74.664 -0.1528 -0.0445  0.1565
14234TIP3    H164193   1.626   2.300  74.705  2.1900  0.9841  2.1315
14234TIP3    H264194   1.686   2.260  74.572 -4.0530 -1.1938 -0.4165
14235TIP3   OH264195   0.763   2.530  87.518 -0.1832  0.2861  0.1773
14235TIP3    H164196   0.810   2.447  87.526  0.2844  0.4708 -0.5124
14235TIP3    H264197   0.803   2.587  87.584 -0.1358  0.1266  0.2864
14236TIP3   OH264198   1.932   2.500  93.186 -0.3101  0.5697 -0.1998
14236TIP3    H164199   1.879   2.554  93.128  0.2901 -0.8567 -2.1762
14236TIP3    H264200   2.014   2.486  93.139  0.4023 -0.2302  1.2108
14237TIP3   OH264201   2.549   1.694 108.916 -0.1907  0.0998 -0.1982
14237TIP3    H164202   2.569   1.669 109.007  0.6207  0.8589 -0.1516
14237TIP3    H264203   2.468   1.647 108.896  0.3028 -1.1047  0.4841
14238TIP3   OH264204   0.475   1.690  80.672  0.9156 -0.5373 -0.0820
14238TIP3    H164205   0.521   1.761  80.628 -0.8417  0.9528  0.3433
14238TIP3    H264206   0.493   1.704  80.765 -0.5533  0.2291  0.1126
14239TIP3   OH264207   0.806   2.236 110.708  0.1075  0.5514  0.2861
14239TIP3    H164208   0.872   2.305 110.696 -1.7150  2.0822 -1.6520
14239TIP3    H264209   0.758   2.262 110.787 -0.3543  1.3512 -0.2507
14240TIP3   OH264210   1.046   0.011  17.239  0.1411 -0.1538 -0.0381
14240TIP3    H164211   1.065  -0.081  17.258  0.5666  0.1835  1.2641
14240TIP3    H264212   1.122   0.042  17.190  0.5349 -0.2013  0.5346
14241TIP3   OH264213   1.063   1.566  17.826  0.3504  0.2738  0.4688
14241TIP3    H164214   1.046   1.554  17.732  0.3577  0.2430  0.4718
14241TIP3    H264215   1.057   1.661  17.840 -1.1415  0.1675  0.7173
14242TIP3   OH264216   0.175   1.449  17.716 -0.3016 -0.4221 -0.2474
14242TIP3    H164217   0.230   1.466  17.793 -0.1979 -2.3003  0.1396
14242TIP3    H264218   0.086   1.444  17.750 -0.4544  0.4114 -0.5212
14243TIP3   OH264219   2.117   0.927  19.740 -0.2749  0.0317 -0.0444
14243TIP3    H164220   2.174   1.002  19.721 -0.4948  0.1645 -0.1794
14243TIP3    H264221   2.095   0.937  19.833 -0.4438  0.2305 -0.1044
14244TIP3   OH264222   0.841   0.077  30.255  0.5534  0.0034  0.7248
14244TIP3    H164223   0.864  -0.008  30.292 -0.1095  0.8286  3.2876
14244TIP3    H264224   0.787   0.118  30.322 -3.2947  0.5932 -2.3958
14245TIP3   OH264225   1.983   2.277  85.066  0.8954 -0.1595 -0.2953
14245TIP3    H164226   1.984   2.277  85.162 -0.7281 -0.8299 -0.2423
14245TIP3    H264227   1.940   2.194  85.043  1.3852 -0.0693 -1.6125
14246TIP3   OH264228   1.501   2.271  90.573 -0.6738  0.4272  0.3656
14246TIP3    H164229   1.544   2.261  90.658 -1.6117 -1.0379  0.6955
14246TIP3    H264230   1.411   2.243  90.588 -1.3900  2.0089 -0.6716
14247TIP3   OH264231   0.510   1.101  86.274  0.5440  0.2122  0.3708
14247TIP3    H164232   0.512   1.123  86.181 -0.2784 -0.7584  0.1068
14247TIP3    H264233   0.598   1.067  86.292  1.2720  2.0106  0.3892
14248TIP3   OH264234   2.322   0.470  30.208  0.2900 -0.7370  0.1383
14248TIP3    H164235   2.348   0.413  30.280  0.5769  0.1007  0.7055
14248TIP3    H264236   2.398   0.475  30.151  0.3338 -0.7592  0.1963
14249TIP3   OH264237   2.312   0.834  73.975 -0.5669  0.1606 -0.2659
14249TIP3    H164238   2.329   0.928  73.968 -0.9779  0.6335  3.2105
14249TIP3    H264239   2.254   0.826  74.051 -0.2209 -2.9336 -0.2223
14250TIP3   OH264240   2.611   2.050  16.882 -0.0416 -0.4443 -0.1963
14250TIP3    H164241   2.671   2.086  16.816  0.7356 -1.3323  0.0138
14250TIP3    H264242   2.591   1.962  16.851 -0.7915 -0.3741  0.0462
14251TIP3   OH264243   2.055   1.951  78.141 -0.2864 -0.1167  0.2611
14251TIP3    H164244   2.140   1.993  78.129 -0.4350  0.1518  0.1275
14251TIP3    H264245   2.009   1.968  78.059  0.5871 -2.7841 -0.8945
14252TIP3   OH264246   1.723   0.604  36.042  0.3429 -0.0688  0.1090
14252TIP3    H164247   1.683   0.682  36.005 -1.5353  0.3603  2.7328
14252TIP3    H264248   1.665   0.533  36.017 -0.1422  0.0100  0.9729
14253TIP3   OH264249   0.039   2.641 107.644 -0.0346 -0.3220  0.0336
14253TIP3    H164250  -0.019   2.565 107.639 -1.5837  0.8200  0.0131
14253TIP3    H264251   0.124   2.607 107.616 -1.2033 -1.5060 -2.4311
14254TIP3   OH264252   2.373   0.459 100.859  0.7270 -0.4786 -0.3226
14254TIP3    H164253   2.294   0.478 100.910  0.3745  1.4930 -1.5126
14254TIP3    H264254   2.349   0.386 100.802 -0.8770  1.2193 -1.9342
14255TIP3   OH264255   1.498   1.988  75.130 -0.1521  0.9904  0.2095
14255TIP3    H164256   1.474   2.071  75.172  0.7037 -0.1903  3.3274
14255TIP3    H264257   1.573   1.957  75.180 -0.8499 -1.9945 -0.3951
14256TIP3   OH264258   1.737   0.154  98.557 -0.0600 -0.0752 -0.1663
14256TIP3    H164259   1.686   0.186  98.631 -0.8445 -0.8256 -0.3587
14256TIP3    H264260   1.681   0.171  98.481  1.3195  2.0011 -0.8119
14257TIP3   OH264261   2.569   1.553  80.447 -0.1560 -0.0740  0.2353
14257TIP3    H164262   2.603   1.549  80.357  0.7128  0.6290  0.5194
14257TIP3    H264263   2.491   1.608  80.440 -0.2655 -0.2666 -0.1286
14258TIP3   OH264264   1.577   0.776  48.400  0.0513 -0.4796 -0.3841
14258TIP3    H164265   1.629   0.825  48.336 -1.1905  1.8339  0.2579
14258TIP3    H264266   1.642   0.746  48.465  0.6452  3.2506  0.9832
14259TIP3   OH264267   1.106   2.471  27.441  0.3847  0.1254 -0.3997
14259TIP3    H164268   1.036   2.495  27.380 -0.8113 -2.4872 -0.2191
14259TIP3    H264269   1.183   2.458  27.386  0.2573  1.2224 -0.8566
14260TIP3   OH264270   2.244   0.504  18.937  0.4912  0.5058 -0.3994
14260TIP3    H164271   2.292   0.428  18.904 -1.3753 -1.7178  1.6233
14260TIP3    H264272   2.294   0.534  19.012  0.0629 -0.2400  0.2012
14261TIP3   OH264273   1.099   2.391  30.042  0.3530  0.1579 -0.1593
14261TIP3    H164274   1.090   2.455  29.972  0.7169 -0.1033 -0.4463
14261TIP3    H264275   1.188   2.357  30.033 -0.1768 -1.1644 -0.6823
14262TIP3   OH264276   2.454   0.235  89.096 -0.1131 -0.0094  0.4185
14262TIP3    H164277   2.373   0.217  89.145  0.2914  0.2631  1.2089
14262TIP3    H264278   2.512   0.163  89.118  0.4582  0.6736  1.2316
14263TIP3   OH264279   1.814   1.564  97.966  0.0642 -0.2191  0.7729
14263TIP3    H164280   1.745   1.555  98.032 -0.6242  1.2212  0.3124
14263TIP3    H264281   1.771   1.611  97.894  0.7873 -1.7460 -0.7122
14264TIP3   OH264282   1.201   0.457  75.760 -0.4400  0.0040 -0.1784
14264TIP3    H164283   1.185   0.547  75.732  0.4422  0.2088 -0.0623
14264TIP3    H264284   1.114   0.422  75.779 -0.9492  0.3110 -1.7634
14265TIP3   OH264285   2.177   0.607  27.132 -0.7966  0.1157  0.0348
14265TIP3    H164286   2.203   0.697  27.153  0.0043 -0.6096  2.4959
14265TIP3    H264287   2.229   0.585  27.055  0.9456  0.9606  0.9039
14266TIP3   OH264288   1.028   2.071  51.927 -0.0328  0.1052 -0.3206
14266TIP3    H164289   0.934   2.081  51.916 -0.3134 -3.4789 -2.8816
14266TIP3    H264290   1.040   2.057  52.021 -1.9696  0.9780  0.0968
14267TIP3   OH264291   1.971   0.556  92.324  0.5932  0.0069  0.1136
14267TIP3    H164292   1.975   0.590  92.413 -0.5307  0.5222 -0.0160
14267TIP3    H264293   1.884   0.517  92.316  0.2607  0.8979 -1.0599
14268TIP3   OH264294   2.262   0.767  22.959 -0.2792  0.4118 -0.4559
14268TIP3    H164295   2.278   0.728  23.044  0.5480 -0.1752 -0.8734
14268TIP3    H264296   2.251   0.693  22.900 -0.5835  0.8139 -0.9191
14269TIP3   OH264297   1.746   2.561  85.588 -0.4021  0.1058 -0.1069
14269TIP3    H164298   1.663   2.600  85.617 -0.4231  1.2913 -1.6036
14269TIP3    H264299   1.721   2.474  85.555 -0.7269 -0.3116  1.1922
14270TIP3   OH264300   2.246   0.497   7.691  0.0727  0.1499  0.5846
14270TIP3    H164301   2.329   0.459   7.665  0.6399  0.5320  1.7665
14270TIP3    H264302   2.198   0.509   7.609  0.4545 -1.7054  0.0483
14271TIP3   OH264303   2.180   1.849  25.227 -0.0462  0.0491 -0.3067
14271TIP3    H164304   2.220   1.875  25.144  0.1514 -1.4108 -0.6957
14271TIP3    H264305   2.092   1.820  25.203  0.0881 -0.5902 -0.0642
14272TIP3   OH264306   1.138   1.258 104.092  0.5828 -0.3569 -0.1210
14272TIP3    H164307   1.232   1.243 104.087  0.6910  0.5729 -1.0613
14272TIP3    H264308   1.113   1.289 104.005 -0.6782 -1.0021 -0.0218
14273TIP3   OH264309   0.477   2.080  91.921 -0.3600  0.1947 -0.1947
14273TIP3    H164310   0.498   2.079  91.828 -0.8396 -0.6318 -0.3009
14273TIP3    H264311   0.563   2.080  91.965 -0.0725 -2.0550 -0.6251
14274TIP3   OH264312   1.999   0.820  20.386  0.2010  0.1995  0.0321
14274TIP3    H164313   1.928   0.758  20.372  1.1121 -0.5648 -1.5074
14274TIP3    H264314   1.957   0.906  20.390 -0.8150 -0.2496 -0.6914
14275TIP3   OH264315   0.661   2.046  95.878  0.4448 -0.1022  0.8358
14275TIP3    H164316   0.663   2.118  95.941  0.4930 -0.6751  1.5008
14275TIP3    H264317   0.747   2.049  95.835  0.9798 -0.6110  1.8367
14276TIP3   OH264318   0.651   0.025  77.397  0.1234  0.0194  0.5390
14276TIP3    H164319   0.731  -0.021  77.371 -0.0280 -2.2929  3.6434
14276TIP3    H264320   0.682   0.101  77.446  0.3790  0.4194 -0.2235
14277TIP3   OH264321   1.243   1.476  13.973 -0.0700  0.1223  0.0786
14277TIP3    H164322   1.202   1.391  13.987 -0.8514  0.3660 -0.6897
14277TIP3    H264323   1.320   1.457  13.920 -0.7772 -0.0076 -0.9258
14278TIP3   OH264324   0.208   2.586  84.423 -0.1957 -0.2706 -0.0815
14278TIP3    H164325   0.224   2.636  84.503 -0.2105 -0.2982 -0.0592
14278TIP3    H264326   0.119   2.610  84.397  0.2622  0.7096 -0.7854
14279TIP3   OH264327   2.451   1.131   4.078 -0.0839 -0.3998 -0.5366
14279TIP3    H164328   2.390   1.132   4.152  0.6740  2.4898  0.1877
14279TIP3    H264329   2.424   1.205   4.024  1.9495  0.1340 -0.9068
14280TIP3   OH264330   0.731   0.743  16.515 -0.7860 -0.1593 -0.4314
14280TIP3    H164331   0.665   0.812  16.511 -0.7499 -0.1704 -2.1605
14280TIP3    H264332   0.784   0.764  16.591 -1.1676  1.3662 -0.5572
14281TIP3   OH264333   1.590   1.186   7.667  0.4120  0.4378  0.2207
14281TIP3    H164334   1.559   1.096   7.677 -0.1801  0.7068  0.8532
14281TIP3    H264335   1.685   1.180   7.676  0.5222 -0.3095 -1.0964
14282TIP3   OH264336   2.357   1.111  92.585  0.6103  0.2208 -0.1846
14282TIP3    H164337   2.335   1.202  92.565 -0.0445 -0.1011 -1.0206
14282TIP3    H264338   2.432   1.116  92.643  0.7864  1.2920 -0.4843
14283TIP3   OH264339   1.870   1.490  34.144  0.7082  0.7609 -0.2286
14283TIP3    H164340   1.888   1.474  34.236 -0.1970 -1.7221 -0.4227
14283TIP3    H264341   1.857   1.585  34.138  1.0319  0.9983  2.1316
14284TIP3   OH264342   0.913   1.990   8.734 -0.3604  0.1677 -0.3889
14284TIP3    H164343   0.982   1.947   8.684 -0.4095  1.2308 -1.4067
14284TIP3    H264344   0.856   2.030   8.668  0.1236  2.4757  0.4774
14285TIP3   OH264345   0.657   0.876 102.482 -0.1404  0.0013 -0.0885
14285TIP3    H164346   0.679   0.883 102.575 -0.8764 -0.2181  0.1029
14285TIP3    H264347   0.615   0.959 102.461 -0.2055 -0.0522 -0.1675
14286TIP3   OH264348   1.180   1.772  87.300 -0.6732  0.2790 -0.3063
14286TIP3    H164349   1.166   1.687  87.258  0.1357  0.0399 -0.1052
14286TIP3    H264350   1.217   1.751  87.385 -0.7952  0.8213 -0.1153
14287TIP3   OH264351   0.544   2.459  38.470 -0.0888  0.2147 -0.0081
14287TIP3    H164352   0.526   2.496  38.557  0.5458  1.6369 -0.4386
14287TIP3    H264353   0.620   2.509  38.439 -0.6877  0.1722 -1.6287
14288TIP3   OH264354   1.481   0.546  93.957  0.9522 -0.1423 -0.1622
14288TIP3    H164355   1.513   0.533  94.047 -0.7525  0.2607  0.5261
14288TIP3    H264356   1.510   0.467  93.911  2.0151 -0.2810  0.6694
14289TIP3   OH264357   0.496   0.654  79.809  0.7356  0.1823 -0.3581
14289TIP3    H164358   0.407   0.639  79.777  0.2812  0.6745  0.6447
14289TIP3    H264359   0.499   0.748  79.829  0.9821 -0.1165  1.0714
14290TIP3   OH264360   0.335   0.012   0.338 -0.2149 -0.0738 -0.0122
14290TIP3    H164361   0.382  -0.044   0.400 -0.2539  0.0394  0.1183
14290TIP3    H264362   0.302  -0.049   0.272  0.3285 -0.1305 -0.2400
14291TIP3   OH264363   1.927   1.167  13.945  0.1011 -0.2396  0.4812
14291TIP3    H164364   1.878   1.220  14.008  0.0355 -0.9351  1.0276
14291TIP3    H264365   1.992   1.120  13.998  0.5833 -0.2226 -0.0807
14292TIP3   OH264366   1.685   0.203  21.883 -0.1947  0.1255  0.4667
14292TIP3    H164367   1.677   0.299  21.885  2.4066  0.4120  1.1877
14292TIP3    H264368   1.712   0.184  21.793 -0.9928  0.0042  0.2418
14293TIP3   OH264369   2.140   1.771   7.779  0.1130 -0.3641  0.1346
14293TIP3    H164370   2.206   1.775   7.709  0.5356 -0.6486  0.5100
14293TIP3    H264371   2.057   1.789   7.735  0.5304  0.7756 -0.2194
14294TIP3   OH264372   1.255   1.180  25.686 -0.2588  0.1879  0.2229
14294TIP3    H164373   1.231   1.266  25.650 -2.3191  0.3261  1.7238
14294TIP3    H264374   1.224   1.117  25.620 -0.9401  0.5354  0.1974
14295TIP3   OH264375   1.036   0.893  86.522 -0.0104 -0.0283 -0.1983
14295TIP3    H164376   1.089   0.972  86.526  0.4545 -0.2829 -1.1433
14295TIP3    H264377   1.047   0.861  86.432  0.5670 -1.6800  0.4237
14296TIP3   OH264378   2.567   0.109 109.160 -0.5372  0.2366  0.2833
14296TIP3    H164379   2.525   0.158 109.231 -0.7608  0.5366 -0.0631
14296TIP3    H264380   2.640   0.164 109.133  1.0211 -0.9238  1.8699
14297TIP3   OH264381   1.842   0.857   2.404  0.3188 -0.1285  0.2801
14297TIP3    H164382   1.875   0.931   2.354 -1.2224 -0.2890 -1.0462
14297TIP3    H264383   1.891   0.781   2.372  1.5327  0.1872  1.2793
14298TIP3   OH264384   1.659   0.856  41.639  0.0428 -0.2100  0.0452
14298TIP3    H164385   1.746   0.893  41.653  0.0277  0.2393 -0.9307
14298TIP3    H264386   1.673   0.782  41.579 -0.4067  0.9010 -1.5003
14299TIP3   OH264387   1.349   2.155  14.824  0.0478  0.2639 -0.4633
14299TIP3    H164388   1.341   2.105  14.905 -1.1869 -1.1111 -1.3867
14299TIP3    H264389   1.348   2.247  14.852 -1.9465 -0.1426  1.0006
14300TIP3   OH264390   0.884   0.049  21.168 -0.2134 -0.6027 -0.8205
14300TIP3    H164391   0.834   0.020  21.244  0.0346  0.6946 -0.1472
14300TIP3    H264392   0.969   0.073  21.203  0.1963 -0.8028 -1.6523
14301TIP3   OH264393   0.295   0.193  16.459  0.5129  0.0922 -0.6843
14301TIP3    H164394   0.212   0.159  16.493  0.7627 -0.5396 -0.7046
14301TIP3    H264395   0.320   0.260  16.523  0.7309 -0.7467  0.1342
14302TIP3   OH264396   1.934   1.034  88.498  0.4704 -0.0676  0.2750
14302TIP3    H164397   1.929   1.013  88.592  1.4691 -0.0156  0.3432
14302TIP3    H264398   1.911   0.952  88.454  3.4405 -1.1767  0.5566
14303TIP3   OH264399   1.536   0.062 103.678 -0.1647  0.3169  0.0330
14303TIP3    H164400   1.575   0.079 103.763  0.0460  0.6601 -0.1343
14303TIP3    H264401   1.465  -0.000 103.696  0.6947 -0.6295  0.2743
14304TIP3   OH264402   1.461   0.175 110.647  0.3608  0.1822  0.1628
14304TIP3    H164403   1.396   0.116 110.685 -0.0105 -0.5104 -1.4661
14304TIP3    H264404   1.523   0.191 110.719  0.1266 -1.6662  0.8508
14305TIP3   OH264405   2.665   2.186 107.669 -0.2517 -0.0540  0.6669
14305TIP3    H164406   2.729   2.244 107.710 -0.7535  1.1609 -0.2070
14305TIP3    H264407   2.698   2.098 107.686  3.1663  0.5022 -1.9966
14306TIP3   OH264408   1.050   1.557  86.045  0.5236 -0.3407 -0.0460
14306TIP3    H164409   0.985   1.508  85.994 -0.6800 -0.2607  1.3557
14306TIP3    H264410   1.128   1.501  86.046 -0.0332 -1.1387 -0.4647
14307TIP3   OH264411   1.330   0.364  22.086 -0.0528  0.1730  0.3107
14307TIP3    H164412   1.261   0.365  22.020 -0.1665 -0.2704  0.4179
14307TIP3    H264413   1.379   0.283  22.068  0.1968  0.2861  0.4800
14308TIP3   OH264414   2.155   0.454   4.691  0.6030  0.1218 -0.1294
14308TIP3    H164415   2.224   0.412   4.638  0.6603  0.0659 -0.0097
14308TIP3    H264416   2.170   0.422   4.780  1.0669  0.9286  0.0893
14309TIP3   OH264417   0.645   1.995   4.261 -0.0280 -0.2404 -0.0578
14309TIP3    H164418   0.629   1.903   4.283 -0.5907 -0.5539 -1.6657
14309TIP3    H264419   0.586   2.043   4.318  2.4294 -0.6039  3.0600
14310TIP3   OH264420   2.081   0.109   0.331  0.2414  0.5221  0.3034
14310TIP3    H164421   2.100   0.146   0.245  1.8963 -0.7885  0.0780
14310TIP3    H264422   2.000   0.059   0.318  0.4361  0.3993 -0.4626
14311TIP3   OH264423   0.753   2.082 109.882  0.0534  0.0239  0.3077
14311TIP3    H164424   0.702   2.050 109.808 -0.1881  2.6103 -0.7577
14311TIP3    H264425   0.692   2.082 109.956 -0.5898  0.1860 -0.2157
14312TIP3   OH264426   2.165   2.164  16.354 -0.4697  0.7066 -0.2165
14312TIP3    H164427   2.206   2.144  16.438  1.1696 -0.1069 -1.1654
14312TIP3    H264428   2.228   2.220  16.310  0.3825 -1.7150 -2.2904
14313TIP3   OH264429   1.414   0.679  64.177 -0.1509 -1.0333 -0.0842
14313TIP3    H164430   1.472   0.603  64.182 -1.2161 -1.9428 -1.0167
14313TIP3    H264431   1.326   0.642  64.164 -0.7365  0.3489 -0.2787
14314TIP3   OH264432   2.573   1.082  38.071 -0.4909 -0.1069  0.5817
14314TIP3    H164433   2.512   1.152  38.046 -0.2614 -0.8829 -2.4331
14314TIP3    H264434   2.649   1.094  38.013  0.1781 -1.9932  1.0090
14315TIP3   OH264435   1.785   2.662   9.887  0.0028  0.3201 -0.2204
14315TIP3    H164436   1.759   2.706   9.968  0.0937 -0.0894  0.0355
14315TIP3    H264437   1.815   2.733   9.829 -1.7437  0.8253 -0.5644
14316TIP3   OH264438   0.442   1.043  79.460  0.2899 -0.6340 -0.6185
14316TIP3    H164439   0.520   1.097  79.445 -1.5752  2.2949 -0.5205
14316TIP3    H264440   0.428   1.046  79.554 -0.4556 -0.3633 -0.7364
14317TIP3   OH264441   2.299   0.772  31.801  0.4276 -0.1368  0.0703
14317TIP3    H164442   2.265   0.686  31.823 -0.6969  0.4619  0.8078
14317TIP3    H264443   2.306   0.817  31.886  0.1996  0.7639 -0.3745
14318TIP3   OH264444   0.217   2.079  81.908  0.1970 -0.0664  0.2912
14318TIP3    H164445   0.188   2.071  81.817  1.6251  2.5827 -0.5010
14318TIP3    H264446   0.276   2.005  81.921  0.3646 -0.2083 -1.1088
14319TIP3   OH264447   2.564   1.283  17.034 -0.4601 -0.1261  0.5641
14319TIP3    H164448   2.516   1.201  17.049 -0.3631 -0.0190  1.5528
14319TIP3    H264449   2.585   1.314  17.122  0.5864  0.3314  0.1653
14320TIP3   OH264450   2.564   1.073  86.247  0.2091 -0.0764  0.4195
14320TIP3    H164451   2.558   1.107  86.337 -0.9045  2.3837 -0.4776
14320TIP3    H264452   2.475   1.046  86.226  0.6510 -1.5033  0.3417
14321TIP3   OH264453   2.386   1.128  84.986  0.0930  0.1300  0.2148
14321TIP3    H164454   2.302   1.157  85.021  0.1339  1.4483 -0.7112
14321TIP3    H264455   2.422   1.205  84.943  1.5976 -0.5276  0.2408
14322TIP3   OH264456   0.029   2.620  10.856 -0.1115  0.0909  0.0950
14322TIP3    H164457   0.075   2.539  10.834  1.4081  1.1107 -0.6390
14322TIP3    H264458  -0.062   2.593  10.867  0.1884 -1.5608 -1.0422
14323TIP3   OH264459   2.491   2.615  16.889 -0.1903  0.0015 -0.1175
14323TIP3    H164460   2.464   2.706  16.894  0.0271  0.0297  0.8554
14323TIP3    H264461   2.587   2.619  16.886 -0.1430 -0.2088  0.8471
14324TIP3   OH264462   1.843   0.739 105.601  0.2624 -0.5078 -0.0694
14324TIP3    H164463   1.786   0.804 105.643  0.1240 -0.2839 -0.5948
14324TIP3    H264464   1.792   0.658 105.602  0.3917 -0.5905  0.4908
14325TIP3   OH264465   0.456   0.753  19.722 -0.4902 -0.1029 -0.0170
14325TIP3    H164466   0.397   0.679  19.705 -1.2607  0.7798 -1.3695
14325TIP3    H264467   0.525   0.744  19.657 -0.7361  0.5027 -0.3681
14326TIP3   OH264468   0.462   2.615  96.536  0.0566  0.2024 -0.1909
14326TIP3    H164469   0.510   2.608  96.454  0.9100 -0.5481  0.3563
14326TIP3    H264470   0.442   2.708  96.545  1.1574  0.4801 -0.5629
14327TIP3   OH264471   2.439   1.662  87.788 -0.1547 -0.0627  0.2476
14327TIP3    H164472   2.525   1.626  87.768 -0.6284 -1.8394  1.2040
14327TIP3    H264473   2.457   1.750  87.822  1.3467 -0.6902  1.1454
14328TIP3   OH264474   1.072   2.605  76.702 -0.3350  0.7181  0.8023
14328TIP3    H164475   1.153   2.556  76.718 -1.2518 -1.1982 -0.1118
14328TIP3    H264476   1.012   2.575  76.770 -1.3701 -0.6017 -0.6275
14329TIP3   OH264477   0.165   2.045  32.086  0.1214 -0.1044  0.1493
14329TIP3    H164478   0.257   2.051  32.110  0.2701 -2.4573  0.4126
14329TIP3    H264479   0.154   1.956  32.053 -1.9263  0.3271 -0.4919
14330TIP3   OH264480   0.724   1.241  22.299 -0.3913  0.2447  0.1967
14330TIP3    H164481   0.632   1.219  22.288 -0.4915  1.0160 -0.7020
14330TIP3    H264482   0.766   1.209  22.219  0.3001 -0.9079  0.9881
14331TIP3   OH264483   2.601   0.403  96.480  0.5370  0.3521 -0.0973
14331TIP3    H164484   2.517   0.442  96.456  1.0954  1.2354 -0.6693
14331TIP3    H264485   2.599   0.399  96.575 -0.2788  0.0785 -0.1187
14332TIP3   OH264486   0.866   2.206  29.842 -0.3072 -0.2018 -0.1017
14332TIP3    H164487   0.876   2.118  29.807  0.0894 -0.4612  0.6469
14332TIP3    H264488   0.942   2.254  29.810 -1.9745  0.7645 -3.0242
14333TIP3   OH264489   1.791   2.299 109.915  0.2677  0.2638  0.1267
14333TIP3    H164490   1.805   2.221 109.861  0.6903  0.1464  0.4010
14333TIP3    H264491   1.748   2.361 109.857  1.2910  0.3703 -0.5324
14334TIP3   OH264492   0.636   0.286 102.173 -0.4285  0.4430 -0.3755
14334TIP3    H164493   0.640   0.375 102.139 -0.9348  0.9703  0.8523
14334TIP3    H264494   0.625   0.298 102.268  1.5240 -0.9322  0.0924
14335TIP3   OH264495   1.422   1.307  18.183  0.2723  0.5657 -0.0446
14335TIP3    H164496   1.364   1.248  18.231  1.0493  0.2741  0.5651
14335TIP3    H264497   1.363   1.363  18.132 -0.4778 -0.7442 -0.6695
14336TIP3   OH264498   2.544   0.554  40.099  0.0681  0.3155  0.4256
14336TIP3    H164499   2.519   0.645  40.118  0.5857  0.5004  0.2321
14336TIP3    H264500   2.612   0.534  40.163 -0.8978 -0.3548  1.2771
14337TIP3   OH264501   1.547   0.258  35.810 -0.0187 -0.0602 -0.4249
14337TIP3    H164502   1.505   0.220  35.887 -0.2428 -0.2375 -0.6375
14337TIP3    H264503   1.615   0.194  35.787  0.9878  0.6535  0.4579
14338TIP3   OH264504   0.968   0.855 101.811  0.2481 -0.0446 -0.3018
14338TIP3    H164505   1.059   0.884 101.812  0.3463 -0.3271  1.0729
14338TIP3    H264506   0.920   0.924 101.855  0.0210 -0.5512  0.2565
14339TIP3   OH264507   1.505   0.233 100.933 -0.0098 -0.1383  0.1029
14339TIP3    H164508   1.513   0.145 100.896  0.1206 -0.1767  0.2224
14339TIP3    H264509   1.536   0.291 100.864  1.4755 -0.2940  0.5896
14340TIP3   OH264510   2.225   1.863   1.779  0.5904 -0.4354  0.1367
14340TIP3    H164511   2.320   1.866   1.784  0.7110 -0.8258 -1.4632
14340TIP3    H264512   2.196   1.882   1.868  2.0832  2.7407  0.0864
14341TIP3   OH264513   0.015   0.767 110.347 -0.2178  0.1372  0.1180
14341TIP3    H164514   0.053   0.753 110.260  0.5172 -1.0594  0.6038
14341TIP3    H264515   0.025   0.861 110.363  0.9871  0.1378 -0.4941
14342TIP3   OH264516   0.482   2.577  37.538  0.2630 -0.2818  0.8767
14342TIP3    H164517   0.409   2.516  37.543  0.0713 -0.6991 -3.3893
14342TIP3    H264518   0.446   2.662  37.565 -1.6102 -0.6500 -0.3412
14343TIP3   OH264519   2.214   1.511   1.544  0.0703  0.3520  0.1475
14343TIP3    H164520   2.228   1.440   1.607  0.0339 -2.1256 -2.4107
14343TIP3    H264521   2.297   1.558   1.541  0.9863 -1.2005  0.1286
14344TIP3   OH264522   2.041   1.380  84.844  0.5059 -0.0364 -0.1622
14344TIP3    H164523   2.061   1.458  84.896  0.4594  0.5270 -0.9612
14344TIP3    H264524   1.953   1.355  84.873  0.1972  0.6811 -0.4491
14345TIP3   OH264525   1.895   0.612  89.131 -0.3139  0.3064  0.1082
14345TIP3    H164526   1.885   0.598  89.225  1.0192  0.4369  0.2862
14345TIP3    H264527   1.819   0.569  89.091  0.6847 -2.4370  1.0121
14346TIP3   OH264528   2.484   1.398  25.956  0.8971  0.2241 -0.1827
14346TIP3    H164529   2.485   1.304  25.973 -1.7179  0.5191  2.7056
14346TIP3    H264530   2.410   1.412  25.897  0.0155  0.5417  0.9401
14347TIP3   OH264531   0.010   2.134  74.732 -0.1676 -0.1810  0.0011
14347TIP3    H164532   0.105   2.143  74.728 -0.2679  1.2309  0.3878
14347TIP3    H264533  -0.008   2.104  74.821 -0.1130 -0.2347 -0.0056
14348TIP3   OH264534   1.742   0.938 101.746 -0.0066  0.2986  0.1331
14348TIP3    H164535   1.711   0.958 101.835  0.6353  0.6274  0.2896
14348TIP3    H264536   1.666   0.948 101.690 -0.4708 -0.1299  0.6798
14349TIP3   OH264537   1.854   1.995  11.326  0.2862 -0.0118  0.0707
14349TIP3    H164538   1.818   2.003  11.238  3.2136  0.8697 -1.1613
14349TIP3    H264539   1.813   1.916  11.361 -0.8840 -0.4615 -2.1089
14350TIP3   OH264540   0.592   2.484  80.801  0.4225  0.4917 -0.3131
14350TIP3    H164541   0.510   2.480  80.752 -0.2787  3.0821  0.4662
14350TIP3    H264542   0.661   2.473  80.735 -0.5317 -0.0957 -1.2295
14351TIP3   OH264543   2.282   1.981  35.536  0.0287  0.3564 -0.1696
14351TIP3    H164544   2.364   1.946  35.500 -1.0261 -2.7006  0.1383
14351TIP3    H264545   2.307   2.018  35.621  1.2629  0.5771 -0.6103
14352TIP3   OH264546   2.682   0.289  37.239  0.1617  0.1178 -0.0481
14352TIP3    H164547   2.657   0.198  37.222 -1.2663  0.1809  1.4428
14352TIP3    H264548   2.648   0.307  37.327 -0.0948  2.2621 -0.5340
14353TIP3   OH264549   1.411   1.874  83.455 -0.5435  0.0063  0.3337
14353TIP3    H164550   1.348   1.887  83.384 -0.0485 -0.0302 -0.1229
14353TIP3    H264551   1.377   1.927  83.527 -1.2007 -0.1752  0.1670
14354TIP3   OH264552   1.573   0.346  16.779 -0.0666 -0.5807  0.1015
14354TIP3    H164553   1.632   0.279  16.744  1.0520  0.0971  0.6379
14354TIP3    H264554   1.527   0.302  16.851 -0.1539 -1.0912 -0.2593
14355TIP3   OH264555   0.446   1.702  25.950  0.1922  0.0839 -0.1098
14355TIP3    H164556   0.372   1.746  25.994  0.4374  1.0717 -0.6508
14355TIP3    H264557   0.484   1.647  26.018  1.0312  2.1523  1.1992
14356TIP3   OH264558   2.312   0.365  15.385 -0.4361  0.5659 -0.6685
14356TIP3    H164559   2.232   0.415  15.369 -1.0304  0.0682  0.5847
14356TIP3    H264560   2.282   0.275  15.400  0.2143  0.5688  0.9242
14357TIP3   OH264561   0.884   0.244  28.842 -0.0491 -0.3185  0.2033
14357TIP3    H164562   0.959   0.289  28.803  0.1900 -0.2124  0.7767
14357TIP3    H264563   0.902   0.244  28.936 -0.5605 -0.6760  0.3064
14358TIP3   OH264564   0.984   0.173   8.929 -0.5812  0.3575  0.0398
14358TIP3    H164565   0.921   0.223   8.878 -1.4509 -0.1596  0.5628
14358TIP3    H264566   0.930   0.126   8.994  0.4245  0.5385  1.0375
14359TIP3   OH264567   1.802   1.863  28.122 -0.4510  0.1510 -0.0281
14359TIP3    H164568   1.769   1.779  28.092 -0.2058  0.5797 -1.5533
14359TIP3    H264569   1.733   1.926  28.098  0.0794  0.6074 -0.3847
14360TIP3   OH264570   1.179   2.043  25.472  0.1430  0.0812  0.1274
14360TIP3    H164571   1.120   1.970  25.485  1.4056 -0.9123  0.4909
14360TIP3    H264572   1.249   2.030  25.536 -0.0158  2.0755  0.7856
14361TIP3   OH264573   1.160   2.380   6.083  0.6355  0.2739  0.2091
14361TIP3    H164574   1.138   2.288   6.097  0.2133  0.5231  1.2819
14361TIP3    H264575   1.186   2.385   5.991 -0.0573 -0.7714 -0.0593
14362TIP3   OH264576   0.927   1.611   9.460 -0.2787  0.1310  0.1114
14362TIP3    H164577   0.978   1.662   9.522 -0.6695 -2.0759  2.4434
14362TIP3    H264578   0.992   1.568   9.404  0.2555  0.0020  0.8242
14363TIP3   OH264579   2.261   2.681  98.251  0.3922  0.0296 -0.0199
14363TIP3    H164580   2.291   2.767  98.222 -0.1450  0.0460 -0.5310
14363TIP3    H264581   2.196   2.655  98.186  0.7112 -0.8633  0.0072
14364TIP3   OH264582   1.004   1.912  11.619 -0.1072 -0.3166 -0.0562
14364TIP3    H164583   1.019   2.002  11.590 -3.1246  0.2847 -0.0347
14364TIP3    H264584   1.066   1.899  11.691  0.1666  1.8503  0.1466
14365TIP3   OH264585   2.628   2.624  15.109 -0.4333 -0.0218  0.6899
14365TIP3    H164586   2.547   2.674  15.100  0.1050  0.6397 -0.9252
14365TIP3    H264587   2.617   2.549  15.050  0.6105  0.7910 -0.6094
14366TIP3   OH264588   0.150   1.146  97.740  0.0508  0.1504 -0.3267
14366TIP3    H164589   0.189   1.198  97.669  0.0381  1.8017  0.8149
14366TIP3    H264590   0.108   1.073  97.695  0.0157  1.1530 -2.0332
14367TIP3   OH264591   1.041   2.270 102.753  0.2704 -0.2619  0.0617
14367TIP3    H164592   1.069   2.361 102.748 -0.0060 -0.2357 -1.9914
14367TIP3    H264593   1.073   2.239 102.837  1.1386  1.4811  0.4085
14368TIP3   OH264594   0.745   1.872  88.889 -0.2309 -0.6648 -0.4026
14368TIP3    H164595   0.741   1.911  88.801  2.7698  0.3425 -0.2168
14368TIP3    H264596   0.726   1.945  88.948  0.2042 -0.7274 -0.1759
14369TIP3   OH264597   1.670   1.173  18.689 -0.2718  0.2307  0.3977
14369TIP3    H164598   1.645   1.205  18.776  2.3002 -0.4630  1.4880
14369TIP3    H264599   1.636   1.084  18.686 -0.3603  0.2534  0.6794
14370TIP3   OH264600   0.148   0.129 110.732  0.0692  0.2875  0.0013
14370TIP3    H164601   0.139   0.224 110.730  2.1748  0.5546  0.7695
14370TIP3    H264602   0.211   0.109 110.663  1.5573 -0.2465  1.4574
14371TIP3   OH264603   2.378   1.452 100.266  0.5609  0.6510 -0.2607
14371TIP3    H164604   2.340   1.525 100.218  0.6169  0.6030 -0.3829
14371TIP3    H264605   2.376   1.479 100.358 -0.8439  0.1766 -0.1402
14372TIP3   OH264606   1.033   0.747   7.407 -0.3645  0.0637  0.2091
14372TIP3    H164607   1.101   0.803   7.445 -0.5071  0.7451 -0.5125
14372TIP3    H264608   1.075   0.707   7.331 -0.5868  0.0196  0.1092
14373TIP3   OH264609   1.924   0.878  88.175  0.7276  0.6682  0.1821
14373TIP3    H164610   1.914   0.891  88.080  0.7689 -1.4197 -0.1504
14373TIP3    H264611   1.846   0.917  88.213  0.4301  1.0220 -0.7659
14374TIP3   OH264612   1.558   0.519  11.301 -0.0251  0.4282 -0.0375
14374TIP3    H164613   1.642   0.503  11.344  0.0173 -0.8351 -0.5383
14374TIP3    H264614   1.562   0.467  11.221 -1.8161 -0.8314  0.6264
14375TIP3   OH264615   2.462   2.084  48.728  0.1987  0.3714  0.1777
14375TIP3    H164616   2.387   2.138  48.702  0.6286  1.2936  0.8205
14375TIP3    H264617   2.491   2.044  48.646 -1.9706 -1.3059  0.1596
14376TIP3   OH264618   1.544   0.779  81.000  0.3558 -0.2943 -0.2059
14376TIP3    H164619   1.454   0.807  80.986  0.2481 -0.8095 -0.5853
14376TIP3    H264620   1.552   0.699  80.949  1.0386 -0.2330 -0.2079
14377TIP3   OH264621   0.688   1.614  87.827  0.1574  0.1174 -0.2151
14377TIP3    H164622   0.626   1.545  87.850  1.5215 -0.8574  0.6775
14377TIP3    H264623   0.633   1.688  87.801 -1.3835 -0.4420  1.2949
14378TIP3   OH264624   0.811   1.064  86.069 -0.1251 -0.1731  0.0997
14378TIP3    H164625   0.743   1.128  86.051  1.4882  1.8159  0.6764
14378TIP3    H264626   0.772   1.004  86.132 -1.0910  1.4351  1.1060
14379TIP3   OH264627   2.601   2.220  95.473 -0.2067  0.0556  0.0621
14379TIP3    H164628   2.616   2.126  95.482  1.2118  0.2922  0.3956
14379TIP3    H264629   2.512   2.233  95.506 -0.8390 -1.3038 -0.9961
14380TIP3   OH264630   2.433   2.395  96.093 -0.0774 -0.0618  0.2711
14380TIP3    H164631   2.390   2.452  96.157 -0.0603  0.1095  0.1278
14380TIP3    H264632   2.526   2.414  96.103  0.1187 -1.5469  1.6634
14381TIP3   OH264633   2.491   1.006 107.944 -0.0722  0.4122 -0.1345
14381TIP3    H164634   2.479   0.978 108.035 -0.4220 -0.5412 -0.4610
14381TIP3    H264635   2.567   0.957 107.914  0.1994  0.9186 -0.2891
14382TIP3   OH264636   1.247   2.417  17.659 -0.3459 -0.1003 -0.3160
14382TIP3    H164637   1.263   2.504  17.623 -0.0245  0.1410  0.3866
14382TIP3    H264638   1.189   2.432  17.733  0.2776 -0.4001  0.2390
14383TIP3   OH264639   2.642   0.231  30.881  0.3637 -0.3866  0.2253
14383TIP3    H164640   2.609   0.275  30.802 -0.8874 -1.1792  0.2753
14383TIP3    H264641   2.582   0.259  30.950  1.4275  0.2659  0.9162
14384TIP3   OH264642   0.691   2.459   0.232 -0.2188  0.1410  0.4084
14384TIP3    H164643   0.735   2.516   0.170 -0.7366  0.1879  0.0721
14384TIP3    H264644   0.619   2.421   0.182 -1.0842  0.7259  1.1613
14385TIP3   OH264645   1.104   0.083  17.506 -0.3714  0.9144  0.5100
14385TIP3    H164646   1.188   0.037  17.500 -1.4396 -1.1418  0.5866
14385TIP3    H264647   1.089   0.117  17.417  0.4779  1.1870  0.4670
14386TIP3   OH264648   1.297   1.901  99.234 -0.4341 -0.1178  0.5711
14386TIP3    H164649   1.317   1.891  99.140  0.3399  0.9035  0.5989
14386TIP3    H264650   1.209   1.938  99.236 -0.1539  0.6097  0.1921
14387TIP3   OH264651   2.611   0.277   7.799  0.4970 -0.2802  0.3663
14387TIP3    H164652   2.560   0.237   7.870  1.7787 -2.3521  0.1980
14387TIP3    H264653   2.702   0.259   7.822  1.2275  2.8019  0.3436
14388TIP3   OH264654   0.501   2.391  52.580  0.9226  0.3224  0.1701
14388TIP3    H164655   0.560   2.369  52.508 -0.4821 -0.3442 -0.8242
14388TIP3    H264656   0.539   2.348  52.657  1.7953  0.0085 -0.4290
14389TIP3   OH264657   1.815   0.154  79.607  0.5083 -0.6307  0.0147
14389TIP3    H164658   1.768   0.217  79.552 -0.9775 -0.2858  1.6040
14389TIP3    H264659   1.813   0.072  79.556 -1.7958 -0.6110 -0.0124
14390TIP3   OH264660   1.360   1.330  81.071 -0.6226 -0.1291 -0.5728
14390TIP3    H164661   1.317   1.368  81.147 -0.5320 -0.2197 -0.4760
14390TIP3    H264662   1.399   1.249  81.102 -2.1282 -1.0949 -1.1405
14391TIP3   OH264663   0.516   1.264  96.329 -0.7225 -0.3644 -0.3954
14391TIP3    H164664   0.518   1.325  96.255 -1.5978 -0.4103 -0.4703
14391TIP3    H264665   0.531   1.319  96.406  1.3483 -0.4751 -0.6731
14392TIP3   OH264666   2.559   1.698  10.789  0.0720  0.2371 -0.3326
14392TIP3    H164667   2.549   1.611  10.751  0.6078 -0.0443  0.1506
14392TIP3    H264668   2.473   1.739  10.779 -0.1981 -0.3695 -0.5145
14393TIP3   OH264669   2.389   0.128   1.963 -0.0271 -0.5408  0.0941
14393TIP3    H164670   2.299   0.097   1.948 -0.2680 -0.1030  0.5874
14393TIP3    H264671   2.378   0.212   2.007  0.6298 -0.3676 -0.0684
14394TIP3   OH264672   0.555   1.454  67.516 -0.0296 -0.3338  0.2078
14394TIP3    H164673   0.516   1.471  67.601  1.4019 -1.1903  1.0868
14394TIP3    H264674   0.547   1.359  67.505  2.6016 -0.7402  0.9312
14395TIP3   OH264675   1.391   2.256  90.078 -0.1224  0.0938 -0.2241
14395TIP3    H164676   1.433   2.193  90.019 -0.2411 -1.0346  0.8445
14395TIP3    H264677   1.406   2.220  90.166 -0.7157  1.2549  0.3778
14396TIP3   OH264678   0.159   0.191  93.105  0.1263  0.2599  0.5705
14396TIP3    H164679   0.237   0.228  93.065 -0.0848  2.7467  2.2273
14396TIP3    H264680   0.192   0.129  93.170  0.5636 -0.8996 -0.6994
14397TIP3   OH264681   2.351   1.596  12.549  0.4219  0.0765 -0.2582
14397TIP3    H164682   2.269   1.625  12.508  1.1355  0.1855 -1.6752
14397TIP3    H264683   2.419   1.646  12.504  1.2686  0.0914  0.9947
14398TIP3   OH264684   1.245   1.271  89.705  0.1458 -0.4151 -0.1633
14398TIP3    H164685   1.167   1.229  89.740 -0.5785  0.8010 -0.2484
14398TIP3    H264686   1.223   1.292  89.614  1.3695 -1.9576 -0.8525
14399TIP3   OH264687   1.875   2.047  79.055 -0.2447  0.1892  0.3178
14399TIP3    H164688   1.968   2.071  79.046  0.0254 -0.2771  1.5997
14399TIP3    H264689   1.859   1.986  78.983  0.1238  1.1356 -0.5892
14400TIP3   OH264690   0.818   2.666  10.362  0.3097  0.2237 -0.2634
14400TIP3    H164691   0.802   2.747  10.314 -0.8305  0.1599 -0.0097
14400TIP3    H264692   0.773   2.599  10.311  0.7700 -0.1669 -0.1652
14401TIP3   OH264693   1.826   2.092  20.914 -0.0829  0.0925 -0.1975
14401TIP3    H164694   1.883   2.148  20.862  0.1486  1.7921  1.7483
14401TIP3    H264695   1.739   2.132  20.906 -0.6785 -1.3942 -1.6372
14402TIP3   OH264696   2.517   0.868  74.997  0.6351  0.4032 -0.6836
14402TIP3    H164697   2.604   0.867  74.958  0.5541 -1.0525 -0.8739
14402TIP3    H264698   2.477   0.785  74.971 -0.5105  0.6824  0.0731
14403TIP3   OH264699   1.035   0.755  31.339  0.4415  0.0218 -0.2789
14403TIP3    H164700   1.059   0.819  31.406 -0.9093 -1.7960  2.0391
14403TIP3    H264701   1.089   0.679  31.357 -0.7117 -0.8943 -0.5618
14404TIP3   OH264702   2.096   0.225   8.114 -0.0892  0.0070  0.3652
14404TIP3    H164703   2.184   0.262   8.107  0.1465 -0.6184 -0.0655
14404TIP3    H264704   2.093   0.158   8.046 -0.9539  0.1286  0.2707
14405TIP3   OH264705   2.224   0.879  14.342  0.1046  0.1494  0.1243
14405TIP3    H164706   2.205   0.788  14.319  1.1365  0.3969 -2.0365
14405TIP3    H264707   2.234   0.879  14.437 -1.7150 -1.6151  0.3839
14406TIP3   OH264708   0.424   1.972 109.013 -0.3501 -0.3024 -0.4170
14406TIP3    H164709   0.394   2.042 108.955 -1.3037 -0.2936  0.0663
14406TIP3    H264710   0.512   1.951 108.982  0.5011  1.9983  0.2509
14407TIP3   OH264711   1.137   1.532  28.999  0.1507  0.0309  0.1508
14407TIP3    H164712   1.066   1.492  28.950  2.2281 -0.4942 -2.6822
14407TIP3    H264713   1.145   1.479  29.079 -1.4706 -0.9292 -0.2921
14408TIP3   OH264714   1.396   0.741 106.754  0.0654 -0.1977  0.0748
14408TIP3    H164715   1.465   0.797 106.791  0.5283 -0.3364 -0.5551
14408TIP3    H264716   1.420   0.653 106.781 -0.7580 -0.0830  1.2081
14409TIP3   OH264717   1.867   2.370  87.801  0.1931 -0.2874 -0.6498
14409TIP3    H164718   1.952   2.387  87.842 -0.2680  0.3146  0.0755
14409TIP3    H264719   1.846   2.452  87.755 -1.0315  0.4320  1.0633
14410TIP3   OH264720   2.378   2.093 111.727  0.1792 -0.0465  0.3183
14410TIP3    H164721   2.426   2.151 111.786 -0.4229 -1.2162  2.0307
14410TIP3    H264722   2.434   2.017 111.716 -0.2243 -0.3526  0.3465
14411TIP3   OH264723   1.688   1.196  21.688 -0.5854 -0.0322  0.2609
14411TIP3    H164724   1.681   1.117  21.635 -1.5191 -0.2426  0.6790
14411TIP3    H264725   1.782   1.209  21.699 -0.4139 -0.8684 -0.1177
14412TIP3   OH264726   1.635   2.214  15.505  0.5299 -0.5910  0.0685
14412TIP3    H164727   1.622   2.157  15.581 -0.0592 -1.0744 -0.3911
14412TIP3    H264728   1.563   2.277  15.510  1.8423  0.9089  1.2530
14413TIP3   OH264729   1.473   2.167  18.453 -0.5777  0.0727 -0.0571
14413TIP3    H164730   1.439   2.152  18.365 -1.0201  0.7370 -0.0121
14413TIP3    H264731   1.402   2.214  18.498 -0.4473 -0.4677  0.7239
14414TIP3   OH264732   0.850   1.979   6.463 -0.4958 -0.2498  0.6615
14414TIP3    H164733   0.908   1.965   6.538 -1.0793 -0.3201  1.1092
14414TIP3    H264734   0.905   2.019   6.396 -0.1280  0.4564  1.3765
14415TIP3   OH264735   0.804   0.420   6.284 -0.6034  0.2224  0.8627
14415TIP3    H164736   0.836   0.386   6.201  0.9019  0.7992  1.1807
14415TIP3    H264737   0.709   0.421   6.274 -0.5360 -1.1750 -0.2624
14416TIP3   OH264738   1.407   1.560  97.636 -0.1446  0.5176 -0.7315
14416TIP3    H164739   1.430   1.467  97.640 -0.4937  0.4600  0.0823
14416TIP3    H264740   1.347   1.566  97.562  1.0658  0.3671 -1.7746
14417TIP3   OH264741   2.223   0.640  10.702 -0.2075 -0.1448 -1.0857
14417TIP3    H164742   2.260   0.581  10.636 -1.3586  0.0359 -1.9041
14417TIP3    H264743   2.229   0.727  10.663 -1.9084 -0.1647 -1.4424
14418TIP3   OH264744   1.165   2.401   0.335 -0.1077 -0.1617 -0.4791
14418TIP3    H164745   1.107   2.422   0.262  0.1616  0.2104 -0.5937
14418TIP3    H264746   1.107   2.392   0.411 -0.1591  2.5389 -0.0860
14419TIP3   OH264747   1.354   0.501 103.265  0.2242  0.6065  0.3770
14419TIP3    H164748   1.380   0.413 103.239 -1.1125  0.0617  0.7774
14419TIP3    H264749   1.436   0.549 103.274  1.1855 -1.2456  2.5075
14420TIP3   OH264750   2.548   0.754  11.893  0.1571 -0.0004  0.4282
14420TIP3    H164751   2.537   0.718  11.805 -0.7583 -1.2704  1.0214
14420TIP3    H264752   2.622   0.814  11.885 -1.0394  1.3294 -1.6034
14421TIP3   OH264753   2.256   1.705 105.272  0.0384 -0.1826 -0.6753
14421TIP3    H164754   2.269   1.702 105.367 -1.5282  2.3918 -0.2813
14421TIP3    H264755   2.345   1.710 105.236  0.6450 -0.5782  0.6883
14422TIP3   OH264756   0.869   1.984  87.168  0.3190  0.2697 -0.3605
14422TIP3    H164757   0.857   2.070  87.127  0.7495 -0.1959 -1.5351
14422TIP3    H264758   0.783   1.942  87.162  0.4146  0.1424 -0.9921
14423TIP3   OH264759   1.369   0.831 102.158 -0.0986  0.0778  0.0581
14423TIP3    H164760   1.293   0.775 102.142  0.5511 -0.7009 -0.3960
14423TIP3    H264761   1.342   0.917 102.126 -0.1842 -0.5842 -1.7931
14424TIP3   OH264762   0.192   1.879  93.322  0.0126  0.1481 -0.1064
14424TIP3    H164763   0.179   1.902  93.230 -0.0691 -3.6316 -1.2215
14424TIP3    H264764   0.118   1.920  93.368  0.1320  2.2230 -1.6558
14425TIP3   OH264765   0.262   2.397  28.745 -0.2521  0.1948 -0.0459
14425TIP3    H164766   0.272   2.302  28.747  1.7274  0.3880  1.0114
14425TIP3    H264767   0.304   2.427  28.825 -3.1029  1.8160  0.9823
14426TIP3   OH264768   1.943   2.331   5.636  0.3271 -0.4605 -0.2786
14426TIP3    H164769   2.035   2.357   5.640  0.5294 -1.3296  1.8960
14426TIP3    H264770   1.943   2.238   5.661 -1.1432 -0.5069 -0.3508
14427TIP3   OH264771   1.473   1.396  11.782 -0.3527  0.0081  0.3166
14427TIP3    H164772   1.459   1.327  11.717 -2.3193  1.1729 -0.5910
14427TIP3    H264773   1.514   1.467  11.733  1.9364 -0.5190  1.3081
14428TIP3   OH264774   1.244   1.336  29.201  0.4795 -0.0595  0.0200
14428TIP3    H164775   1.313   1.359  29.264 -0.2334  0.8736  0.4807
14428TIP3    H264776   1.179   1.290  29.252 -0.8724  2.0965  0.3749
14429TIP3   OH264777   1.605   2.420  29.608  0.2504 -0.4933  0.1316
14429TIP3    H164778   1.544   2.470  29.555  1.0505 -0.5524 -0.8736
14429TIP3    H264779   1.655   2.368  29.545  1.1763 -0.6288  0.9458
14430TIP3   OH264780   1.078   2.171  79.329  0.1764  0.4937  0.4122
14430TIP3    H164781   1.113   2.083  79.343  1.4471  0.8342 -0.5029
14430TIP3    H264782   1.130   2.227  79.385  1.1077  0.9977 -0.9173
14431TIP3   OH264783   0.436   2.518   4.504 -0.2807 -0.0674 -0.5683
14431TIP3    H164784   0.344   2.541   4.496 -0.4851 -0.3701  0.7404
14431TIP3    H264785   0.483   2.587   4.457 -1.1193  0.5643 -0.4857
14432TIP3   OH264786   0.922   1.742  53.298  0.2096  0.4363 -0.8091
14432TIP3    H164787   0.920   1.648  53.278 -1.0078  0.6169 -1.6456
14432TIP3    H264788   1.006   1.772  53.262  0.7049 -0.3618 -0.3433
14433TIP3   OH264789   0.281   1.551  20.312 -0.1790  0.3304  0.8723
14433TIP3    H164790   0.375   1.546  20.330 -0.1644  0.3845  0.8119
14433TIP3    H264791   0.247   1.611  20.379 -0.1608  0.3583  0.8560
14434TIP3   OH264792   1.829   0.845  29.413 -0.3170  0.2742  0.0513
14434TIP3    H164793   1.789   0.904  29.477 -2.4526 -0.4154 -0.5735
14434TIP3    H264794   1.885   0.787  29.466 -0.1549  1.2398  0.9669
14435TIP3   OH264795   0.160   1.717  84.576 -0.4948 -0.1650  0.2068
14435TIP3    H164796   0.185   1.783  84.511 -2.5038  1.4661  0.9749
14435TIP3    H264797   0.095   1.761  84.631 -5.1727 -3.9170 -1.6813
14436TIP3   OH264798   2.639   0.187 108.113 -0.3096  0.3350 -0.2768
14436TIP3    H164799   2.734   0.176 108.110 -0.3405  0.1981 -0.9353
14436TIP3    H264800   2.606   0.123 108.050 -0.7887  0.9276 -0.6418
14437TIP3   OH264801   1.557   0.507 106.447 -0.0846 -0.4464  0.2912
14437TIP3    H164802   1.588   0.488 106.535  0.3244 -0.4313  0.1498
14437TIP3    H264803   1.509   0.590 106.456  1.4439  0.4809  0.1840
14438TIP3   OH264804   0.524   0.527  32.662 -0.4064  0.0620 -0.5188
14438TIP3    H164805   0.461   0.598  32.653  0.2970  0.6370 -0.9940
14438TIP3    H264806   0.605   0.561  32.624  0.8327  0.1313  1.9593
14439TIP3   OH264807   1.143   0.382  97.101  0.1835  0.2056 -0.2186
14439TIP3    H164808   1.087   0.305  97.091 -1.6230  1.1261  1.9212
14439TIP3    H264809   1.197   0.362  97.178 -0.6736  1.2273  0.6798
14440TIP3   OH264810   2.051   1.919  94.095  0.5338  0.0701  0.4126
14440TIP3    H164811   2.003   1.905  94.014  1.4370  0.9532 -0.3003
14440TIP3    H264812   2.064   2.014  94.099  0.6252  0.0290  1.5260
14441TIP3   OH264813   1.138   1.492  82.781 -0.0434 -0.5475 -0.5787
14441TIP3    H164814   1.150   1.408  82.736  1.3330 -0.7684  0.1487
14441TIP3    H264815   1.064   1.476  82.841 -1.4891 -0.4322 -2.2257
14442TIP3   OH264816   2.136   2.172  13.169  0.0292 -0.0412  0.1892
14442TIP3    H164817   2.135   2.098  13.229  0.0134  0.6724  1.1064
14442TIP3    H264818   2.047   2.207  13.175 -0.0860 -0.2037 -0.5645
14443TIP3   OH264819   0.630   2.615  27.747 -0.3247  0.5463  0.2708
14443TIP3    H164820   0.696   2.622  27.815 -0.3855  1.9164  0.2187
14443TIP3    H264821   0.606   2.706  27.727 -0.7616  0.1594 -1.1248
14444TIP3   OH264822   0.162   0.423  27.798 -0.0629 -0.4603  0.2786
14444TIP3    H164823   0.233   0.439  27.860  1.7706 -1.0189 -1.5331
14444TIP3    H264824   0.166   0.498  27.738  0.3540 -1.4673 -0.9946
14445TIP3   OH264825   0.358   1.344   8.373  0.1738 -0.1300  0.2902
14445TIP3    H164826   0.400   1.400   8.438 -0.1016 -0.0192  0.3741
14445TIP3    H264827   0.410   1.356   8.293  0.4325 -0.1647  0.4542
14446TIP3   OH264828   1.079   0.720  36.675 -0.2371  0.1769  0.0920
14446TIP3    H164829   1.102   0.768  36.595  1.9821  0.8836  1.0679
14446TIP3    H264830   1.064   0.630  36.645  2.6311 -0.0633 -0.9383
14447TIP3   OH264831   1.326   0.800   0.694 -0.2649  0.0401 -0.0744
14447TIP3    H164832   1.300   0.875   0.747  1.0037  0.2740  0.2314
14447TIP3    H264833   1.401   0.763   0.739  0.0827 -0.4878 -1.0595
14448TIP3   OH264834   1.362   0.026 108.373  0.3809 -0.2008 -0.1728
14448TIP3    H164835   1.296  -0.035 108.406  0.1932  0.1956  0.2069
14448TIP3    H264836   1.429   0.028 108.441 -0.3152  1.1063  0.5320
14449TIP3   OH264837   0.601   1.866 102.817 -0.5013  0.0827  0.1800
14449TIP3    H164838   0.506   1.873 102.824 -0.5741  0.6090 -1.0139
14449TIP3    H264839   0.616   1.822 102.733  0.3136  0.3595  0.1709
14450TIP3   OH264840   1.122   1.768  12.317 -0.7286  0.5094 -0.2609
14450TIP3    H164841   1.079   1.713  12.251 -0.5444  0.7742 -0.6030
14450TIP3    H264842   1.176   1.707  12.367 -1.1067  0.2563 -0.1508
14451TIP3   OH264843   1.366   0.135  13.413 -0.0337  0.2251  0.0371
14451TIP3    H164844   1.307   0.068  13.447 -0.5915  0.2948 -0.7572
14451TIP3    H264845   1.316   0.177  13.343  0.6204  0.9101 -0.0277
14452TIP3   OH264846   0.660   1.919   9.125 -0.2216 -0.0204 -0.0983
14452TIP3    H164847   0.713   1.886   9.053 -1.4375  0.5698 -1.3239
14452TIP3    H264848   0.696   1.877   9.203  1.8723  0.2115 -0.8851
14453TIP3   OH264849   2.477   0.637 103.653  0.3898 -0.3989  0.0620
14453TIP3    H164850   2.505   0.709 103.597 -1.1338  0.5031  0.3946
14453TIP3    H264851   2.496   0.668 103.742  0.0157 -0.5246  0.1858
14454TIP3   OH264852   1.150   1.254  87.084  0.0031 -0.2794  0.2894
14454TIP3    H164853   1.216   1.319  87.059  0.2225 -0.5183  0.2415
14454TIP3    H264854   1.144   1.196  87.007 -0.4917 -0.0741  0.1773
14455TIP3   OH264855   1.453   2.198   5.839 -0.3972  0.6416  0.4139
14455TIP3    H164856   1.420   2.111   5.862  1.2670  0.2115  1.3745
14455TIP3    H264857   1.541   2.181   5.806 -0.1683  1.9374  0.3368
14456TIP3   OH264858   1.811   2.041  30.857 -0.1320  0.8810  0.1066
14456TIP3    H164859   1.872   1.966  30.860  1.3332  2.0493  2.2284
14456TIP3    H264860   1.725   2.001  30.851  0.5050 -1.0922  2.4290
14457TIP3   OH264861   0.791   1.282  24.437 -0.0140  0.5538 -0.1244
14457TIP3    H164862   0.754   1.328  24.362 -0.2980  0.9459  0.2539
14457TIP3    H264863   0.862   1.228  24.400  0.3197  1.2872 -0.5627
14458TIP3   OH264864   1.164   0.388  26.411  0.3947  0.5041 -0.2600
14458TIP3    H164865   1.255   0.369  26.387  0.9325  2.5900 -0.0452
14458TIP3    H264866   1.168   0.408  26.504 -0.3348  0.4446 -0.2156
14459TIP3   OH264867   2.398   0.324  19.464 -0.2600 -0.0515 -0.5574
14459TIP3    H164868   2.392   0.287  19.376  0.4534 -1.6479  0.0184
14459TIP3    H264869   2.392   0.248  19.522 -1.0155  0.9950  0.8000
14460TIP3   OH264870   2.676   1.175   9.595  0.2371 -0.0285  0.1710
14460TIP3    H164871   2.759   1.217   9.575  0.6448 -1.1672 -0.5938
14460TIP3    H264872   2.656   1.121   9.519 -2.4789  2.0992 -0.8067
14461TIP3   OH264873   2.432   2.276  30.125  0.0051 -0.2819 -0.1243
14461TIP3    H164874   2.523   2.288  30.151 -0.0855  0.1509 -0.0073
14461TIP3    H264875   2.436   2.265  30.030  0.4663 -3.0743  0.1237
14462TIP3   OH264876   0.101   0.123 112.049 -0.3891 -0.4502  0.5419
14462TIP3    H164877   0.196   0.131 112.049 -0.4408  1.2076 -1.8687
14462TIP3    H264878   0.082   0.061 111.978 -1.1344  0.6874 -0.2952
14463TIP3   OH264879   0.648   1.942  92.862 -0.0812  0.1787 -0.0816
14463TIP3    H164880   0.697   2.025  92.858  0.9063 -0.4478 -2.2355
14463TIP3    H264881   0.714   1.874  92.853 -0.9172 -0.8855  1.3562
14464TIP3   OH264882   0.336   1.643  93.374  0.3237 -0.1120 -0.0855
14464TIP3    H164883   0.394   1.642  93.297  1.8149  0.2074  0.9952
14464TIP3    H264884   0.265   1.703  93.349  0.5491 -0.3580 -1.3782
14465TIP3   OH264885   1.551   0.644  26.038  0.4103 -0.0139 -0.1712
14465TIP3    H164886   1.641   0.612  26.038  0.3886 -0.1182  1.1092
14465TIP3    H264887   1.557   0.733  26.073 -0.2094 -0.8692  2.3462
14466TIP3   OH264888   1.218   1.592  24.830  0.1584  0.1592 -0.8880
14466TIP3    H164889   1.195   1.684  24.819 -0.5722  0.2563  1.0894
14466TIP3    H264890   1.135   1.545  24.819  0.2147 -0.1035 -0.2065
14467TIP3   OH264891   1.041   1.935  36.153  0.0610 -0.1363  0.2577
14467TIP3    H164892   0.969   1.966  36.099  0.8921 -1.1093 -1.4968
14467TIP3    H264893   1.000   1.870  36.212 -0.9304  1.2658  1.1804
14468TIP3   OH264894   0.566   1.142  75.300  0.4394  0.0074  0.0326
14468TIP3    H164895   0.619   1.164  75.376  1.7318  0.3590 -0.9409
14468TIP3    H264896   0.479   1.174  75.322  1.0270  1.0591  0.9233
14469TIP3   OH264897   2.181   0.002  41.324  0.3533  0.6358 -0.1049
14469TIP3    H164898   2.209  -0.037  41.241  2.4727  0.6920  0.5058
14469TIP3    H264899   2.087   0.015  41.315  0.5711  0.8441 -2.5635
14470TIP3   OH264900   2.310   1.197 100.289  0.3621 -0.1972 -0.4083
14470TIP3    H164901   2.271   1.187 100.376 -1.4195  0.2813 -1.1050
14470TIP3    H264902   2.344   1.287 100.289  0.9991 -0.4281  0.0088
14471TIP3   OH264903   2.336   0.653  95.755  0.6858 -0.0257 -0.3159
14471TIP3    H164904   2.273   0.583  95.739 -0.0515  0.4706  0.3549
14471TIP3    H264905   2.417   0.608  95.780  0.5050 -0.6559 -0.8310
14472TIP3   OH264906   1.627   1.677  21.086  0.0750  0.0378 -0.0549
14472TIP3    H164907   1.706   1.731  21.097  0.0655 -0.1406  0.9816
14472TIP3    H264908   1.588   1.709  21.005  0.1390  1.5205  0.4626
14473TIP3   OH264909   1.618   0.472  29.869 -0.8094 -0.3142  0.4406
14473TIP3    H164910   1.705   0.438  29.890  0.0421  1.4002 -0.1558
14473TIP3    H264911   1.565   0.448  29.945  0.5954  0.0083  1.5869
14474TIP3   OH264912   0.246   1.589  12.279  0.1210 -0.5411 -0.5217
14474TIP3    H164913   0.263   1.549  12.194 -0.4242  0.9546 -1.3682
14474TIP3    H264914   0.267   1.681  12.266 -0.6029 -0.1762  0.7844
14475TIP3   OH264915   0.142   1.255   1.318  0.3847  0.2432 -0.2848
14475TIP3    H164916   0.185   1.211   1.392 -0.3488 -0.3091 -0.1801
14475TIP3    H264917   0.120   1.342   1.353 -1.4850 -0.5789  0.7440
14476TIP3   OH264918   0.659   1.150  97.195  0.0471  0.2050 -0.0449
14476TIP3    H164919   0.616   1.113  97.118 -0.0220  0.4585 -0.1296
14476TIP3    H264920   0.588   1.167  97.257  0.1965 -0.8240  0.4220
14477TIP3   OH264921   2.090   2.325  18.466  0.0574 -0.7896 -0.4223
14477TIP3    H164922   2.175   2.368  18.461 -0.5196  0.7119  1.4997
14477TIP3    H264923   2.101   2.257  18.531 -0.2998 -0.3086  0.1526
14478TIP3   OH264924   2.031   0.258 102.873 -0.4760  0.3283 -0.5068
14478TIP3    H164925   2.117   0.230 102.844 -0.5722  0.1834 -0.6538
14478TIP3    H264926   2.043   0.347 102.903  0.0971 -0.2622  1.1265
14479TIP3   OH264927   1.867   0.354  83.283 -0.3155 -0.2915 -0.1752
14479TIP3    H164928   1.856   0.445  83.310 -2.2392 -0.9886  1.7590
14479TIP3    H264929   1.919   0.315  83.353  1.6285 -0.4731 -1.6322
14480TIP3   OH264930   0.256   2.582   2.572 -0.5214 -0.5495 -0.0360
14480TIP3    H164931   0.269   2.525   2.496  0.7795 -0.3095 -0.0081
14480TIP3    H264932   0.235   2.667   2.534  2.3216  0.1390 -0.2446
14481TIP3   OH264933   1.976   1.042  22.732 -0.1143 -0.3445  0.0920
14481TIP3    H164934   1.987   1.117  22.672 -0.1144  0.1793  0.7370
14481TIP3    H264935   1.883   1.021  22.726 -0.3594  0.4888  0.8127
14482TIP3   OH264936   0.345   1.258 102.802 -0.1609 -0.6912  0.0190
14482TIP3    H164937   0.414   1.194 102.790 -0.9330 -1.5160 -0.1734
14482TIP3    H264938   0.320   1.283 102.712 -0.0020 -0.2673  0.0883
14483TIP3   OH264939   0.848   1.060  14.326  0.3660 -0.1729  0.1680
14483TIP3    H164940   0.893   1.016  14.254  0.8253  2.2388 -1.1420
14483TIP3    H264941   0.918   1.091  14.383  0.1581  0.3312  0.1539
14484TIP3   OH264942   2.576   0.905  34.072 -0.3497  0.4003 -0.0404
14484TIP3    H164943   2.664   0.934  34.097 -0.1256 -1.7605  1.9221
14484TIP3    H264944   2.523   0.920  34.149 -1.0992 -0.7450 -0.3191
14485TIP3   OH264945   1.342   2.482  10.638 -0.3223 -0.6609  0.6403
14485TIP3    H164946   1.283   2.509  10.708  0.3129  1.9295  0.3066
14485TIP3    H264947   1.285   2.449  10.569 -1.1734 -0.6207  1.3151
14486TIP3   OH264948   2.552   1.882  47.973 -0.5274 -1.1260 -0.4008
14486TIP3    H164949   2.597   1.941  47.913 -0.6471 -1.4087 -0.7759
14486TIP3    H264950   2.567   1.919  48.060 -1.0118 -0.2788 -0.6700
14487TIP3   OH264951   1.755   0.220  85.116  0.1395  1.2151 -0.3756
14487TIP3    H164952   1.784   0.248  85.030  0.4051  0.9752 -0.3690
14487TIP3    H264953   1.774   0.126  85.118  0.4492  1.2798  0.0634
14488TIP3   OH264954   0.928   1.403  94.349 -0.3072  0.3280  0.2236
14488TIP3    H164955   0.925   1.426  94.442 -1.3464  1.4952 -0.0608
14488TIP3    H264956   1.005   1.448  94.314 -0.1014  0.1518  0.4515
14489TIP3   OH264957   0.463   1.488  76.698 -0.6702  0.4521 -0.3005
14489TIP3    H164958   0.534   1.467  76.758  0.7444  0.7327 -1.8081
14489TIP3    H264959   0.475   1.428  76.625 -1.0104  1.5691 -1.3027
14490TIP3   OH264960   0.561   1.096  20.062  0.1395  0.5972 -0.1620
14490TIP3    H164961   0.520   1.022  20.106  1.8153 -0.7319 -0.7213
14490TIP3    H264962   0.631   1.123  20.121 -0.2933  1.5843 -0.0852
14491TIP3   OH264963   1.121   1.932  37.410  0.2395 -0.0178 -0.0777
14491TIP3    H164964   1.129   1.838  37.396  1.2205  0.1724 -0.8528
14491TIP3    H264965   1.190   1.954  37.472 -0.2319  0.1366  0.4003
14492TIP3   OH264966   2.328   1.042   6.862 -0.2287 -0.1010 -0.6612
14492TIP3    H164967   2.390   0.969   6.866 -0.6411 -0.4332 -0.2481
14492TIP3    H264968   2.242   1.001   6.869 -0.4496  0.4603  0.0072
14493TIP3   OH264969   1.995   0.489  90.219  0.1615 -0.1609 -0.7750
14493TIP3    H164970   1.993   0.583  90.201 -2.0881  0.3099  1.3768
14493TIP3    H264971   1.970   0.447  90.137  0.3649  1.1589 -1.5243
14494TIP3   OH264972   0.265   2.238  87.220  0.8068 -0.2880 -0.5280
14494TIP3    H164973   0.211   2.284  87.284  0.0546 -0.8512 -0.7373
14494TIP3    H264974   0.275   2.300  87.147 -0.3819 -0.5161 -0.9075
14495TIP3   OH264975   2.071   0.536  27.610 -0.0468  0.6130  0.1489
14495TIP3    H164976   2.043   0.586  27.534  0.8009  0.6625 -0.1471
14495TIP3    H264977   2.145   0.483  27.578 -0.9858 -0.9311  0.4249
14496TIP3   OH264978   2.222   1.188  88.663 -0.6235  0.1470  0.8555
14496TIP3    H164979   2.141   1.172  88.712  0.1898 -4.3149  1.1579
14496TIP3    H264980   2.292   1.166  88.724  0.6813  0.8720 -0.3348
14497TIP3   OH264981   1.429   1.128  97.942 -0.3811 -0.5030  0.0453
14497TIP3    H164982   1.377   1.106  97.865 -0.5822 -0.7715  0.2561
14497TIP3    H264983   1.469   1.045  97.969 -0.0376 -0.3463  0.0270
14498TIP3   OH264984   1.182   0.586  85.412  0.2143 -0.0134  0.0124
14498TIP3    H164985   1.112   0.622  85.357  0.8769  0.2320 -0.6901
14498TIP3    H264986   1.252   0.651  85.407  0.6744 -0.4787  0.3228
14499TIP3   OH264987   0.974   1.471  77.485 -0.2850  0.3176 -0.4158
14499TIP3    H164988   0.882   1.480  77.460 -0.9674  0.4583  1.9645
14499TIP3    H264989   1.010   1.559  77.472 -1.1206  0.8849  0.9272
14500TIP3   OH264990   2.187   1.176  75.967  0.5186 -0.4414  0.1810
14500TIP3    H164991   2.266   1.129  75.940  0.7268  0.7632 -1.5131
14500TIP3    H264992   2.139   1.189  75.885 -0.4672  0.5552  0.9018
14501TIP3   OH264993   1.423   2.569  29.456  0.8169  0.1008 -0.1856
14501TIP3    H164994   1.391   2.639  29.399  0.5104 -0.5779 -0.8622
14501TIP3    H264995   1.360   2.498  29.445  0.7560 -0.0491  1.0102
14502TIP3   OH264996   0.208   1.949  26.484  0.5557  0.3455  0.2477
14502TIP3    H164997   0.211   2.007  26.408  1.9023  2.7583  1.9855
14502TIP3    H264998   0.116   1.925  26.491  0.3150  0.4824 -1.8119
14503TIP3   OH264999   1.531   1.556  82.630  0.5090 -0.8064 -0.1333
14503TIP3    H165000   1.544   1.498  82.705  1.0428 -0.4516  0.0535
14503TIP3    H265001   1.478   1.628  82.665  0.6390 -0.7112 -0.1377
14504TIP3   OH265002   1.198   1.173  78.918 -0.6245 -0.0230 -0.2689
14504TIP3    H165003   1.241   1.088  78.911 -0.4635 -0.0255  0.5747
14504TIP3    H265004   1.144   1.180  78.840 -0.0243 -0.5538 -0.7392
14505TIP3   OH265005   2.290   0.733  85.456 -0.3474  0.6504 -0.0953
14505TIP3    H165006   2.345   0.689  85.390  1.1062  0.9973  0.8514
14505TIP3    H265007   2.289   0.673  85.530  0.1253  1.3830  0.5102
14506TIP3   OH265008   1.012   0.572  96.571  0.7148  0.0516 -0.1705
14506TIP3    H165009   1.003   0.582  96.477  0.6310 -0.4205 -0.2202
14506TIP3    H265010   1.086   0.628  96.595  0.5809  0.3593 -0.4812
14507TIP3   OH265011   0.162   0.658   3.932  0.3992 -0.0408  0.3014
14507TIP3    H165012   0.123   0.580   3.891 -0.8107 -0.2200  1.7239
14507TIP3    H265013   0.146   0.647   4.025  1.5131  1.2300  0.6748
14508TIP3   OH265014   0.448   0.261  28.730  0.1939  0.3133  0.1735
14508TIP3    H165015   0.525   0.287  28.680  0.9656  0.3034  1.3169
14508TIP3    H265016   0.482   0.206  28.800 -1.1987 -2.5520 -1.2110
14509TIP3   OH265017   0.789   1.820  32.991 -0.4382  0.4624  0.1970
14509TIP3    H165018   0.797   1.841  32.898  0.9885  2.4557  0.7038
14509TIP3    H265019   0.767   1.903  33.033 -1.7476 -0.5325  1.6126
14510TIP3   OH265020   1.519   0.677  83.360  0.3336 -0.5555 -0.6252
14510TIP3    H165021   1.524   0.681  83.455 -1.8442 -0.1756 -0.4689
14510TIP3    H265022   1.468   0.754  83.335 -1.5374 -2.0732 -1.8070
14511TIP3   OH265023   1.577   1.104  15.698  0.6289 -0.1072  0.2592
14511TIP3    H165024   1.547   1.037  15.759 -0.4889  1.2101  1.2313
14511TIP3    H265025   1.653   1.065  15.655  1.1061 -1.3135  2.0637
14512TIP3   OH265026   0.956   2.683  96.301 -0.0531  0.2126 -0.0597
14512TIP3    H165027   0.961   2.667  96.395 -0.7932  0.1354 -0.0353
14512TIP3    H265028   1.035   2.733  96.281  0.3233 -0.1330  0.5272
14513TIP3   OH265029   0.627   2.633  83.760 -0.3246  0.1027 -0.7018
14513TIP3    H165030   0.635   2.663  83.670 -3.2326  1.0344 -0.7643
14513TIP3    H265031   0.585   2.547  83.753 -0.9480  0.3618 -0.2663
14514TIP3   OH265032   0.587   0.514  20.218 -0.2824 -0.9581 -0.3032
14514TIP3    H165033   0.509   0.513  20.164 -0.9181 -0.5126  0.5752
14514TIP3    H265034   0.561   0.563  20.297  0.6301 -1.5102  0.3644
14515TIP3   OH265035   1.447   2.379  63.208  0.0499  0.4810 -0.5973
14515TIP3    H165036   1.405   2.431  63.139 -0.5259 -1.3755 -1.7335
14515TIP3    H265037   1.400   2.402  63.288 -1.2251  0.5975 -1.3444
14516TIP3   OH265038   1.525   0.005 106.435 -0.4070  0.1620  0.5625
14516TIP3    H165039   1.493   0.093 106.416 -0.0218  0.0089 -0.9139
14516TIP3    H265040   1.615   0.019 106.464 -0.3071  0.2573  0.2173
14517TIP3   OH265041   1.885   0.009  29.955  0.0969  0.5855 -0.0738
14517TIP3    H165042   1.865   0.015  29.861 -0.5497 -1.4157 -0.1051
14517TIP3    H265043   1.968   0.056  29.964  0.2401  0.7180 -1.6737
14518TIP3   OH265044   2.104   1.667 110.756  0.1646  0.4988  0.1623
14518TIP3    H165045   2.124   1.590 110.702  0.9203  0.6165  0.2604
14518TIP3    H265046   2.169   1.732 110.728 -0.7850  1.2762 -0.2776
14519TIP3   OH265047   1.845   0.946  82.781 -0.7170 -0.0505 -0.5778
14519TIP3    H165048   1.901   0.950  82.859 -2.4804 -0.7461  0.7847
14519TIP3    H265049   1.802   1.031  82.778 -3.2815 -1.1598  1.3378
14520TIP3   OH265050   0.909   2.643 106.787  0.5727 -0.1792  0.4047
14520TIP3    H165051   0.913   2.654 106.692  0.4840 -0.4915  0.3670
14520TIP3    H265052   0.969   2.710 106.821  0.6226 -0.0831  0.1262
14521TIP3   OH265053   2.558   0.264  83.081 -0.6181 -0.5389  0.2879
14521TIP3    H165054   2.596   0.251  83.167 -1.8455 -1.2049  0.7527
14521TIP3    H265055   2.485   0.325  83.096 -1.0933 -0.9781 -0.2049
14522TIP3   OH265056   1.299   0.258  14.589 -0.4874 -0.3519 -0.1431
14522TIP3    H165057   1.291   0.351  14.571  1.0362 -0.2483 -0.4571
14522TIP3    H265058   1.243   0.243  14.665  1.0906  1.3442  1.4724
14523TIP3   OH265059   1.895   1.056  10.217 -0.1402 -1.2438  0.3196
14523TIP3    H165060   1.920   0.994  10.285 -0.3771  1.9350  3.6079
14523TIP3    H265061   1.961   1.125  10.221 -1.7597  0.4735 -0.6132
14524TIP3   OH265062   1.022   2.168  85.437  0.2047  0.1708 -0.0362
14524TIP3    H165063   1.041   2.148  85.529 -0.7506  1.3147  0.4263
14524TIP3    H265064   1.047   2.259  85.427  1.2512 -0.2220 -1.2033
14525TIP3   OH265065   1.294   2.142  11.264  0.2491 -0.2104 -0.0312
14525TIP3    H165066   1.294   2.235  11.286 -1.9124 -0.4916  1.4446
14525TIP3    H265067   1.203   2.123  11.241  0.6240 -2.0172 -0.1523
14526TIP3   OH265068   2.094   0.998  85.668  0.4437  0.6134  0.1403
14526TIP3    H165069   2.042   0.973  85.745 -0.0311  0.9787 -0.0622
14526TIP3    H265070   2.071   0.933  85.602  2.0179 -0.6580  0.7648
14527TIP3   OH265071   0.920   0.856 108.877  0.0835  0.4329 -0.2740
14527TIP3    H165072   0.927   0.772 108.830 -0.3833 -0.5245  1.2940
14527TIP3    H265073   0.827   0.877 108.874 -0.1679 -0.3221  1.2995
14528TIP3   OH265074   1.882   2.108   5.264  0.3588 -0.0123 -0.8248
14528TIP3    H165075   1.914   2.191   5.300 -1.7101  0.2581  0.5332
14528TIP3    H265076   1.944   2.043   5.295 -0.1644  0.5158  1.4599
14529TIP3   OH265077   1.592   1.232  95.979 -0.1563  0.3651  0.0475
14529TIP3    H165078   1.612   1.295  96.049  0.6258 -1.2244  1.3307
14529TIP3    H265079   1.526   1.174  96.017  0.5528 -0.7541 -0.3649
14530TIP3   OH265080   0.678   1.337  76.776  0.0701 -0.2166 -0.2875
14530TIP3    H165081   0.772   1.357  76.782 -0.2340  0.9620  0.9458
14530TIP3    H265082   0.662   1.278  76.849 -0.2425 -0.0115 -0.1919
14531TIP3   OH265083   1.495   0.677  83.945  0.1703  0.3720  0.3226
14531TIP3    H165084   1.464   0.586  83.944  2.0941 -0.3822  2.3005
14531TIP3    H265085   1.463   0.712  84.028 -0.6364  1.5954 -0.4692
14532TIP3   OH265086   0.335   1.143  92.411 -0.4858  0.0501 -0.3974
14532TIP3    H165087   0.423   1.115  92.433 -0.4099  0.8228  0.3425
14532TIP3    H265088   0.327   1.128  92.317  0.9896  1.4145 -0.7771
14533TIP3   OH265089   0.207   1.847  75.463  0.2504  0.2244 -0.0492
14533TIP3    H165090   0.167   1.769  75.503  1.9637 -1.7969 -2.0459
14533TIP3    H265091   0.272   1.876  75.527  0.1026 -0.4229  0.4076
14534TIP3   OH265092   1.164   0.032  26.541  0.4281  0.5566  0.1746
14534TIP3    H165093   1.232   0.087  26.501  1.0378 -1.2055 -1.3599
14534TIP3    H265094   1.212  -0.042  26.579 -0.5284 -0.0775  0.1750
14535TIP3   OH265095   0.415   1.966  15.863 -0.0271 -0.1083  0.1100
14535TIP3    H165096   0.358   2.043  15.860 -0.3174 -0.2627  1.1747
14535TIP3    H265097   0.372   1.902  15.806  0.7190  0.8162 -1.5602
14536TIP3   OH265098   0.781   1.075  26.813 -0.0341 -0.7227 -0.4454
14536TIP3    H165099   0.873   1.068  26.839 -0.1516 -0.8577 -0.0628
14536TIP3    H265100   0.761   1.169  26.822 -0.4362 -0.9502  1.2141
14537TIP3   OH265101   2.455   2.055 102.383 -0.1059  0.0799 -0.2375
14537TIP3    H165102   2.398   2.068 102.459 -0.7220 -0.0925 -0.6570
14537TIP3    H265103   2.539   2.030 102.420 -0.2759  0.4359  0.4029
14538TIP3   OH265104   1.250   2.405  12.119  0.5201  0.1840  0.1067
14538TIP3    H165105   1.184   2.443  12.061 -0.0592 -1.0091 -0.0390
14538TIP3    H265106   1.200   2.352  12.181  1.2630  0.1394  0.6922
14539TIP3   OH265107   0.100   0.730 110.078  0.0843  0.2388  0.0806
14539TIP3    H165108   0.153   0.721 109.999  0.2171 -1.7032  0.3527
14539TIP3    H265109   0.026   0.671 110.065 -0.7355  1.0791  0.7556
14540TIP3   OH265110   1.414   1.607  89.104  0.4245 -0.4825 -0.2891
14540TIP3    H165111   1.337   1.645  89.147  0.4212 -0.7984 -0.0140
14540TIP3    H265112   1.391   1.515  89.092  1.1541 -0.8024  0.6894
14541TIP3   OH265113   2.046   1.172   9.533  0.8250  0.3777  0.1394
14541TIP3    H165114   2.015   1.091   9.495  1.3612 -0.3308  1.1523
14541TIP3    H265115   2.038   1.237   9.463  1.1249 -0.7131 -0.9283
14542TIP3   OH265116   0.932   2.292  26.190 -0.2856  0.3161 -0.2704
14542TIP3    H165117   0.944   2.199  26.170  1.7827  0.8207 -1.6526
14542TIP3    H265118   0.927   2.334  26.104 -1.5771  1.4844  0.3285
14543TIP3   OH265119   2.158   1.383   9.709  0.1097 -0.3245  0.1927
14543TIP3    H165120   2.182   1.332   9.786 -1.3896  1.6232  2.0540
14543TIP3    H265121   2.107   1.322   9.655 -2.0645 -0.7734  2.5700
14544TIP3   OH265122   1.633   0.453 110.710 -0.3472  0.0891 -0.1109
14544TIP3    H165123   1.660   0.426 110.623  1.4307 -0.7336  0.6504
14544TIP3    H265124   1.632   0.372 110.761  1.1121  0.8619  1.2258
14545TIP3   OH265125   0.936   2.619  67.254 -0.8585  0.1583  0.0271
14545TIP3    H165126   0.993   2.654  67.185  0.2966  0.7495  1.2411
14545TIP3    H265127   0.898   2.540  67.215  0.5728 -0.1050 -0.9345
14546TIP3   OH265128   1.313   1.022  79.743 -0.2002 -0.8841 -0.8006
14546TIP3    H165129   1.407   1.015  79.754 -0.3653 -1.3922  0.4760
14546TIP3    H265130   1.289   0.947  79.688 -0.4944 -4.2283  3.3991
14547TIP3   OH265131   2.546   1.094  99.156  0.1700  0.4633  0.2441
14547TIP3    H165132   2.580   1.042  99.229 -0.6132  1.2591  1.2157
14547TIP3    H265133   2.602   1.171  99.153  0.8948 -0.0796 -0.7399
14548TIP3   OH265134   2.102   0.900  15.285 -0.5005  0.1572 -0.1613
14548TIP3    H165135   2.063   0.887  15.371 -1.7915 -0.9102 -0.8769
14548TIP3    H265136   2.032   0.880  15.223  0.1109  1.8274 -1.4786
14549TIP3   OH265137   0.848   2.285  22.353 -0.1068 -0.1279  0.2385
14549TIP3    H165138   0.867   2.280  22.259  3.2803  1.3487  0.6854
14549TIP3    H265139   0.754   2.303  22.358 -0.1576  1.1576 -2.9227
14550TIP3   OH265140   0.836   2.277  73.488 -0.0719 -0.8028  0.7231
14550TIP3    H165141   0.891   2.350  73.515  0.6287 -0.6593 -1.0134
14550TIP3    H265142   0.757   2.285  73.542 -0.8343  2.3392 -0.6727
14551TIP3   OH265143   1.766   0.118  35.303  0.0209  0.8330  0.0466
14551TIP3    H165144   1.854   0.090  35.327  0.1832  0.6664 -0.7378
14551TIP3    H265145   1.763   0.113  35.208 -1.1253 -0.0492  0.1016
14552TIP3   OH265146   1.601   1.273  99.513 -0.0680 -0.2974 -0.1117
14552TIP3    H165147   1.507   1.279  99.527  0.1143  0.8590  0.8018
14552TIP3    H265148   1.613   1.291  99.420 -0.5643  2.4430  0.2844
14553TIP3   OH265149   1.445   1.632  78.492  0.0066  0.6197 -0.2353
14553TIP3    H165150   1.514   1.652  78.428  1.7875 -0.2670  1.3158
14553TIP3    H265151   1.458   1.695  78.562  0.1424 -0.4467  0.7209
14554TIP3   OH265152   1.576   1.115   9.182  0.1248 -0.5270  0.2149
14554TIP3    H165153   1.481   1.109   9.167  0.2890 -0.0110 -1.1604
14554TIP3    H265154   1.607   1.025   9.173 -0.0899 -0.5394 -0.5200
14555TIP3   OH265155   1.505   2.008  93.405 -0.2894 -0.5586  0.6081
14555TIP3    H165156   1.451   2.086  93.394 -2.0087 -1.7699 -0.0973
14555TIP3    H265157   1.462   1.958  93.474 -0.5583 -1.8990 -0.4706
14556TIP3   OH265158   1.143   1.663  20.180  0.1525 -0.1123  0.3851
14556TIP3    H165159   1.190   1.730  20.229  0.1544 -1.1935  1.9588
14556TIP3    H265160   1.093   1.616  20.247 -1.6329 -0.2473 -0.9658
14557TIP3   OH265161   1.390   2.174  77.041  0.1658  0.2969 -0.0060
14557TIP3    H165162   1.458   2.218  77.092 -0.2827  0.7016  0.2539
14557TIP3    H265163   1.311   2.226  77.057 -0.6345 -1.2029  1.2018
14558TIP3   OH265164   1.603   2.588  17.735 -0.3118  0.5944 -0.3048
14558TIP3    H165165   1.583   2.677  17.704  0.4522  0.4526 -1.2555
14558TIP3    H265166   1.671   2.600  17.801 -0.8897  0.7791  0.2733
14559TIP3   OH265167   1.907   1.398  82.592  0.2978 -0.2384  0.0669
14559TIP3    H165168   1.858   1.342  82.532 -0.0168  0.0423  0.0625
14559TIP3    H265169   1.856   1.396  82.674  0.3374 -0.0463  0.0978
14560TIP3   OH265170   0.698   0.047  19.272  0.3197  0.0762  0.1418
14560TIP3    H165171   0.744   0.005  19.199  1.6073  0.9048  0.4299
14560TIP3    H265172   0.672   0.133  19.238 -0.7896 -0.2725  0.0788
14561TIP3   OH265173   0.535   0.486  15.900 -0.1161  0.4096 -0.0381
14561TIP3    H165174   0.455   0.452  15.860 -0.4648  0.1925  0.8172
14561TIP3    H265175   0.592   0.409  15.909 -0.1372  0.4098  0.1047
14562TIP3   OH265176   2.676   1.913   0.948  0.2225  0.1472  0.1260
14562TIP3    H165177   2.656   2.005   0.966 -0.5981 -0.2863  1.6012
14562TIP3    H265178   2.694   1.875   1.034  1.7362 -0.8253 -0.5856
14563TIP3   OH265179   1.985   0.700  79.659  0.0555  0.7750 -0.3315
14563TIP3    H165180   1.937   0.747  79.727  0.1001  1.2223 -0.6087
14563TIP3    H265181   1.921   0.643  79.619  0.2301 -0.1831  0.7031
14564TIP3   OH265182   1.994   0.351  82.092  0.4507 -0.3850  0.3033
14564TIP3    H165183   1.937   0.363  82.017 -2.5049  0.0908  2.4655
14564TIP3    H265184   2.064   0.293  82.060 -0.6755 -0.2401 -2.7210
14565TIP3   OH265185   2.621   1.013  79.038 -0.2637  0.3647  0.1837
14565TIP3    H165186   2.607   0.948  78.969  2.4049 -0.6850  0.5149
14565TIP3    H265187   2.601   0.967  79.119  3.3125 -0.8672  0.5841
14566TIP3   OH265188   2.096   2.574  86.544  0.0445 -0.3597  0.6413
14566TIP3    H165189   2.023   2.513  86.558  0.3556 -1.2852 -1.4260
14566TIP3    H265190   2.149   2.533  86.476  1.3866  1.2883  0.6269
14567TIP3   OH265191   0.010   2.042  22.104 -0.0185  0.1587 -0.0985
14567TIP3    H165192  -0.025   2.093  22.032 -1.6317 -0.6747  0.0487
14567TIP3    H265193   0.023   1.954  22.067 -1.2788 -0.3926  0.6854
14568TIP3   OH265194   1.394   0.089  34.013 -0.1686 -0.1200  0.5153
14568TIP3    H165195   1.452   0.147  33.964 -0.6758  0.7150  0.8855
14568TIP3    H265196   1.349   0.038  33.945 -0.3386  0.5205  0.1395
14569TIP3   OH265197   0.553   0.194 102.721 -0.1992 -0.0717 -0.2649
14569TIP3    H165198   0.614   0.262 102.751 -0.0585 -0.5488  0.5521
14569TIP3    H265199   0.572   0.119 102.777 -1.5517 -0.2227  0.0245
14570TIP3   OH265200   2.461   0.253  87.076  0.3473 -0.1584  0.2845
14570TIP3    H165201   2.476   0.187  87.008  0.3183  0.0848  0.0386
14570TIP3    H265202   2.379   0.295  87.051 -0.9833 -1.6911  1.7911
14571TIP3   OH265203   2.171   1.163   5.064 -0.6079  0.6580  0.1938
14571TIP3    H165204   2.114   1.093   5.033 -2.1582  1.4014  1.1898
14571TIP3    H265205   2.147   1.239   5.012 -0.7310  1.0458  0.7996
14572TIP3   OH265206   1.188   0.806  80.161  0.2779  0.4692 -0.4263
14572TIP3    H165207   1.210   0.781  80.072 -0.0452 -0.8406 -0.1590
14572TIP3    H265208   1.147   0.728  80.199 -3.1583  2.1039 -0.3168
14573TIP3   OH265209   0.911   1.239  22.506  0.4455 -0.3767  0.4958
14573TIP3    H165210   0.829   1.223  22.461  0.0331  1.9556  0.2626
14573TIP3    H265211   0.978   1.231  22.438  0.1649 -0.1827  0.1936
14574TIP3   OH265212   2.434   2.538   2.657  0.2888 -0.5688  0.1178
14574TIP3    H165213   2.473   2.455   2.683 -1.1483 -1.2867  0.0230
14574TIP3    H265214   2.393   2.572   2.736  0.4480 -0.1816  0.0375
14575TIP3   OH265215   1.596   2.568  95.392  0.0305 -0.1664  0.4078
14575TIP3    H165216   1.670   2.627  95.379  0.6336 -0.4804  2.1362
14575TIP3    H265217   1.550   2.603  95.468 -0.7621 -0.8043  0.2430
14576TIP3   OH265218   2.548   0.341  98.758 -0.2537  0.6819  0.5747
14576TIP3    H165219   2.600   0.265  98.785  0.1412  0.5364 -0.5427
14576TIP3    H265220   2.611   0.413  98.757 -0.2723  0.6987  0.1543
14577TIP3   OH265221   1.859   2.318  33.084 -0.1503 -0.4137 -0.3346
14577TIP3    H165222   1.830   2.383  33.020  2.6637  0.7337 -0.5811
14577TIP3    H265223   1.809   2.239  33.062 -0.2472  0.3268 -3.0927
14578TIP3   OH265224   1.429   2.662  88.954 -0.3494 -0.3149 -0.4025
14578TIP3    H165225   1.339   2.668  88.984 -0.0297  1.1932  0.3269
14578TIP3    H265226   1.481   2.653  89.034  0.3629  1.8852 -0.5569
14579TIP3   OH265227   2.644   1.474  67.239 -0.0490  0.6834 -0.0226
14579TIP3    H165228   2.657   1.399  67.180 -1.3742  0.7190 -0.4095
14579TIP3    H265229   2.638   1.549  67.180  3.2529  1.4523  0.4591
14580TIP3   OH265230   0.729   0.567  82.011 -0.1315  0.5456  0.0903
14580TIP3    H165231   0.679   0.594  82.088  1.6502 -0.0330  1.5107
14580TIP3    H265232   0.689   0.484  81.985 -2.4428  1.9728 -1.2973
14581TIP3   OH265233   0.314   0.324 107.672  0.4997  0.0500  0.3722
14581TIP3    H165234   0.350   0.236 107.676 -1.0863 -0.5827  1.4646
14581TIP3    H265235   0.220   0.311 107.661  0.4644  1.6391 -1.9870
14582TIP3   OH265236   0.950   1.264  75.180  0.1797 -0.7187 -0.2350
14582TIP3    H165237   1.003   1.339  75.152 -1.8592 -0.0530 -2.5728
14582TIP3    H265238   0.860   1.292  75.167 -0.9398 -1.6325  4.1005
14583TIP3   OH265239   1.594   0.092  93.180  0.3121  0.2188  0.2541
14583TIP3    H165240   1.594   0.168  93.121 -0.4999  0.6073  0.7400
14583TIP3    H265241   1.611   0.018  93.122  0.7456  0.7261 -0.2874
14584TIP3   OH265242   2.556   2.005 103.181  0.5940  0.2601  0.0800
14584TIP3    H165243   2.596   2.090 103.171  1.3521  0.0851  1.3652
14584TIP3    H265244   2.555   1.990 103.276 -0.0241 -0.9124 -0.0865
14585TIP3   OH265245   0.871   0.711 107.395  0.0271 -0.1317  0.3586
14585TIP3    H165246   0.783   0.704 107.432 -0.1827 -3.0873 -0.4632
14585TIP3    H265247   0.905   0.622 107.398  2.2468  0.5870 -1.1924
14586TIP3   OH265248   1.899   1.628   7.123  0.2497  0.1083  0.0178
14586TIP3    H165249   1.813   1.615   7.164 -0.0628 -0.3625 -0.7581
14586TIP3    H265250   1.960   1.632   7.196 -0.2476 -1.0547  0.5195
14587TIP3   OH265251   0.126   1.384  86.162  0.5035  0.1264  0.7357
14587TIP3    H165252   0.032   1.401  86.160  0.4593 -0.1216 -1.1300
14587TIP3    H265253   0.132   1.288  86.167  0.6392  0.1207  0.4924
14588TIP3   OH265254   0.965   2.587 111.116  0.0636 -0.8263  0.1776
14588TIP3    H165255   1.052   2.586 111.078 -0.2265 -0.5097 -0.5170
14588TIP3    H265256   0.906   2.593 111.041 -0.5424 -0.7119  0.6542
14589TIP3   OH265257   1.562   1.002  90.920  0.6565 -0.1108 -0.8534
14589TIP3    H165258   1.612   1.080  90.945 -0.0067 -0.2068  0.9285
14589TIP3    H265259   1.621   0.929  90.938  0.4328 -0.1371 -0.1884
14590TIP3   OH265260   0.197   2.395  29.666 -0.2537 -0.0144  0.9748
14590TIP3    H165261   0.237   2.475  29.633 -1.0560  0.1893  0.4789
14590TIP3    H265262   0.227   2.389  29.757  1.0875 -0.0037  0.5622
14591TIP3   OH265263   0.605   1.375  89.966 -0.9718 -0.3574  0.3707
14591TIP3    H165264   0.516   1.403  89.943 -0.8426 -1.1781 -1.2996
14591TIP3    H265265   0.661   1.448  89.943 -1.1420 -0.0226  0.9814
14592TIP3   OH265266   2.412   0.521  98.571 -0.1176 -0.8614 -0.0958
14592TIP3    H165267   2.495   0.503  98.526 -0.7844 -1.7272 -1.0040
14592TIP3    H265268   2.424   0.484  98.658  1.0301  0.4473  0.3465
14593TIP3   OH265269   1.403   1.103  25.393 -0.2803 -0.2703  0.3199
14593TIP3    H165270   1.474   1.144  25.443 -1.7399  0.8730  1.5661
14593TIP3    H265271   1.395   1.157  25.314 -0.1730 -0.0171  0.4800
14594TIP3   OH265272   2.237   1.001  18.471  0.3104 -0.1399  0.2740
14594TIP3    H165273   2.301   0.938  18.439  1.0612 -0.6999  2.6502
14594TIP3    H265274   2.220   0.974  18.561 -1.9836  1.0334  0.2626
14595TIP3   OH265275   0.458   2.143  84.328  0.5584  0.1217  0.6315
14595TIP3    H165276   0.497   2.062  84.296 -1.2475 -0.7233  0.4529
14595TIP3    H265277   0.388   2.162  84.265 -0.4668  0.6112  1.8814
14596TIP3   OH265278   1.553   0.471  74.463 -0.5772 -0.0415  0.8184
14596TIP3    H165279   1.507   0.552  74.442  1.6866  1.1371  0.1525
14596TIP3    H265280   1.602   0.450  74.384 -0.0330 -1.3005  1.4761
14597TIP3   OH265281   2.670   0.591  48.317  0.1506  0.2116  0.1528
14597TIP3    H165282   2.700   0.500  48.314  0.3902  0.3037 -0.3832
14597TIP3    H265283   2.579   0.587  48.288  0.3696  0.2204 -0.5693
14598TIP3   OH265284   2.025   2.625  24.992 -0.1074  0.1875 -0.2498
14598TIP3    H165285   1.955   2.660  25.048  1.2024 -1.1049  2.3841
14598TIP3    H265286   1.981   2.560  24.937 -1.0189 -0.8433  1.5850
14599TIP3   OH265287   2.423   1.913  96.200 -0.2027  0.7471 -0.3148
14599TIP3    H165288   2.502   1.865  96.228 -0.8405 -0.3909 -0.3767
14599TIP3    H265289   2.363   1.844  96.171 -0.3272  1.7463 -2.6113
14600TIP3   OH265290   1.145   1.277 103.819  0.2225  0.1009 -0.1686
14600TIP3    H165291   1.196   1.355 103.842 -0.0940  0.4840 -0.7409
14600TIP3    H265292   1.182   1.248 103.735 -0.1964  0.1235 -0.3691
14601TIP3   OH265293   1.087   2.362 108.018 -0.8014 -0.0615  0.0435
14601TIP3    H165294   1.085   2.313 107.936 -1.4784  1.2588 -0.7499
14601TIP3    H265295   1.014   2.327 108.069 -1.0796 -0.1008 -0.3794
14602TIP3   OH265296   1.853   0.727  25.104  0.2523  0.1336  0.3684
14602TIP3    H165297   1.920   0.659  25.099  0.6809  0.5269  0.6302
14602TIP3    H265298   1.833   0.748  25.013 -0.8410 -1.2589  0.2638
14603TIP3   OH265299   2.173   2.675  26.993 -0.3874  0.2607  0.2646
14603TIP3    H165300   2.135   2.747  26.943 -1.0060 -0.3157 -0.1085
14603TIP3    H265301   2.260   2.706  27.017 -0.1100  0.5873 -1.0899
14604TIP3   OH265302   1.139   0.132  77.457 -0.1711 -0.1831  0.5084
14604TIP3    H165303   1.175   0.134  77.368 -0.5583  0.1208  0.3540
14604TIP3    H265304   1.175   0.052  77.495 -1.3798 -1.2714 -0.5060
14605TIP3   OH265305   0.941   1.042  76.904 -0.2078 -0.1748 -0.0733
14605TIP3    H165306   0.861   1.094  76.894 -0.8184 -0.5754  2.2286
14605TIP3    H265307   0.958   1.042  76.998  1.5610 -1.5168 -0.3483
14606TIP3   OH265308   1.399   0.976 111.734 -0.0361  0.0093  0.2463
14606TIP3    H165309   1.452   0.961 111.812  1.0006  1.2903 -0.1762
14606TIP3    H265310   1.447   0.931 111.664 -0.4290 -0.2801  0.1560
14607TIP3   OH265311   0.152   1.362  95.713 -0.2284  0.2180 -0.4680
14607TIP3    H165312   0.078   1.348  95.653 -0.2610 -0.0313 -0.3670
14607TIP3    H265313   0.188   1.446  95.686  2.0556 -1.4892 -3.2847
14608TIP3   OH265314   1.563   0.443  18.614  0.1952 -0.2619 -0.4784
14608TIP3    H165315   1.597   0.525  18.651  1.7894 -0.9636 -0.3248
14608TIP3    H265316   1.559   0.458  18.520 -0.8606  0.4526 -0.3348
14609TIP3   OH265317   0.630   1.276  87.570 -0.2017  0.2302  0.0944
14609TIP3    H165318   0.590   1.202  87.616  1.4046  0.5472  2.1702
14609TIP3    H265319   0.653   1.241  87.484 -1.6332 -0.9534  0.1482
14610TIP3   OH265320   1.563   1.047 110.253  0.8988  0.1062  0.1767
14610TIP3    H165321   1.515   1.126 110.228 -1.2682 -0.8322  1.1270
14610TIP3    H265322   1.571   1.053 110.349  0.9279 -0.7124  0.2318
14611TIP3   OH265323   1.958   0.536 101.997 -0.1172 -0.2151 -0.0424
14611TIP3    H165324   1.936   0.454 102.041  1.2250 -0.6898 -0.2222
14611TIP3    H265325   1.884   0.553 101.939 -1.2788 -0.2958  1.3571
14612TIP3   OH265326   0.572   1.109 102.368  0.0264 -0.1422  0.1226
14612TIP3    H165327   0.523   1.119 102.286  1.3171  0.0393 -0.6591
14612TIP3    H265328   0.551   1.188 102.418  0.0572  0.2615 -0.4929
14613TIP3   OH265329   0.550   0.574   2.990  0.2527 -0.6387 -0.0777
14613TIP3    H165330   0.585   0.619   3.067  0.4414  0.0414 -0.5493
14613TIP3    H265331   0.490   0.509   3.025 -3.2328  2.5766  0.6006
14614TIP3   OH265332   2.178   2.263  20.065 -0.1803 -0.4498  0.2963
14614TIP3    H165333   2.178   2.357  20.047 -0.3160 -0.7076 -1.1737
14614TIP3    H265334   2.271   2.239  20.067 -0.1688 -0.5811 -1.1176
14615TIP3   OH265335   2.361   1.979  34.770 -0.0168  0.0368  0.4647
14615TIP3    H165336   2.283   1.993  34.715 -0.3296 -2.5781  0.1330
14615TIP3    H265337   2.374   2.063  34.814 -1.9763  1.0834 -0.7892
14616TIP3   OH265338   1.003   2.193  37.259  0.8334  0.4662 -0.3878
14616TIP3    H165339   0.942   2.264  37.281  0.1652  0.1123 -1.0281
14616TIP3    H265340   0.989   2.127  37.327 -1.4660 -0.7729 -1.9185
14617TIP3   OH265341   0.074   0.402  35.457 -0.6659 -0.2955 -0.5353
14617TIP3    H165342   0.119   0.397  35.541 -1.6465  1.5968  0.1699
14617TIP3    H265343   0.110   0.330  35.406  3.1937  1.0165 -0.0444
14618TIP3   OH265344   1.143   1.178  16.826 -0.2853 -0.3093  0.2217
14618TIP3    H165345   1.204   1.233  16.876 -0.3385 -0.9342  0.9960
14618TIP3    H265346   1.080   1.240  16.788  0.1356  0.2338  0.3925
14619TIP3   OH265347   0.683   1.578  85.263  0.5572 -0.5646  0.5212
14619TIP3    H165348   0.648   1.574  85.174  1.6027 -0.0453  0.0726
14619TIP3    H265349   0.654   1.663  85.296 -0.3053 -0.9941  0.8878
14620TIP3   OH265350   1.876   0.145  83.089 -0.3143  0.0187 -0.2903
14620TIP3    H165351   1.832   0.063  83.109  0.5013 -0.6411 -1.1137
14620TIP3    H265352   1.861   0.200  83.166  1.7529 -1.9996  1.7230
14621TIP3   OH265353   2.104   2.471  98.832 -0.2107 -0.1214  0.1561
14621TIP3    H165354   2.091   2.566  98.840  0.0611 -0.0984  0.3329
14621TIP3    H265355   2.158   2.461  98.754  1.7035  0.0449  1.4034
14622TIP3   OH265356   0.152   2.100 107.033 -0.7129  0.5698 -0.3088
14622TIP3    H165357   0.148   2.194 107.018 -0.4531  0.7604  0.7456
14622TIP3    H265358   0.243   2.083 107.057 -0.7478  0.0410 -0.5301
14623TIP3   OH265359   1.187   2.470  35.037 -0.3258  0.4069 -0.3829
14623TIP3    H165360   1.153   2.470  35.126  0.8055 -2.6154  0.1951
14623TIP3    H265361   1.120   2.422  34.986  0.3369 -0.4518 -0.4768
14624TIP3   OH265362   2.247   0.206  23.206  0.3421 -0.1908 -0.0955
14624TIP3    H165363   2.307   0.253  23.264  0.6683 -0.1027 -0.4943
14624TIP3    H265364   2.176   0.268  23.190  0.2022 -0.2509  0.2849
14625TIP3   OH265365   2.420   1.684  89.898  0.2811 -0.2485  0.4605
14625TIP3    H165366   2.434   1.748  89.828  1.7314  0.5373  1.4394
14625TIP3    H265367   2.326   1.665  89.894 -0.1024  1.5866 -0.1499
14626TIP3   OH265368   1.752   1.608  95.146  0.3786 -0.2406  0.0262
14626TIP3    H165369   1.832   1.627  95.195  0.7595 -1.4148 -0.1085
14626TIP3    H265370   1.755   1.514  95.131  0.3590  0.0692 -2.3897
14627TIP3   OH265371   1.269   1.694  27.228  0.0098 -0.7875 -0.4464
14627TIP3    H165372   1.297   1.664  27.315 -0.1500  0.1581 -0.0521
14627TIP3    H265373   1.204   1.762  27.246  0.8454  0.2725 -1.2764
14628TIP3   OH265374   0.103   2.596 106.411  0.3020 -0.0018  0.2706
14628TIP3    H165375   0.103   2.501 106.413 -0.6476 -0.1150 -2.1680
14628TIP3    H265376   0.011   2.620 106.398  0.6838  1.2018 -0.3024
14629TIP3   OH265377   1.818   0.298 100.991 -0.2021  0.2844  0.8149
14629TIP3    H165378   1.838   0.372 100.933 -0.0516 -0.9673 -0.8002
14629TIP3    H265379   1.746   0.329 101.046 -1.3490  1.0742 -1.0370
14630TIP3   OH265380   0.580   1.665  30.864  0.2527 -0.6781 -0.4283
14630TIP3    H165381   0.559   1.584  30.817  0.3757 -1.0271  0.1173
14630TIP3    H265382   0.524   1.731  30.823 -1.2196 -1.4027  0.3336
14631TIP3   OH265383   1.617   2.530  91.032 -0.0696 -0.1093 -0.2442
14631TIP3    H165384   1.656   2.611  90.998  0.8309 -0.8937 -1.1750
14631TIP3    H265385   1.646   2.463  90.971  0.5150 -1.3982  1.3755
14632TIP3   OH265386   0.961   2.196  63.334 -0.3765 -0.2255 -1.1474
14632TIP3    H165387   0.969   2.260  63.405  3.3020  0.0387 -1.5591
14632TIP3    H265388   0.903   2.237  63.271 -2.5603  0.1749  0.9822
14633TIP3   OH265389   1.688   2.558  37.644  0.2333 -0.1889  0.2279
14633TIP3    H165390   1.607   2.557  37.694  1.0106 -1.1600  1.5135
14633TIP3    H265391   1.739   2.629  37.682  0.2673 -0.0256 -0.1200
14634TIP3   OH265392   0.951   1.646  94.130 -0.2456  0.0119  0.2001
14634TIP3    H165393   0.910   1.570  94.088 -0.1738 -1.1673  2.1650
14634TIP3    H265394   0.997   1.610  94.206 -0.4126  2.0523  1.3315
14635TIP3   OH265395   0.145   0.889  82.986 -0.1944 -0.1731 -0.0617
14635TIP3    H165396   0.147   0.890  83.082 -0.9172 -1.9903  0.0165
14635TIP3    H265397   0.210   0.953  82.960  1.1885 -0.7966  1.6562
14636TIP3   OH265398   0.270   0.846  26.801  0.0738 -0.1270 -0.0508
14636TIP3    H165399   0.364   0.848  26.820  0.3350  1.0300 -1.3444
14636TIP3    H265400   0.260   0.895  26.719 -1.7260  0.2940  0.3605
14637TIP3   OH265401   0.898   2.530  76.889  0.2135 -0.3239  0.3405
14637TIP3    H165402   0.813   2.574  76.877  1.8158  2.7263 -0.8668
14637TIP3    H265403   0.875   2.438  76.903 -3.4437  0.7456  3.1483
14638TIP3   OH265404   2.416   1.238   6.678  0.5145  0.2325 -0.6008
14638TIP3    H165405   2.390   1.172   6.742 -0.2491  0.0608 -1.0854
14638TIP3    H265406   2.509   1.220   6.662  0.6056  0.0176  0.1432
14639TIP3   OH265407   0.908   1.894   4.784  0.1908 -0.1120  0.1364
14639TIP3    H165408   0.967   1.833   4.829 -0.5783 -1.1824 -0.2650
14639TIP3    H265409   0.861   1.839   4.721  0.3971  1.1232 -1.1620
14640TIP3   OH265410   0.521   0.094  84.946  0.1171  0.1088  0.2880
14640TIP3    H165411   0.564   0.012  84.924 -1.4501 -0.9861  1.1245
14640TIP3    H265412   0.568   0.127  85.022 -0.4899 -1.0739  1.2034
14641TIP3   OH265413   0.051   0.397  66.821  0.0985  0.5943 -0.1922
14641TIP3    H165414  -0.036   0.378  66.785  0.3096  0.9364 -0.8994
14641TIP3    H265415   0.038   0.475  66.875 -0.4860 -0.6424  1.5706
14642TIP3   OH265416   2.377   0.512  17.116  0.1950  0.0461  0.1424
14642TIP3    H165417   2.324   0.435  17.136  0.6462 -0.7854 -1.6393
14642TIP3    H265418   2.327   0.586  17.152 -0.3259 -1.0344  1.7501
14643TIP3   OH265419   0.040   1.164  14.025  0.1865 -0.0399  0.0026
14643TIP3    H165420  -0.025   1.121  14.080 -1.1143 -0.0535 -1.4582
14643TIP3    H265421   0.097   1.093  13.996  1.5800  0.1215  2.1452
14644TIP3   OH265422   0.317   0.896  90.455  0.3804  0.1795 -0.3434
14644TIP3    H165423   0.339   0.988  90.471  1.5083  0.0002 -0.7703
14644TIP3    H265424   0.330   0.884  90.361  0.0541 -0.3610 -0.3247
14645TIP3   OH265425   0.312   0.983 102.210 -0.4743  0.0548  0.0926
14645TIP3    H165426   0.313   0.890 102.233  0.1834  0.3206  1.2068
14645TIP3    H265427   0.305   1.029 102.294  0.7030  1.0387 -0.3184
14646TIP3   OH265428   0.576   2.566  18.982  0.0658  0.0943  0.0737
14646TIP3    H165429   0.671   2.581  18.990 -0.0020  0.6389 -0.0501
14646TIP3    H265430   0.538   2.654  18.992 -0.4730 -0.2192  0.8240
14647TIP3   OH265431   1.979   1.653  25.353  0.0783  0.0855  0.3054
14647TIP3    H165432   2.069   1.620  25.365  0.6040  1.0816 -0.7231
14647TIP3    H265433   1.935   1.582  25.306  0.3265 -0.4019  0.7870
14648TIP3   OH265434   0.193   1.398  95.384 -0.1027  0.3839  0.0305
14648TIP3    H165435   0.099   1.382  95.398  0.4536 -2.0765  1.6621
14648TIP3    H265436   0.216   1.463  95.450 -0.3043 -0.4911  0.9832
14649TIP3   OH265437   0.127   1.986  98.994  0.1609 -0.3839  0.3553
14649TIP3    H165438   0.176   2.012  98.916 -0.0362 -0.8268  0.0799
14649TIP3    H265439   0.100   1.896  98.977 -1.1088 -0.0062  0.3232
14650TIP3   OH265440   0.689   1.238   4.688 -0.0562  0.1885  0.1327
14650TIP3    H165441   0.633   1.161   4.695 -0.7829  0.3383 -2.7914
14650TIP3    H265442   0.764   1.218   4.744 -1.2945 -1.6039  1.2596
14651TIP3   OH265443   1.678   0.319  28.173 -0.0481  0.4620 -0.1782
14651TIP3    H165444   1.610   0.276  28.226  0.1921 -0.9968 -1.0208
14651TIP3    H265445   1.723   0.377  28.235  1.8274 -2.9405  1.9561
14652TIP3   OH265446   1.513   1.813  22.260  0.4078  0.0937 -0.2281
14652TIP3    H165447   1.541   1.904  22.251  0.4095  0.2602  1.1883
14652TIP3    H265448   1.432   1.817  22.312 -0.1664 -0.6492 -1.0256
14653TIP3   OH265449   0.835   1.534  76.059  0.3381  0.1573  0.8700
14653TIP3    H165450   0.853   1.628  76.052  2.4871  0.0780  3.6680
14653TIP3    H265451   0.914   1.492  76.024  0.1848 -0.5537  1.3622
14654TIP3   OH265452   0.330   0.877  94.547 -0.1253  0.1088  0.6605
14654TIP3    H165453   0.363   0.959  94.583 -0.7111  0.0510  1.3628
14654TIP3    H265454   0.236   0.890  94.539 -0.3642 -0.8304  1.7208
14655TIP3   OH265455   0.020   2.464  32.532 -0.2641 -0.2843  0.7593
14655TIP3    H165456   0.003   2.538  32.589 -0.8815  1.2410 -1.2703
14655TIP3    H265457  -0.038   2.395  32.563 -2.3191  1.2743  0.5993
14656TIP3   OH265458   0.999   0.559  69.297 -0.6043 -0.2547  0.3452
14656TIP3    H165459   1.049   0.550  69.216  1.6219  0.0437  1.5961
14656TIP3    H265460   0.943   0.635  69.282  1.6364  1.4059 -0.0672
14657TIP3   OH265461   0.056   0.653  77.629 -0.1501 -0.3499 -0.3189
14657TIP3    H165462  -0.030   0.616  77.609 -0.7433  0.3868  0.7285
14657TIP3    H265463   0.058   0.736  77.581 -0.6712  0.3643  0.8582
14658TIP3   OH265464   1.913   2.626  81.734  0.1938  0.5418  0.0527
14658TIP3    H165465   1.908   2.532  81.719 -0.9429  0.1792  2.2381
14658TIP3    H265466   1.821   2.656  81.734  0.5385  1.6801 -0.7349
14659TIP3   OH265467   1.753   0.099  48.009  0.2986  0.9426  0.0822
14659TIP3    H165468   1.750   0.056  47.924 -0.4934 -1.4736  1.2258
14659TIP3    H265469   1.675   0.066  48.055  0.4335  2.5654  1.5724
14660TIP3   OH265470   0.087   1.034  88.862 -0.6208 -0.0795  0.1368
14660TIP3    H165471   0.020   0.974  88.894  0.4523 -0.2911  2.2106
14660TIP3    H265472   0.042   1.118  88.851 -1.4759 -0.5129  0.2824
14661TIP3   OH265473   0.437   1.564  20.641 -0.3799 -0.0743 -0.1084
14661TIP3    H165474   0.432   1.470  20.659 -0.0124 -0.1935 -0.6284
14661TIP3    H265475   0.503   1.573  20.573 -1.9208  0.3432 -1.6135
14662TIP3   OH265476   2.527   2.684 106.368  0.0345  0.5659 -0.2712
14662TIP3    H165477   2.495   2.710 106.281  0.0268 -1.7754 -1.0519
14662TIP3    H265478   2.451   2.641 106.409 -0.0961  2.0195  1.1314
14663TIP3   OH265479   2.388   2.149  37.435 -0.3938  0.2144  0.2197
14663TIP3    H165480   2.471   2.143  37.483 -0.0601  0.2248 -0.3541
14663TIP3    H265481   2.410   2.122  37.346 -1.0175  0.1789  0.0745
14664TIP3   OH265482   0.265   1.612  11.556  0.2241  0.2430  0.1997
14664TIP3    H165483   0.309   1.696  11.545  1.7547 -0.5923 -0.3307
14664TIP3    H265484   0.334   1.552  11.582 -0.6166 -1.1156 -0.5915
14665TIP3   OH265485   2.552   0.612 110.033 -0.2721  0.4118  0.2315
14665TIP3    H165486   2.512   0.675 109.972  1.6200  0.4816 -1.0357
14665TIP3    H265487   2.483   0.592 110.096 -2.2436  0.5836 -1.7507
14666TIP3   OH265488   2.077   0.884 111.640 -0.0673 -0.1351  0.3312
14666TIP3    H165489   2.079   0.821 111.712  0.4046  1.1356  1.4670
14666TIP3    H265490   2.098   0.832 111.563 -0.2967 -1.4825  1.1390
14667TIP3   OH265491   0.503   0.702 109.000  0.5951  0.4630 -0.3092
14667TIP3    H165492   0.485   0.796 108.994 -0.3637  0.2030 -1.9639
14667TIP3    H265493   0.436   0.661 108.946 -0.7153 -1.4288  2.5191
14668TIP3   OH265494   2.663   0.512  76.707 -0.3198  0.0677 -1.1841
14668TIP3    H165495   2.692   0.580  76.647 -0.2035 -0.7047 -2.0254
14668TIP3    H265496   2.567   0.516  76.703 -0.3199  0.7341 -0.5895
14669TIP3   OH265497   0.344   0.991  35.786  0.3974 -0.7934  0.1052
14669TIP3    H165498   0.309   0.902  35.787  0.0665 -0.6750  2.0121
14669TIP3    H265499   0.365   1.007  35.694 -1.5399 -2.0585 -0.6322
14670TIP3   OH265500   2.677   0.704  27.698 -0.0875 -0.0504  0.0328
14670TIP3    H165501   2.676   0.739  27.787  1.5117  0.5729 -0.1574
14670TIP3    H265502   2.605   0.641  27.696 -0.2930  0.0921  1.6945
14671TIP3   OH265503   2.346   0.063  25.631  0.0115 -0.4943 -0.1364
14671TIP3    H165504   2.423   0.105  25.670  0.4176 -0.7015 -0.7018
14671TIP3    H265505   2.289   0.044  25.705  0.1279  0.4215  0.2043
14672TIP3   OH265506   0.711   0.133  21.535 -0.3054 -0.5625  0.0035
14672TIP3    H165507   0.653   0.085  21.594 -1.1289 -0.3397 -0.6016
14672TIP3    H265508   0.754   0.065  21.484  1.2194 -0.8173  1.5449
14673TIP3   OH265509   2.060   0.594 110.586  0.3501 -0.3345 -0.4633
14673TIP3    H165510   2.075   0.685 110.614 -1.1820  0.1568 -1.1251
14673TIP3    H265511   2.064   0.543 110.667  0.4379  0.4297  0.0216
14674TIP3   OH265512   1.127   1.262  91.739  0.5522 -0.0680  0.7463
14674TIP3    H165513   1.087   1.296  91.819 -0.8452 -0.2239  0.1463
14674TIP3    H265514   1.053   1.232  91.686  1.3360  1.2528 -1.1771
14675TIP3   OH265515   1.038   2.119  92.155 -0.3954  0.3273  0.0009
14675TIP3    H165516   1.130   2.096  92.168 -0.9404 -0.4456  3.6651
14675TIP3    H265517   0.997   2.039  92.123 -0.0331  0.2822 -0.3559
14676TIP3   OH265518   2.286   1.830  97.564 -0.2222  0.0497 -0.1311
14676TIP3    H165519   2.205   1.882  97.571 -1.3196 -1.5682 -0.2455
14676TIP3    H265520   2.307   1.807  97.655 -1.1500 -1.3121 -0.2220
14677TIP3   OH265521   2.557   0.332  97.947 -0.6657  0.2051 -0.0572
14677TIP3    H165522   2.556   0.397  98.018 -0.9934  0.4941 -0.3207
14677TIP3    H265523   2.513   0.376  97.874 -1.3129 -0.4830 -0.0870
14678TIP3   OH265524   0.307   1.651 105.678  0.0732  0.0488  0.2134
14678TIP3    H165525   0.256   1.732 105.684  0.9565  0.5312  2.0096
14678TIP3    H265526   0.352   1.657 105.594  0.8555  1.9250  0.7017
14679TIP3   OH265527   2.013   1.413 100.768  0.4316 -0.3391  0.6498
14679TIP3    H165528   1.961   1.347 100.722  1.1303 -0.9476  0.7148
14679TIP3    H265529   2.017   1.382 100.858  0.5375 -0.0707  0.7391
14680TIP3   OH265530   1.053   2.600  10.565  0.4234 -0.0321  0.4915
14680TIP3    H165531   1.102   2.528  10.525 -0.3642  0.7634 -2.1001
14680TIP3    H265532   0.965   2.592  10.529  0.1091  1.7396  0.7699
14681TIP3   OH265533   2.679   1.912  29.317 -0.1350  0.2634  0.1631
14681TIP3    H165534   2.586   1.904  29.338 -0.2655  0.2584 -0.3980
14681TIP3    H265535   2.715   1.967  29.387 -1.0946  2.5833 -1.0350
14682TIP3   OH265536   0.719   1.660  18.261 -0.4254  0.4478  0.4233
14682TIP3    H165537   0.686   1.749  18.275 -0.3102  0.4328  0.8286
14682TIP3    H265538   0.689   1.611  18.338 -0.7531  0.0558  0.0556
14683TIP3   OH265539   1.892   0.657   7.359  0.0516 -0.3623  0.4993
14683TIP3    H165540   1.828   0.670   7.430 -0.3861  0.8729 -0.1017
14683TIP3    H265541   1.850   0.694   7.282  1.7354  1.0752  0.2189
14684TIP3   OH265542   1.943   1.394  63.003  0.6029  1.1213  0.3434
14684TIP3    H165543   1.926   1.484  62.978  1.3658  1.4776  1.0693
14684TIP3    H265544   2.033   1.395  63.037  1.3277 -0.2571 -1.3473
14685TIP3   OH265545   2.649   0.056 105.620 -0.2836  0.1199  0.1940
14685TIP3    H165546   2.639   0.151 105.616  0.0476  0.1231 -1.1113
14685TIP3    H265547   2.713   0.036 105.551  0.1441 -0.9844  0.8908
14686TIP3   OH265548   1.977   2.068  34.085 -0.0056  0.3871  0.2314
14686TIP3    H165549   1.886   2.078  34.115 -0.0760 -0.6724  0.4108
14686TIP3    H265550   2.030   2.095  34.159 -0.1679  0.8898  0.1699
14687TIP3   OH265551   0.540   1.619  75.524 -0.5500 -0.0030 -0.3853
14687TIP3    H165552   0.477   1.670  75.574 -1.9393 -1.3356 -0.6812
14687TIP3    H265553   0.591   1.684  75.475 -0.8192  1.1719  0.8458
14688TIP3   OH265554   2.408   0.586  47.144 -0.7577 -0.2454  0.6258
14688TIP3    H165555   2.342   0.655  47.150 -1.4751 -0.9685  1.2759
14688TIP3    H265556   2.358   0.504  47.148  0.2878 -0.8416  3.1420
14689TIP3   OH265557   0.131   0.498   3.531  0.1092 -0.0352 -0.0037
14689TIP3    H165558   0.117   0.410   3.497 -0.2146 -0.4928  1.2707
14689TIP3    H265559   0.044   0.530   3.554  0.2821  0.3926  0.0713
14690TIP3   OH265560   1.654   0.501  88.750  0.1296 -0.0555  0.4645
14690TIP3    H165561   1.616   0.569  88.806 -0.5707 -0.4400  0.4729
14690TIP3    H265562   1.653   0.539  88.662  2.1328  0.9361  0.7982
14691TIP3   OH265563   1.978   1.166  33.896 -0.3727  0.3030  0.5582
14691TIP3    H165564   1.967   1.183  33.989  0.7385  0.4799  0.6660
14691TIP3    H265565   2.059   1.115  33.890 -0.1072  0.8116 -0.3647
14692TIP3   OH265566   1.465   1.568  53.589 -0.3720 -0.3190 -0.0642
14692TIP3    H165567   1.463   1.483  53.635 -0.8557 -0.3508 -0.1404
14692TIP3    H265568   1.499   1.629  53.654  0.1872 -0.6062 -0.0759
14693TIP3   OH265569   0.240   2.353  96.939  0.1319 -0.5185 -0.2790
14693TIP3    H165570   0.290   2.275  96.963  1.9146  1.1887  2.0922
14693TIP3    H265571   0.149   2.328  96.954  0.6919 -1.9736  1.0133
14694TIP3   OH265572   1.166   1.444 107.334  0.0056 -0.1942 -0.1459
14694TIP3    H165573   1.082   1.406 107.309  0.6013 -1.6328 -0.0499
14694TIP3    H265574   1.225   1.422 107.262 -0.3408  3.5262 -1.7842
14695TIP3   OH265575   2.045   0.302  79.872 -0.4096  0.6764  0.1258
14695TIP3    H165576   2.138   0.283  79.861 -0.8351 -0.8883 -1.3368
14695TIP3    H265577   2.006   0.282  79.786 -2.1454  0.9372  0.8004
14696TIP3   OH265578   1.429   1.921  75.808 -0.1195 -0.0558  0.0593
14696TIP3    H165579   1.479   1.863  75.751 -0.8481 -0.3258 -0.3123
14696TIP3    H265580   1.478   1.921  75.891 -0.1984 -1.3292  0.1279
14697TIP3   OH265581   0.731   0.312  22.632  0.1809 -0.1271 -0.3088
14697TIP3    H165582   0.776   0.261  22.565 -0.8549 -0.1181 -1.0429
14697TIP3    H265583   0.753   0.403  22.611  2.2327 -0.2308  1.1516
14698TIP3   OH265584   0.158   2.400  38.046  0.0337 -0.0534  0.0569
14698TIP3    H165585   0.127   2.316  38.081  0.9303 -0.2534  0.3794
14698TIP3    H265586   0.128   2.465  38.110  1.2500 -0.3679  0.9853
14699TIP3   OH265587   2.120   0.818  23.831  0.1756 -0.3923  0.1370
14699TIP3    H165588   2.050   0.797  23.768  0.8928  0.3626 -0.9567
14699TIP3    H265589   2.075   0.823  23.915 -1.1362  0.2297 -0.5547
14700TIP3   OH265590   0.758   1.779 109.661  0.3864 -0.2569 -0.1806
14700TIP3    H165591   0.770   1.752 109.752  2.4609  0.6852 -0.1050
14700TIP3    H265592   0.755   1.698 109.611  0.4522 -0.7514  0.6097
14701TIP3   OH265593   1.639   1.315  77.591 -0.0604  0.6303  0.2819
14701TIP3    H165594   1.646   1.390  77.532 -0.4112  0.7398  0.3802
14701TIP3    H265595   1.556   1.328  77.637  0.9339  1.4024  1.9757
14702TIP3   OH265596   2.499   2.300  16.604 -0.3186 -0.2579 -0.3298
14702TIP3    H165597   2.439   2.330  16.672 -1.0097 -0.8103 -0.6795
14702TIP3    H265598   2.459   2.220  16.571  1.3646 -1.4524  0.4329
14703TIP3   OH265599   0.673   0.354  25.959  0.0335  0.1443 -0.1407
14703TIP3    H165600   0.715   0.434  25.991  0.2284 -0.6248  1.6193
14703TIP3    H265601   0.632   0.315  26.036 -1.3071 -0.7272 -1.2360
14704TIP3   OH265602   2.359   1.582  95.047 -0.8604  0.0445 -0.3936
14704TIP3    H165603   2.288   1.646  95.043 -1.3310 -0.4026  0.3998
14704TIP3    H265604   2.423   1.612  94.983 -2.5463 -0.4936 -2.4496
14705TIP3   OH265605   2.445   0.230  73.549 -0.1593  0.2579 -0.4448
14705TIP3    H165606   2.522   0.282  73.572 -0.9321  1.1475  0.2102
14705TIP3    H265607   2.408   0.272  73.472  0.0531 -0.2213 -0.8153
14706TIP3   OH265608   2.356   1.799   8.287 -0.2445  0.1905  0.3179
14706TIP3    H165609   2.433   1.846   8.255  1.2404 -1.1023  1.8281
14706TIP3    H265610   2.314   1.860   8.347  0.3909  0.4037  0.5519
14707TIP3   OH265611   0.472   0.907  73.921 -0.3868 -0.1478 -0.5711
14707TIP3    H165612   0.566   0.889  73.931 -0.5492 -1.0332 -0.5685
14707TIP3    H265613   0.457   0.902  73.827 -0.6782 -1.3386 -0.4696
14708TIP3   OH265614   2.062   2.163 104.743  0.4403  0.2787  0.0725
14708TIP3    H165615   2.112   2.167 104.825  0.2926  0.0547  0.1724
14708TIP3    H265616   2.097   2.234 104.689  1.7284 -0.6267 -0.3387
14709TIP3   OH265617   0.544   1.848 106.256 -0.3922 -0.3063 -0.2990
14709TIP3    H165618   0.517   1.914 106.191  1.9593  1.5396  0.4659
14709TIP3    H265619   0.635   1.828 106.234 -0.1243 -1.0206  1.3173
14710TIP3   OH265620   1.916   1.584  94.551 -0.2511 -0.3736  0.1482
14710TIP3    H165621   2.002   1.625  94.539  0.4454 -1.4506  1.2538
14710TIP3    H265622   1.935   1.503  94.597 -1.8216 -0.9212 -0.1263
14711TIP3   OH265623   0.585   0.067  95.864  0.3320  0.9236  0.2755
14711TIP3    H165624   0.652   0.135  95.876 -0.2749  1.2742  1.8173
14711TIP3    H265625   0.562   0.040  95.952 -1.8105  1.0285 -0.2092
14712TIP3   OH265626   1.884   1.801  12.511  0.4736  0.1305 -0.3825
14712TIP3    H165627   1.867   1.748  12.588 -0.6109  0.5957 -0.2840
14712TIP3    H265628   1.825   1.767  12.444  1.8212 -0.6685 -1.2304
14713TIP3   OH265629   1.664   1.444  89.849 -0.5915 -0.0717 -0.2394
14713TIP3    H165630   1.577   1.430  89.886 -0.9123 -0.7075 -1.2060
14713TIP3    H265631   1.674   1.376  89.783  0.2786  0.5617 -0.7867
14714TIP3   OH265632   0.427   1.374   7.101  0.4571  0.1754  0.0336
14714TIP3    H165633   0.466   1.360   7.015  1.4614 -0.9094  0.6387
14714TIP3    H265634   0.420   1.286   7.139 -0.0688  0.6234  1.0199
14715TIP3   OH265635   1.930   0.587  12.965 -0.0751  0.1497 -0.5393
14715TIP3    H165636   1.918   0.680  12.947  1.0313  0.8335  1.8353
14715TIP3    H265637   1.863   0.566  13.029  0.1247 -0.5055 -0.5393
14716TIP3   OH265638   2.445   1.999   5.931 -0.1321  0.3176 -0.0593
14716TIP3    H165639   2.539   1.986   5.940 -0.1444  1.3968  2.2106
14716TIP3    H265640   2.434   2.040   5.845  1.5747  1.1343  0.0799
14717TIP3   OH265641   0.531   2.297  20.858  0.4912  0.1910 -0.6877
14717TIP3    H165642   0.585   2.225  20.826  1.1828  0.3586  0.0670
14717TIP3    H265643   0.589   2.348  20.914  0.6235  2.5229 -2.7768
14718TIP3   OH265644   0.113   0.436  89.422  0.6753 -0.1770  0.0120
14718TIP3    H165645   0.130   0.342  89.413  0.4774 -0.0802 -1.6404
14718TIP3    H265646   0.030   0.440  89.470  0.6749 -0.8351  0.0779
14719TIP3   OH265647   1.580   1.996 101.275 -1.0530  0.3864 -0.5022
14719TIP3    H165648   1.570   1.910 101.315 -1.4759  0.0168 -1.3674
14719TIP3    H265649   1.674   2.001 101.254 -0.6626  0.9321  1.2490
14720TIP3   OH265650   0.581   1.106  12.179 -0.7598  0.6773  0.0404
14720TIP3    H165651   0.580   1.052  12.257 -1.1757  2.6224  1.4545
14720TIP3    H265652   0.508   1.074  12.126 -0.8744 -0.2612  0.7479
14721TIP3   OH265653   2.513   2.459  80.390 -0.3419  0.0151  0.3400
14721TIP3    H165654   2.591   2.512  80.407  0.7794 -0.1333 -3.3292
14721TIP3    H265655   2.440   2.520  80.397  0.5799  1.2632 -0.3246
14722TIP3   OH265656   1.165   0.952  35.567  0.3530  0.2526 -0.2080
14722TIP3    H165657   1.227   0.883  35.543 -0.8489 -1.5907  1.6137
14722TIP3    H265658   1.197   0.984  35.652  0.1877  1.0433 -0.4376
14723TIP3   OH265659   2.608   2.124 112.102  0.0204 -0.1337 -0.0261
14723TIP3    H165660   2.637   2.042 112.063  1.7079  0.5263 -0.2215
14723TIP3    H265661   2.604   2.186 112.030  1.2854  0.5959  0.4922
14724TIP3   OH265662   1.636   0.636  32.785 -0.3825  0.5699 -0.0257
14724TIP3    H165663   1.568   0.652  32.720  0.0964 -0.6954 -0.8833
14724TIP3    H265664   1.590   0.626  32.868 -1.0201  2.0362 -0.1804
14725TIP3   OH265665   0.728   0.080  92.850 -0.2288  0.0142 -0.1994
14725TIP3    H165666   0.727   0.175  92.863  1.9880  0.0793 -0.1583
14725TIP3    H265667   0.680   0.067  92.768 -0.8790  1.1335 -0.0170
14726TIP3   OH265668   0.298   1.936  87.777  0.4743 -0.1231 -0.1640
14726TIP3    H165669   0.238   1.946  87.703 -2.0719 -0.4033  1.7281
14726TIP3    H265670   0.294   2.021  87.822  3.1301  0.5617 -1.0247
14727TIP3   OH265671   0.088   2.629  11.930  0.2276  0.2558  0.4904
14727TIP3    H165672   0.044   2.553  11.893 -1.2682  1.0767  0.5244
14727TIP3    H265673   0.074   2.622  12.024  1.7856 -0.4320  0.7132
14728TIP3   OH265674   1.483   1.746  18.121 -0.0465  0.2370  0.2380
14728TIP3    H165675   1.542   1.732  18.195  0.8742  0.6621 -0.3914
14728TIP3    H265676   1.414   1.681  18.132 -0.1656  0.5812  1.7042
14729TIP3   OH265677   2.222   1.710  73.785 -0.0532 -0.3840 -0.4658
14729TIP3    H165678   2.287   1.679  73.722 -1.0298 -1.2248 -1.0919
14729TIP3    H265679   2.140   1.671  73.757 -0.6386 -0.2912  0.9896
14730TIP3   OH265680   1.826   1.813  27.030  0.2059 -0.0621  0.6571
14730TIP3    H165681   1.877   1.819  27.111  1.2497  2.1392 -0.1005
14730TIP3    H265682   1.773   1.734  27.041  2.4813 -1.4820  2.2362
14731TIP3   OH265683   0.700   2.560  97.590  0.5422  0.1175 -0.0312
14731TIP3    H165684   0.704   2.555  97.494 -0.7176  0.7853 -0.1350
14731TIP3    H265685   0.765   2.496  97.620  2.5623  1.4603 -1.3165
14732TIP3   OH265686   1.997   1.581  82.095 -0.7495  0.0573 -0.3443
14732TIP3    H165687   2.061   1.588  82.166  0.3965 -2.6100 -0.9625
14732TIP3    H265688   1.916   1.552  82.138 -0.0667 -1.5388 -0.0504
14733TIP3   OH265689   1.555   0.237  97.914  0.6578  0.5352 -0.3725
14733TIP3    H165690   1.573   0.265  97.825 -0.2500 -0.4028 -0.8789
14733TIP3    H265691   1.482   0.292  97.943 -0.5797 -0.6575 -1.0716
14734TIP3   OH265692   0.790   1.557  12.250  0.0634 -0.0815 -0.2034
14734TIP3    H165693   0.750   1.644  12.249  0.4755  0.1123  0.1089
14734TIP3    H265694   0.876   1.569  12.210  0.1455 -0.3364 -0.1099
14735TIP3   OH265695   2.261   0.013 100.501 -0.6850  0.3509 -0.3536
14735TIP3    H165696   2.267  -0.023 100.413 -0.8148  1.6152 -0.8937
14735TIP3    H265697   2.319  -0.043 100.553 -1.0241 -0.7410 -1.1135
14736TIP3   OH265698   2.333   0.074 110.691 -0.1753  0.3075  0.1058
14736TIP3    H165699   2.327   0.138 110.620  1.3156  2.0567  1.4522
14736TIP3    H265700   2.416   0.028 110.674 -0.9963 -0.9609 -0.5796
14737TIP3   OH265701   0.884   2.096  18.308 -0.3884 -0.5587 -0.3687
14737TIP3    H165702   0.930   2.180  18.303 -1.3473 -0.0779 -2.2863
14737TIP3    H265703   0.836   2.100  18.391 -0.9545  1.1019 -0.7350
14738TIP3   OH265704   0.578   1.581  20.097  0.1009  0.4715 -0.7615
14738TIP3    H165705   0.670   1.605  20.095 -0.0593  1.1238 -2.1318
14738TIP3    H265706   0.549   1.592  20.006 -1.8247  2.3789 -0.0158
14739TIP3   OH265707   1.797   2.245 111.259 -0.3443  0.0516  0.2008
14739TIP3    H165708   1.861   2.307 111.293  0.5665  0.0387 -1.3878
14739TIP3    H265709   1.720   2.298 111.239 -0.1923  0.3773  0.4761
14740TIP3   OH265710   0.684   2.183  84.144  0.0123 -0.5090  0.3115
14740TIP3    H165711   0.614   2.247  84.138  0.3670 -0.1626 -0.2062
14740TIP3    H265712   0.678   2.133  84.063  0.3567 -0.4841  0.2673
14741TIP3   OH265713   0.986   1.685   0.199  0.1728  0.2439  0.5057
14741TIP3    H165714   1.008   1.775   0.222 -0.4402  0.3534  0.6667
14741TIP3    H265715   0.893   1.676   0.220 -0.1001 -0.0363 -0.7242
14742TIP3   OH265716   2.447   0.722 110.458 -0.5802  0.2993  0.2399
14742TIP3    H165717   2.537   0.749 110.438 -0.1342  0.0542  1.8223
14742TIP3    H265718   2.403   0.803 110.485 -1.2598  0.6800 -1.7555
14743TIP3   OH265719   0.667   2.571  13.100 -0.6438 -0.1990  0.7218
14743TIP3    H165720   0.649   2.633  13.030  1.0020  0.4451  0.8221
14743TIP3    H265721   0.623   2.490  13.073 -1.8725  0.6621  0.0449
14744TIP3   OH265722   2.106   0.909  94.699 -0.1457 -0.2101  0.0031
14744TIP3    H165723   2.011   0.901  94.691 -0.3293  0.5186  1.1839
14744TIP3    H265724   2.141   0.838  94.644 -1.4158 -2.2794  1.7060
14745TIP3   OH265725   1.167   0.340  24.928  1.1508  0.2839  0.2036
14745TIP3    H165726   1.151   0.402  24.857  0.0198  0.7396  0.8235
14745TIP3    H265727   1.204   0.394  24.998  1.0835  0.0768  0.3991
14746TIP3   OH265728   1.105   1.527  91.384 -0.4071  0.4935 -0.3794
14746TIP3    H165729   1.192   1.534  91.345 -0.8808 -0.9973 -1.8278
14746TIP3    H265730   1.072   1.616  91.385  0.3923  0.8305 -1.6232
14747TIP3   OH265731   0.869   2.511 103.713  0.0494  0.4463  0.1648
14747TIP3    H165732   0.803   2.570 103.677  0.5458  1.2856  0.6098
14747TIP3    H265733   0.834   2.423 103.696 -0.2333  0.8293 -1.3817
14748TIP3   OH265734   2.441   1.273 103.349 -0.2341 -0.8167  0.3511
14748TIP3    H165735   2.429   1.357 103.304  0.5078  0.4854  2.4539
14748TIP3    H265736   2.517   1.234 103.306  0.2590  0.2318  0.2218
14749TIP3   OH265737   0.285   2.647 105.009  0.3353 -0.1135  0.1961
14749TIP3    H165738   0.279   2.721 105.070  1.1029 -1.1197  1.5450
14749TIP3    H265739   0.321   2.685 104.929 -0.0934  1.1277  0.5642
14750TIP3   OH265740   2.414   1.514   3.303 -0.0677 -0.0074  0.3164
14750TIP3    H165741   2.391   1.599   3.265  0.8513  0.4015  0.6605
14750TIP3    H265742   2.374   1.514   3.389 -0.1834  0.0220  0.2626
14751TIP3   OH265743   0.249   2.046  88.561 -0.2436 -0.1129  1.0021
14751TIP3    H165744   0.230   2.056  88.654  0.3602 -0.7865  1.2115
14751TIP3    H265745   0.206   1.964  88.536  0.4008 -0.4434  0.9350
14752TIP3   OH265746   2.656   1.398   0.247 -0.1146  0.0988 -0.4633
14752TIP3    H165747   2.654   1.325   0.186 -0.5450  0.7766 -1.2798
14752TIP3    H265748   2.730   1.451   0.220 -0.9629  0.9888 -1.1288
14753TIP3   OH265749   1.501   1.093   1.295  0.2217  0.1138  0.2840
14753TIP3    H165750   1.472   1.174   1.336 -0.1190  0.9812 -1.6034
14753TIP3    H265751   1.471   1.099   1.205  2.2946 -1.0258 -0.5581
14754TIP3   OH265752   1.754   0.836  58.295  0.7867  0.8016 -0.4352
14754TIP3    H165753   1.700   0.888  58.236  0.9603  1.6094  0.0994
14754TIP3    H265754   1.760   0.750  58.253  2.6474  1.9065 -2.6882
14755TIP3   OH265755   2.345   1.123  28.676  0.7367 -0.1633 -0.4245
14755TIP3    H165756   2.270   1.181  28.676  0.8477 -0.0135  0.0058
14755TIP3    H265757   2.323   1.055  28.612  0.1358 -0.2543 -0.1243
14756TIP3   OH265758   2.068   0.201 103.291 -1.0879 -0.2381 -0.1647
14756TIP3    H165759   2.080   0.112 103.258 -0.1496 -0.1669 -0.0379
14756TIP3    H265760   2.129   0.254 103.239 -1.6499  0.3349 -0.2510
14757TIP3   OH265761   2.537   0.486   5.790  0.5655 -0.1110  0.0146
14757TIP3    H165762   2.554   0.396   5.817  0.8988 -0.3431 -0.9094
14757TIP3    H265763   2.556   0.486   5.696  1.7723  1.2110  0.2241
14758TIP3   OH265764   1.839   1.610  76.680 -0.1641  0.0044 -0.0173
14758TIP3    H165765   1.900   1.621  76.754 -0.9279  0.2618  0.5842
14758TIP3    H265766   1.842   1.517  76.659  1.1364  0.1494 -0.6151
14759TIP3   OH265767   1.263   0.960  88.177  0.1117 -0.4141  0.0248
14759TIP3    H165768   1.244   1.015  88.101 -1.2488 -1.5739 -0.5053
14759TIP3    H265769   1.351   0.988  88.205  0.4468  0.3492 -1.6669
14760TIP3   OH265770   1.115   1.279  86.656 -0.1298 -0.4826 -0.3147
14760TIP3    H165771   1.023   1.297  86.635 -0.6037 -0.3640  1.6829
14760TIP3    H265772   1.134   1.197  86.611 -1.9071 -1.6938  0.9886
14761TIP3   OH265773   1.762   1.067  80.169  0.7783 -0.0229 -0.2288
14761TIP3    H165774   1.811   1.113  80.100  0.2440 -1.8519 -1.9382
14761TIP3    H265775   1.672   1.100  80.160  0.9838  0.7772  0.5765
14762TIP3   OH265776   1.034   2.203  11.580  0.1698 -0.1990  0.7474
14762TIP3    H165777   1.088   2.275  11.547 -1.3186  1.1157  1.0459
14762TIP3    H265778   0.947   2.242  11.590 -1.3354 -2.6914 -1.4763
14763TIP3   OH265779   0.279   1.628  77.082  0.0208 -0.1740 -0.2055
14763TIP3    H165780   0.230   1.550  77.055  0.4568 -0.3042 -0.6400
14763TIP3    H265781   0.309   1.667  76.999 -2.0297  1.6958 -0.1738
14764TIP3   OH265782   2.491   2.458   0.216 -0.2751  0.1328  0.4056
14764TIP3    H165783   2.442   2.393   0.266  1.4650 -0.8772  0.8721
14764TIP3    H265784   2.527   2.517   0.282  1.0013 -0.4743  0.2728
14765TIP3   OH265785   0.657   1.857  85.345 -0.5327  0.4269  0.0846
14765TIP3    H165786   0.743   1.844  85.386 -0.6060  0.5751  0.2871
14765TIP3    H265787   0.670   1.932  85.287 -0.5896  0.6033  0.2969
14766TIP3   OH265788   1.621   1.817  29.828 -0.3715 -0.0617  0.4364
14766TIP3    H165789   1.536   1.824  29.785  0.1635 -0.8458 -0.8026
14766TIP3    H265790   1.678   1.777  29.762  1.0722  0.8358  1.0894
14767TIP3   OH265791   1.730   0.453 109.087 -0.7057  0.2441 -0.5010
14767TIP3    H165792   1.651   0.450 109.141 -0.7509  0.2602 -0.5629
14767TIP3    H265793   1.747   0.362 109.064  0.7066 -0.0881  1.5878
14768TIP3   OH265794   1.460   2.113 110.643  0.1566  0.2211  0.2241
14768TIP3    H165795   1.505   2.037 110.680  1.3547 -0.4070 -2.2734
14768TIP3    H265796   1.405   2.146 110.714  2.4069 -0.7210  2.5664
14769TIP3   OH265797   1.107   0.712  91.117 -0.4603 -0.3602  0.2300
14769TIP3    H165798   1.138   0.700  91.207 -0.3416  4.0203  0.9978
14769TIP3    H265799   1.177   0.678  91.062  0.1282 -1.7551  1.7466
14770TIP3   OH265800   2.399   1.084  14.748  0.2839  0.0387  0.5653
14770TIP3    H165801   2.396   1.019  14.819  0.5308 -0.4772  0.1134
14770TIP3    H265802   2.359   1.162  14.786  1.4108  0.1262  1.6381
14771TIP3   OH265803   2.493   1.138 103.973  0.1636 -0.3230 -0.2207
14771TIP3    H165804   2.532   1.101 104.052 -0.1091 -0.5931 -0.2147
14771TIP3    H265805   2.410   1.174 104.002  0.6086  0.6803 -0.1494
14772TIP3   OH265806   1.829   1.320  10.389 -0.0960  0.2003  0.1850
14772TIP3    H165807   1.739   1.350  10.397  0.2107  1.0160  0.6826
14772TIP3    H265808   1.841   1.258  10.460 -0.0469  0.6789  0.6056
14773TIP3   OH265809   0.980   1.986 106.144 -0.3310 -0.5853 -0.2032
14773TIP3    H165810   1.045   1.979 106.214 -0.4148 -0.0512 -0.0715
14773TIP3    H265811   1.028   1.963 106.064 -0.5090 -2.3456  0.1492
14774TIP3   OH265812   1.389   2.345  22.221 -0.5736 -0.5351  0.3950
14774TIP3    H165813   1.347   2.370  22.303  0.3641 -0.7052  0.9449
14774TIP3    H265814   1.331   2.280  22.183 -0.3602 -1.4721  1.6051
14775TIP3   OH265815   0.164   2.190  32.774 -0.8917 -0.2998  0.0646
14775TIP3    H165816   0.198   2.270  32.815 -0.9648 -0.9582  1.4543
14775TIP3    H265817   0.081   2.217  32.735 -0.8262  0.3566  0.3647
14776TIP3   OH265818   1.678   1.413  88.205 -0.2868 -0.0400  0.5655
14776TIP3    H165819   1.602   1.450  88.250 -0.0265  0.5633  0.5216
14776TIP3    H265820   1.748   1.416  88.270 -0.4829 -1.3166  0.8596
14777TIP3   OH265821   0.415   1.178  97.324  0.0708  0.2416  0.5468
14777TIP3    H165822   0.387   1.102  97.376  0.6032  0.0389  0.5456
14777TIP3    H265823   0.338   1.201  97.273 -0.6736  0.8644  1.9085
14778TIP3   OH265824   1.390   0.644  78.607 -0.0307 -0.1534  0.0588
14778TIP3    H165825   1.458   0.579  78.594  2.4075  2.1045  0.7440
14778TIP3    H265826   1.382   0.653  78.702 -0.5375  0.3252 -0.0202
14779TIP3   OH265827   1.117   2.016   2.116  0.0681  0.1115 -0.3727
14779TIP3    H165828   1.117   2.094   2.060 -0.4805  1.1305  0.9889
14779TIP3    H265829   1.069   2.043   2.195  1.1520 -1.1380  0.7686
14780TIP3   OH265830   0.322   1.106   3.274 -0.2639 -0.3556 -0.6423
14780TIP3    H165831   0.332   1.011   3.275 -0.3194 -0.3607 -0.5889
14780TIP3    H265832   0.399   1.138   3.226 -1.1152 -0.5237 -2.1854
14781TIP3   OH265833   1.857   0.727  97.259  0.1975  0.2170  0.3102
14781TIP3    H165834   1.941   0.731  97.213 -0.0023 -1.3022 -0.2318
14781TIP3    H265835   1.873   0.776  97.340  1.4769  0.3346  0.0227
14782TIP3   OH265836   0.171   0.355  76.566  0.3790 -0.2608 -0.4052
14782TIP3    H165837   0.230   0.289  76.531  1.3115 -0.0183  0.6674
14782TIP3    H265838   0.088   0.308  76.578  0.3594 -0.6356 -1.7879
14783TIP3   OH265839   0.391   1.109  81.828  0.1872  0.8583 -0.3662
14783TIP3    H165840   0.398   1.199  81.796 -0.8730  1.1580  0.2044
14783TIP3    H265841   0.301   1.101  81.858  0.3574 -0.3057 -0.1149
14784TIP3   OH265842   1.663   0.360  74.208  0.2025 -0.0708 -0.6258
14784TIP3    H165843   1.606   0.317  74.144 -0.0812 -1.4573  0.5013
14784TIP3    H265844   1.748   0.365  74.164 -0.5112  1.1039 -1.9501
14785TIP3   OH265845   0.305   2.434 104.834 -0.0972 -0.1315  0.1102
14785TIP3    H165846   0.281   2.502 104.896  0.6875  0.3132 -0.0527
14785TIP3    H265847   0.225   2.415 104.785 -0.4340  0.3403  0.4784
14786TIP3   OH265848   0.973   2.306  35.230 -0.1209  0.3793 -0.4007
14786TIP3    H165849   1.003   2.223  35.193 -1.2294 -1.2953  2.2149
14786TIP3    H265850   1.052   2.346  35.267  0.3450  0.3606 -1.3332
14787TIP3   OH265851   1.593   1.667  32.430 -0.4537  0.0448 -0.2718
14787TIP3    H165852   1.594   1.759  32.402 -0.0803 -0.0449 -0.5516
14787TIP3    H265853   1.555   1.620  32.355  0.2152 -0.1481 -0.4977
14788TIP3   OH265854   1.097   2.229  10.889 -0.0193 -0.6048  0.0428
14788TIP3    H165855   1.101   2.135  10.875  0.2509 -0.4093 -1.3930
14788TIP3    H265856   1.185   2.260  10.869  0.0443 -0.1115  1.0559
14789TIP3   OH265857   1.549   0.020  12.076  0.3040 -0.7908 -0.1755
14789TIP3    H165858   1.540  -0.049  12.141  1.5635 -0.7298  0.0937
14789TIP3    H265859   1.473   0.010  12.018 -0.1414 -1.6471  0.5470
14790TIP3   OH265860   0.657   1.931  29.465 -0.0412 -0.6057  0.4420
14790TIP3    H165861   0.656   1.894  29.553 -2.8782  0.4933  0.9910
14790TIP3    H265862   0.588   1.998  29.467  0.0741 -0.2848 -2.5111
14791TIP3   OH265863   1.711   2.020 109.467 -0.1560 -0.1174  0.3695
14791TIP3    H165864   1.623   2.019 109.503 -0.7837 -0.6818 -1.1298
14791TIP3    H265865   1.700   2.043 109.375  1.1794 -0.9598 -0.0322
14792TIP3   OH265866   2.101   0.777  86.184 -0.2816 -0.5714 -0.0071
14792TIP3    H165867   2.022   0.831  86.189  0.0127 -0.1161 -0.2871
14792TIP3    H265868   2.140   0.783  86.271  0.5334  0.8564 -0.4508
14793TIP3   OH265869   0.705   0.367  66.763 -0.5790 -0.4542 -0.0518
14793TIP3    H165870   0.729   0.367  66.671  0.9017  0.4501  0.2944
14793TIP3    H265871   0.711   0.275  66.790 -1.0485 -0.7222 -0.8561
14794TIP3   OH265872   0.566   0.784 103.092 -0.0747 -0.0180  0.1858
14794TIP3    H165873   0.555   0.879 103.086 -0.2252 -0.0849 -0.7545
14794TIP3    H265874   0.482   0.751 103.123  0.6425  0.3247  2.7347
14795TIP3   OH265875   0.987   1.069  36.007  0.4190 -0.2391 -0.0904
14795TIP3    H165876   0.899   1.042  36.033  1.1579 -0.4806  2.4622
14795TIP3    H265877   1.029   0.988  35.979  0.3724 -0.4713  0.4863
14796TIP3   OH265878   0.884   1.506  28.341 -0.4547  0.2531  1.0662
14796TIP3    H165879   0.938   1.567  28.291 -0.9440  1.0249  1.4686
14796TIP3    H265880   0.908   1.420  28.306 -0.0243  0.6901  0.2382
14797TIP3   OH265881   1.063   1.528  77.997 -0.1836  0.6337  0.1839
14797TIP3    H165882   0.983   1.570  77.965  1.1318  1.8464 -1.7606
14797TIP3    H265883   1.038   1.490  78.081 -2.8539  0.7165 -0.4769
14798TIP3   OH265884   1.050   2.259   3.980  0.6267 -0.1693  0.2297
14798TIP3    H165885   0.998   2.199   4.033  0.8886 -0.4725  0.1403
14798TIP3    H265886   1.029   2.237   3.889  2.6733 -1.9188  0.0910
14799TIP3   OH265887   1.559   1.255  13.802 -0.7400 -0.2029  0.7172
14799TIP3    H165888   1.634   1.249  13.742  0.2671  0.6680  1.8496
14799TIP3    H265889   1.494   1.305  13.753  0.4474  1.3753  0.6501
14800TIP3   OH265890   1.103   1.764  63.896 -0.1151  0.3092  0.2792
14800TIP3    H165891   1.127   1.854  63.918  0.6935 -0.3617  2.4511
14800TIP3    H265892   1.185   1.724  63.866 -0.2637  0.0616  0.2010
14801TIP3   OH265893   2.072   0.594  74.470  0.2941 -0.1738 -0.3204
14801TIP3    H165894   2.008   0.523  74.467  0.8209 -0.6462 -0.6555
14801TIP3    H265895   2.035   0.662  74.414  0.5591 -0.8606 -1.3688
14802TIP3   OH265896   2.550   1.375  77.877 -0.1654  0.1987  0.5784
14802TIP3    H165897   2.484   1.346  77.940 -2.2893  0.1289 -1.5552
14802TIP3    H265898   2.574   1.295  77.829  0.3223  0.5027  0.3107
14803TIP3   OH265899   0.999   2.126  22.960 -0.4842 -0.5179  0.1192
14803TIP3    H165900   1.042   2.070  23.025 -0.3180  0.2038  0.6530
14803TIP3    H265901   0.920   2.079  22.936 -0.7130 -0.6637  1.0966
14804TIP3   OH265902   1.391   1.588 110.094 -0.3056  0.3776  0.2665
14804TIP3    H165903   1.349   1.514 110.051 -0.0083 -0.6913  1.7644
14804TIP3    H265904   1.360   1.585 110.184  2.1062  0.1792  1.1688
14805TIP3   OH265905   1.717   2.587   2.001  0.6310 -0.1957 -0.0466
14805TIP3    H165906   1.723   2.561   2.093 -0.2632  1.1833  0.4368
14805TIP3    H265907   1.739   2.508   1.952  1.5680 -0.8413  1.3456
14806TIP3   OH265908   1.815   2.058  15.358  0.2732  0.5372  0.1834
14806TIP3    H165909   1.806   1.973  15.402  1.6303 -0.1382 -0.7781
14806TIP3    H265910   1.751   2.115  15.402  0.1022 -0.6795  1.5792
14807TIP3   OH265911   0.565   0.880  93.901  0.3119 -0.0660  0.1365
14807TIP3    H165912   0.476   0.903  93.927 -0.2849 -0.9292 -1.0260
14807TIP3    H265913   0.592   0.812  93.963  0.5144  0.8204  1.0406
14808TIP3   OH265914   1.571   2.401  98.326  0.3564 -0.1569 -0.0988
14808TIP3    H165915   1.557   2.494  98.306 -1.1179 -0.4643 -0.5993
14808TIP3    H265916   1.597   2.363  98.242 -3.6307 -1.0214 -1.1382
14809TIP3   OH265917   0.181   0.261  21.553 -0.5454 -0.0503  0.2482
14809TIP3    H165918   0.247   0.221  21.497 -0.2699 -0.0583  0.5733
14809TIP3    H265919   0.225   0.335  21.594 -0.9504  0.3830 -0.0857
14810TIP3   OH265920   2.322   1.520  13.042  0.5161 -0.0494 -0.4967
14810TIP3    H165921   2.260   1.592  13.048 -0.2206 -0.3858 -2.8916
14810TIP3    H265922   2.372   1.539  12.962  0.8534 -1.7512 -0.7263
14811TIP3   OH265923   1.980   1.651   5.409 -0.4421 -0.1764  0.0342
14811TIP3    H165924   1.976   1.576   5.350 -1.0343  0.5308 -0.8506
14811TIP3    H265925   2.017   1.616   5.490  0.9794 -1.0397 -0.9525
14812TIP3   OH265926   0.519   0.121  80.133  0.5950  0.1234  0.5183
14812TIP3    H165927   0.437   0.168  80.149  0.0125 -0.9614  0.8705
14812TIP3    H265928   0.568   0.177  80.073 -0.9279  0.2557 -0.6650
14813TIP3   OH265929   0.690   2.208 107.909  0.0694 -0.2393  0.1975
14813TIP3    H165930   0.710   2.134 107.852  2.0529  0.9075 -0.7154
14813TIP3    H265931   0.739   2.190 107.989 -0.1526 -0.3174  0.3131
14814TIP3   OH265932   1.946   1.069  18.791  0.0073  0.0552 -0.6031
14814TIP3    H165933   2.010   1.127  18.749 -1.2269  1.2418 -0.8941
14814TIP3    H265934   1.903   1.123  18.857 -1.7461 -0.2508 -1.4349
14815TIP3   OH265935   0.091   1.315  32.508 -0.4030  0.4084 -0.1132
14815TIP3    H165936   0.169   1.340  32.459 -0.0558 -0.7319 -0.1806
14815TIP3    H265937   0.114   1.332  32.600  0.1720 -0.4826 -0.0742
14816TIP3   OH265938   1.273   0.800  79.599  0.0801  0.1180  0.0752
14816TIP3    H165939   1.200   0.816  79.539 -0.9774 -0.2546  1.2318
14816TIP3    H265940   1.320   0.726  79.560 -0.4453  0.0391 -0.4241
14817TIP3   OH265941   0.052   1.150 106.696 -0.3194  0.2628 -0.1038
14817TIP3    H165942   0.067   1.173 106.787  0.5618 -1.0964  0.1313
14817TIP3    H265943   0.140   1.145 106.658 -0.7292  2.2917 -1.4306
14818TIP3   OH265944   2.379   1.646  91.538  0.2541  0.5238 -0.2622
14818TIP3    H165945   2.359   1.680  91.625 -0.3461  3.2833 -1.3565
14818TIP3    H265946   2.298   1.603  91.509  0.5969 -0.7905  0.6492
14819TIP3   OH265947   0.683   1.971  93.170  0.2373 -0.2912  0.0619
14819TIP3    H165948   0.752   1.935  93.115 -0.0895 -0.8284 -0.0018
14819TIP3    H265949   0.602   1.933  93.136 -0.1804  0.8847 -0.3181
14820TIP3   OH265950   2.614   0.924  92.763 -0.3584  0.2099 -0.4389
14820TIP3    H165951   2.663   0.956  92.839 -1.3427  4.0828 -1.2097
14820TIP3    H265952   2.667   0.949  92.688 -1.2378  0.0795 -1.1231
14821TIP3   OH265953   1.096   1.915  86.315  0.2325  0.3970  0.4869
14821TIP3    H165954   1.156   1.905  86.388  0.4382  0.1541  0.2907
14821TIP3    H265955   1.041   1.837  86.318  0.2655  0.3683  0.3660
14822TIP3   OH265956   1.184   1.683  37.265 -0.2006 -0.3069 -0.8447
14822TIP3    H165957   1.146   1.595  37.260 -0.2578 -0.3546  0.1948
14822TIP3    H265958   1.266   1.671  37.312 -1.0020  0.4164  0.8100
14823TIP3   OH265959   2.024   1.644 112.190  0.3059 -0.2871 -0.1269
14823TIP3    H165960   2.057   1.731 112.166  0.5865 -0.5910 -0.8719
14823TIP3    H265961   1.952   1.628 112.129 -1.6479  0.5778  1.7938
14824TIP3   OH265962   2.134   2.335  99.741 -0.3495 -0.4897 -0.2149
14824TIP3    H165963   2.119   2.242  99.757 -0.8762 -0.3820 -0.0575
14824TIP3    H265964   2.046   2.372  99.730 -0.1668  0.0423  0.0537
14825TIP3   OH265965   2.273   2.407  98.384 -0.0093 -0.5743 -0.2041
14825TIP3    H165966   2.202   2.372  98.330 -0.8996  1.6706 -0.5955
14825TIP3    H265967   2.295   2.492  98.344  2.4172 -0.8540  0.3338
14826TIP3   OH265968   1.344   1.725  84.334 -0.1786 -0.0871 -0.2949
14826TIP3    H165969   1.347   1.730  84.430  2.3481 -0.7814 -0.2671
14826TIP3    H265970   1.328   1.633  84.315 -1.5737  0.1897 -0.5890
14827TIP3   OH265971   1.320   2.053 107.041  0.1181  0.0375 -0.2657
14827TIP3    H165972   1.411   2.043 107.015  0.6975  1.7481  0.9484
14827TIP3    H265973   1.299   1.970 107.085  1.3964  0.0088  0.3272
14828TIP3   OH265974   0.347   2.422 110.226  0.0017  0.2183 -0.6094
14828TIP3    H165975   0.282   2.465 110.282 -0.7712 -1.3152 -0.2729
14828TIP3    H265976   0.431   2.445 110.264 -0.4932 -0.3243  0.8672
14829TIP3   OH265977   0.383   2.314   8.992 -0.0046  0.1994  0.3005
14829TIP3    H165978   0.303   2.352   8.956  1.3556  0.3187 -2.8523
14829TIP3    H265979   0.438   2.389   9.014 -0.0748  0.0844  0.9022
14830TIP3   OH265980   0.037   1.936  77.796  0.9031 -0.1988  0.2099
14830TIP3    H165981   0.095   1.996  77.843  0.3746  1.5535 -1.2481
14830TIP3    H265982   0.083   1.852  77.796  1.3087 -0.0571  3.0194
14831TIP3   OH265983   1.433   0.388  92.542 -0.3954 -0.0485 -0.0199
14831TIP3    H165984   1.484   0.411  92.619  0.7958  0.8726 -1.0345
14831TIP3    H265985   1.486   0.323  92.496 -0.0472  0.9929 -1.1361
14832TIP3   OH265986   0.017   0.403 100.258  0.3620 -0.3415 -0.0194
14832TIP3    H165987   0.030   0.420 100.165  1.8015 -1.2277 -0.0253
14832TIP3    H265988  -0.024   0.482 100.292 -1.1914 -0.4215 -1.5906
14833TIP3   OH265989   1.406   2.159  11.887 -0.8908  0.0705 -0.3932
14833TIP3    H165990   1.311   2.153  11.878 -1.0181  1.2103  0.0512
14833TIP3    H265991   1.424   2.126  11.975 -0.9978  0.8611 -0.0678
14834TIP3   OH265992   0.135   0.965  99.934 -0.3769 -0.2967 -0.8138
14834TIP3    H165993   0.154   1.010 100.016 -3.0669  0.2339 -0.4031
14834TIP3    H265994   0.134   0.872  99.957 -2.4135 -0.0918  0.1343
14835TIP3   OH265995   2.643   0.139  25.904  0.4354  0.3719 -0.3327
14835TIP3    H165996   2.676   0.207  25.846  0.9282  0.0235 -0.4772
14835TIP3    H265997   2.686   0.157  25.988  0.4514  0.3328 -0.3318
14836TIP3   OH265998   0.635   0.583 102.107  0.3728  0.1108  0.2554
14836TIP3    H165999   0.681   0.590 102.023  0.8565  1.0057  0.5915
14836TIP3    H266000   0.551   0.626 102.092  0.0911 -0.5062 -0.0167
14837TIP3   OH266001   1.585   0.962  20.986 -0.4551  0.1458  0.6082
14837TIP3    H166002   1.645   0.956  21.061  0.0905  0.3871  0.1970
14837TIP3    H266003   1.591   1.054  20.958 -0.2204 -0.0716 -0.0767
14838TIP3   OH266004   0.498   2.124   1.873 -0.1364 -0.0436 -0.1831
14838TIP3    H166005   0.460   2.200   1.918  1.3580  0.9715 -0.5633
14838TIP3    H266006   0.518   2.156   1.785  1.3339 -0.6126 -0.0771
14839TIP3   OH266007   2.087   0.815 100.055 -0.1310  0.2329 -0.3246
14839TIP3    H166008   2.005   0.818 100.103  0.4115  0.4789  0.6195
14839TIP3    H266009   2.103   0.721 100.040  0.1393  0.0842  0.7903
14840TIP3   OH266010   0.381   0.208  76.839  0.0440  0.1364 -0.8405
14840TIP3    H166011   0.312   0.156  76.879 -0.3084  0.9489 -0.3558
14840TIP3    H266012   0.456   0.199  76.899  0.2125 -0.3653 -1.1234
14841TIP3   OH266013   0.809   2.520  92.586  0.1292 -0.3938 -0.1582
14841TIP3    H166014   0.755   2.599  92.591 -0.2325 -0.6473 -0.0262
14841TIP3    H266015   0.880   2.534  92.648 -0.7242 -0.7744  0.9298
14842TIP3   OH266016   2.253   0.832 101.469  0.6035  0.0214 -0.0913
14842TIP3    H166017   2.212   0.863 101.549  1.4843  0.4887  0.1982
14842TIP3    H266018   2.316   0.766 101.498  0.1051 -0.6550 -0.5187
14843TIP3   OH266019   1.774   1.807   5.485  0.1559  0.3565 -0.0387
14843TIP3    H166020   1.844   1.746   5.461  0.7031  0.5893  0.9016
14843TIP3    H266021   1.758   1.859   5.407  0.3733 -0.3308 -0.5485
14844TIP3   OH266022   1.984   0.137   4.678 -0.0516  0.0502 -0.0978
14844TIP3    H166023   1.979   0.057   4.626 -1.5863  0.3515 -0.4760
14844TIP3    H266024   2.077   0.151   4.693  0.2217 -2.1153  0.4697
14845TIP3   OH266025   0.667   0.165  88.761 -0.5058  0.1195 -0.0683
14845TIP3    H166026   0.646   0.074  88.739  1.4565 -0.0447 -1.5391
14845TIP3    H266027   0.599   0.216  88.718 -0.8487 -0.5952 -0.3945
14846TIP3   OH266028   1.009   2.095  76.420 -0.0667 -0.2673 -0.0534
14846TIP3    H166029   1.042   2.111  76.508 -0.4431  0.4315 -0.0265
14846TIP3    H266030   1.085   2.104  76.363  0.9461 -4.1023  0.4626
14847TIP3   OH266031   0.133   1.721  86.703 -0.1027  0.6391  0.1845
14847TIP3    H166032   0.177   1.770  86.773  1.7211 -2.0789  1.1205
14847TIP3    H266033   0.194   1.723  86.630 -0.3257  0.3809 -0.0108
14848TIP3   OH266034   0.996   0.711  93.052 -0.2277 -0.6098 -0.6670
14848TIP3    H166035   0.969   0.783  92.994 -0.3257 -0.0370  0.0762
14848TIP3    H266036   1.091   0.711  93.046  0.1055  2.0344  2.0961
14849TIP3   OH266037   0.163   1.718  30.228 -0.4383  0.0247 -0.0439
14849TIP3    H166038   0.146   1.650  30.293  0.3381 -1.5752 -1.4546
14849TIP3    H266039   0.204   1.789  30.278 -1.0873 -0.5790  1.4260
14850TIP3   OH266040   1.285   1.456  63.623  0.1377  0.2659 -0.0672
14850TIP3    H166041   1.220   1.430  63.688  1.7861 -1.9391  0.8197
14850TIP3    H266042   1.241   1.444  63.539 -1.3254  1.0876  0.5405
14851TIP3   OH266043   1.187   0.541  88.358  0.3023 -0.6964  0.0852
14851TIP3    H166044   1.173   0.615  88.299 -0.8714 -0.3312  0.7973
14851TIP3    H266045   1.117   0.548  88.423  1.6176 -1.0118  1.6141
14852TIP3   OH266046   0.337   0.963  15.537 -0.0357 -0.2461  0.2061
14852TIP3    H166047   0.290   0.929  15.613  0.8014  0.8926  1.2842
14852TIP3    H266048   0.274   1.022  15.495 -0.3342 -0.4964  0.2948
14853TIP3   OH266049   2.251   0.096  12.206 -0.0831  0.2113  0.0455
14853TIP3    H166050   2.224   0.065  12.293  0.3011  0.4089  0.2355
14853TIP3    H266051   2.170   0.098  12.155 -0.2814 -0.0740  0.3500
14854TIP3   OH266052   1.962   2.248  85.340  0.2725 -0.6372  0.4222
14854TIP3    H166053   2.034   2.270  85.400  0.7488 -1.9738  0.3727
14854TIP3    H266054   1.915   2.177  85.385  0.0666 -0.9961 -0.3529
14855TIP3   OH266055   0.002   1.611  17.471 -0.2473 -0.1688 -0.3183
14855TIP3    H166056  -0.085   1.650  17.480  0.1197  0.6392 -0.1489
14855TIP3    H266057   0.052   1.648  17.545  1.2738  2.2392 -2.3858
14856TIP3   OH266058   0.524   1.381 101.981 -0.3133  0.1891  0.0765
14856TIP3    H166059   0.533   1.293 101.944  0.2214  0.7027 -1.0435
14856TIP3    H266060   0.613   1.413 101.991 -0.4866  0.4605  0.8995
14857TIP3   OH266061   1.293   1.834 101.946  0.2344 -0.0405 -0.4363
14857TIP3    H166062   1.236   1.908 101.928  0.5559  0.2614 -0.2183
14857TIP3    H266063   1.233   1.760 101.958 -0.2531  0.6186  1.5759
14858TIP3   OH266064   0.913   0.715  92.026 -0.3663 -0.0946 -0.0962
14858TIP3    H166065   0.959   0.750  92.103 -2.0285 -1.1930  1.4704
14858TIP3    H266066   0.841   0.776  92.011  0.2400  0.3926 -1.1422
14859TIP3   OH266067   0.186   0.413  41.210 -0.6648  0.3426 -0.7343
14859TIP3    H166068   0.116   0.380  41.266 -0.6978  0.9747 -0.3950
14859TIP3    H266069   0.169   0.374  41.124 -1.4791  0.5525 -0.6766
14860TIP3   OH266070   0.086   1.586  91.983 -0.6575  0.0861 -0.0081
14860TIP3    H166071   0.134   1.615  92.060  0.2150 -1.3697  0.0302
14860TIP3    H266072   0.012   1.536  92.018  0.6260 -1.9778 -0.0409
14861TIP3   OH266073   1.969   1.606  92.062  0.2451 -0.8113  0.0007
14861TIP3    H166074   2.023   1.680  92.091 -1.4413  0.3127  0.4375
14861TIP3    H266075   1.954   1.623  91.969 -1.1043  0.0825  0.3527
14862TIP3   OH266076   2.080   2.277   3.604 -0.0184 -0.0029  0.4225
14862TIP3    H166077   2.025   2.283   3.526  0.6832  0.2990 -0.0598
14862TIP3    H266078   2.024   2.308   3.675 -0.3276  0.7667 -0.1366
14863TIP3   OH266079   0.790   1.134 106.425 -0.0532 -0.0412 -0.7045
14863TIP3    H166080   0.834   1.150 106.509  0.4984 -0.3501 -0.9281
14863TIP3    H266081   0.716   1.195 106.425  0.1320  0.1928 -0.1388
14864TIP3   OH266082   1.781   2.352  32.098  0.4392 -0.3334  0.0656
14864TIP3    H166083   1.791   2.446  32.114 -2.4980 -0.1874  1.4877
14864TIP3    H266084   1.721   2.347  32.023 -0.9775 -1.0188  1.2039
14865TIP3   OH266085   0.765   0.123  52.893 -0.1111 -0.0905  0.1901
14865TIP3    H166086   0.704   0.117  52.967 -0.3293  1.1173  0.1213
14865TIP3    H266087   0.843   0.077  52.923 -1.6465 -3.3296 -0.3990
14866TIP3   OH266088   2.228   0.852 103.540  0.3674  0.3831 -0.0474
14866TIP3    H166089   2.277   0.861 103.621  0.6153 -0.2877 -0.1203
14866TIP3    H266090   2.243   0.934 103.493 -0.0105  0.8912  0.7067
14867TIP3   OH266091   0.975   1.825 105.651  0.0129 -0.2861  0.1310
14867TIP3    H166092   1.053   1.778 105.679  0.3707  0.8394  1.1460
14867TIP3    H266093   0.938   1.860 105.732 -1.7016 -1.0173 -0.3060
14868TIP3   OH266094   0.131   1.907 101.861  0.0410 -0.0545  0.2108
14868TIP3    H166095   0.045   1.866 101.851 -0.0512  0.5147 -1.5412
14868TIP3    H266096   0.120   1.995 101.825  1.6430 -0.3576 -1.1290
14869TIP3   OH266097   0.212   0.278   9.308  0.5522 -0.5686  0.1522
14869TIP3    H166098   0.208   0.199   9.362 -0.7685 -2.9253 -3.0858
14869TIP3    H266099   0.283   0.261   9.245  0.2868  0.8531 -0.5849
14870TIP3   OH266100   1.299   0.769  33.576 -0.3295  0.3703  0.2454
14870TIP3    H166101   1.371   0.716  33.610  0.5994  0.7922 -1.0060
14870TIP3    H266102   1.233   0.766  33.645  0.5369 -0.7196  1.0663
14871TIP3   OH266103   2.682   1.066   0.005 -0.3806  0.7372  0.7880
14871TIP3    H166104   2.667   1.020   0.088  1.6918  0.1739  0.9105
14871TIP3    H266105   2.763   1.115   0.019  0.9666 -0.6848 -1.3762
14872TIP3   OH266106   0.280   1.860  10.521 -0.0555 -0.2857  0.2534
14872TIP3    H166107   0.271   1.830  10.430 -0.8004 -1.4659  0.6926
14872TIP3    H266108   0.225   1.800  10.571 -0.1886  0.7602  1.4122
14873TIP3   OH266109   0.851   0.866  14.604 -0.0857  0.3905 -0.2450
14873TIP3    H166110   0.925   0.882  14.546  0.7462 -2.8940 -0.3000
14873TIP3    H266111   0.784   0.830  14.546 -0.7776  0.8837  0.2351
14874TIP3   OH266112   2.107   1.687  15.727  0.5461 -0.6869 -0.2620
14874TIP3    H166113   2.136   1.769  15.766  0.4391 -0.2944 -0.9806
14874TIP3    H266114   2.059   1.642  15.797  0.3951 -0.0276  0.0642
14875TIP3   OH266115   2.109   2.341 103.225  0.0687 -0.2785 -0.4363
14875TIP3    H166116   2.043   2.273 103.211 -0.3789 -0.0082  0.2696
14875TIP3    H266117   2.167   2.304 103.292 -0.1085 -0.0221 -0.1334
14876TIP3   OH266118   1.979   2.492  21.928  0.3500 -0.0167  0.0042
14876TIP3    H166119   2.027   2.573  21.910  1.7538 -0.9823 -0.8156
14876TIP3    H266120   1.888   2.513  21.909  0.5820  1.5600  0.4794
14877TIP3   OH266121   1.509   1.813  62.759 -0.0008 -0.2054 -0.6927
14877TIP3    H166122   1.434   1.758  62.783 -2.9924  3.6039 -0.3063
14877TIP3    H266123   1.562   1.817  62.839 -0.4359 -1.3547 -0.3152
14878TIP3   OH266124   1.959   2.634 104.682 -0.1845 -0.0683  1.0303
14878TIP3    H166125   2.042   2.661 104.642 -0.3794 -0.8546  0.0678
14878TIP3    H266126   1.931   2.711 104.732  0.9909  0.2947  1.1661
14879TIP3   OH266127   0.581   0.578  24.648 -0.3594 -0.5949 -0.0070
14879TIP3    H166128   0.618   0.649  24.594  0.9905 -0.2226  1.3501
14879TIP3    H266129   0.614   0.498  24.608  1.3107 -0.2953  0.6867
14880TIP3   OH266130   1.156   1.024 107.516 -0.0056 -0.6521 -0.1121
14880TIP3    H166131   1.103   1.009 107.438 -0.0604  0.1396 -0.2318
14880TIP3    H266132   1.167   0.937 107.555 -3.1308 -0.6397  1.0686
14881TIP3   OH266133   2.595   1.180  11.286 -0.1612 -0.2633  0.1060
14881TIP3    H166134   2.665   1.211  11.343 -0.6818  0.5757  0.3090
14881TIP3    H266135   2.514   1.204  11.332 -0.5833 -0.3005 -0.6001
14882TIP3   OH266136   0.443   0.480  94.001 -0.6094  0.0148 -0.3158
14882TIP3    H166137   0.380   0.547  94.029 -1.3788 -0.5656 -0.6024
14882TIP3    H266138   0.425   0.469  93.907 -0.4429 -0.5328 -0.2869
14883TIP3   OH266139   1.808   1.689 104.798 -0.4504 -0.4408  0.0958
14883TIP3    H166140   1.837   1.683 104.707  1.1990  0.7291  0.4948
14883TIP3    H266141   1.801   1.598 104.827  0.0829 -0.8132 -0.8884
14884TIP3   OH266142   1.361   1.203  25.138 -0.0512  0.0131  0.0592
14884TIP3    H166143   1.379   1.177  25.047 -0.1751  1.1653 -0.3139
14884TIP3    H266144   1.344   1.297  25.133  1.2779  0.3676  1.4718
14885TIP3   OH266145   1.640   0.859  17.238 -0.0941 -0.4375  0.0229
14885TIP3    H166146   1.655   0.950  17.263  0.8324 -0.5339 -0.1258
14885TIP3    H266147   1.708   0.841  17.172 -0.2201 -1.2510  0.1022
14886TIP3   OH266148   0.697   0.505   6.861 -0.1100  0.2273  0.2235
14886TIP3    H166149   0.686   0.555   6.780 -3.0579 -1.0162 -0.2534
14886TIP3    H266150   0.752   0.431   6.835  1.2213  1.2402  0.0587
14887TIP3   OH266151   1.669   2.562 105.748  0.1116  0.0759 -0.5714
14887TIP3    H166152   1.720   2.635 105.783 -0.8489  0.4223  0.1351
14887TIP3    H266153   1.688   2.562 105.654  0.5698  0.8660 -0.4862
14888TIP3   OH266154   1.418   2.336  87.727 -0.6064 -0.1480 -0.1589
14888TIP3    H166155   1.399   2.244  87.714 -0.6524 -0.1867  0.1798
14888TIP3    H266156   1.469   2.361  87.650 -1.6821 -0.1311 -0.8888
14889TIP3   OH266157   2.133   0.404  86.238  0.0184  0.1314 -0.1674
14889TIP3    H166158   2.096   0.433  86.321 -1.7830  1.6297 -1.4114
14889TIP3    H266159   2.223   0.438  86.239  0.4313 -0.8777  1.6054
14890TIP3   OH266160   1.814   0.786 100.078 -0.3912  0.5133 -0.3420
14890TIP3    H166161   1.763   0.745 100.007  0.8943 -0.2361 -0.8576
14890TIP3    H266162   1.817   0.879 100.054 -0.9982  0.4653 -0.6192
14891TIP3   OH266163   1.213   0.756   9.726  0.1783  0.4432 -0.1153
14891TIP3    H166164   1.129   0.732   9.764 -0.0746 -1.1381 -1.5371
14891TIP3    H266165   1.201   0.844   9.691 -0.7515  0.3753  0.0284
14892TIP3   OH266166   0.474   0.240  68.750  0.4049 -0.2074  0.1159
14892TIP3    H166167   0.469   0.287  68.667  1.3953  0.0117  0.1725
14892TIP3    H266168   0.567   0.241  68.773  0.6213 -2.8638 -0.2875
14893TIP3   OH266169   1.206   2.391  29.439 -0.0244  0.1014 -0.2930
14893TIP3    H166170   1.185   2.298  29.441 -2.4063  0.5001  3.3201
14893TIP3    H266171   1.175   2.421  29.354 -0.6535 -2.1253 -0.9162
14894TIP3   OH266172   2.554   2.285  23.621  0.1453  0.1096  0.6042
14894TIP3    H166173   2.508   2.202  23.634 -1.0095  0.8848  1.7155
14894TIP3    H266174   2.646   2.265  23.639  0.3328 -1.4974 -1.7523
14895TIP3   OH266175   2.310   1.951  82.115 -0.5913  0.1496 -0.2215
14895TIP3    H166176   2.334   2.044  82.116  2.3586 -0.5158 -0.6143
14895TIP3    H266177   2.263   1.938  82.197 -1.8371  2.1287 -0.5437
14896TIP3   OH266178   0.954   1.656  16.362 -0.0197  0.6957  0.0280
14896TIP3    H166179   0.901   1.708  16.302  0.3880 -0.0200 -0.9768
14896TIP3    H266180   0.915   1.568  16.358  1.6915 -0.0559 -1.3605
14897TIP3   OH266181   0.804   2.612  22.277  0.3664  0.1507 -0.9440
14897TIP3    H166182   0.860   2.566  22.340 -0.1129 -0.6313 -1.0705
14897TIP3    H266183   0.724   2.559  22.273 -1.1389  2.1621  0.5390
14898TIP3   OH266184   0.334   0.820  86.653 -0.5383  0.3522  0.3277
14898TIP3    H166185   0.350   0.731  86.619  0.4995  0.2981  0.9318
14898TIP3    H266186   0.302   0.806  86.742  0.5174  0.5995  0.7574
14899TIP3   OH266187   0.912   0.809  90.062 -0.0842 -0.0066 -0.3420
14899TIP3    H166188   0.827   0.836  90.028 -0.5494 -1.5187 -0.4846
14899TIP3    H266189   0.917   0.848  90.149 -0.1223  1.5629 -1.0058
14900TIP3   OH266190   1.002   2.080  30.877 -0.1333  0.1620  0.6442
14900TIP3    H166191   1.045   2.155  30.917  0.8459 -0.1412  0.1931
14900TIP3    H266192   1.044   2.072  30.791 -0.9883 -0.2416  0.2589
14901TIP3   OH266193   2.083   0.063  98.803  1.0072  0.5098  0.4549
14901TIP3    H166194   2.008   0.067  98.862  0.4257  0.5849 -0.2663
14901TIP3    H266195   2.071   0.139  98.745  1.5087  0.3782  0.1770
14902TIP3   OH266196   2.335   0.866  17.933 -0.4162  0.5480 -0.4643
14902TIP3    H166197   2.277   0.858  17.857 -1.2657 -0.4769  0.2730
14902TIP3    H266198   2.279   0.849  18.008  1.0219 -1.6015  0.2216
14903TIP3   OH266199   1.643   0.991  75.731 -0.3575 -0.4767 -0.2154
14903TIP3    H166200   1.603   0.988  75.818  1.8400 -0.0764  0.8730
14903TIP3    H266201   1.646   1.084  75.710  2.4230 -0.1874  1.0001
14904TIP3   OH266202   2.661   1.952 107.190 -0.2554 -0.2215 -0.0329
14904TIP3    H166203   2.707   1.965 107.273 -0.4416 -1.1226  0.2219
14904TIP3    H266204   2.709   2.006 107.127 -0.0287  0.3640  0.6288
14905TIP3   OH266205   0.140   0.669  97.615 -0.4861  0.2527  0.5960
14905TIP3    H166206   0.058   0.627  97.588  0.2589 -0.4827 -0.5978
14905TIP3    H266207   0.205   0.599  97.613  0.3856  1.0419  0.5033
14906TIP3   OH266208   0.884   1.805  99.163 -1.0369 -0.5195 -0.2471
14906TIP3    H166209   0.940   1.727  99.161  0.3498  0.4388 -1.0501
14906TIP3    H266210   0.802   1.775  99.202  0.1694 -1.9056  1.3716
14907TIP3   OH266211   1.436   0.150  23.509  0.5422 -0.0160  0.2431
14907TIP3    H166212   1.387   0.068  23.516  0.7503 -0.1007  0.7434
14907TIP3    H266213   1.510   0.129  23.452 -0.4782  0.3450 -1.2722
14908TIP3   OH266214   0.794   1.064 100.099 -0.0971  0.4967 -0.5927
14908TIP3    H166215   0.729   0.999 100.123  0.2596 -0.4159 -2.0117
14908TIP3    H266216   0.841   1.082 100.181 -1.0147 -0.0722  0.0726
14909TIP3   OH266217   0.593   0.799  11.096  0.3863  0.0191  0.4173
14909TIP3    H166218   0.502   0.807  11.066  1.2695 -1.8824 -3.2330
14909TIP3    H266219   0.615   0.887  11.129 -2.2446  0.9614 -0.1051
14910TIP3   OH266220   2.092   2.448  14.591  0.2807  0.0899  0.3256
14910TIP3    H166221   2.020   2.467  14.531  0.2178 -0.0508  0.3575
14910TIP3    H266222   2.112   2.356  14.576  0.3243  0.0780  0.4574
14911TIP3   OH266223   1.302   0.393  78.782  0.3772  0.7357 -0.6270
14911TIP3    H166224   1.380   0.409  78.729 -1.0044  1.3275 -2.5734
14911TIP3    H266225   1.238   0.457  78.751 -0.7234  0.7021  1.3596
14912TIP3   OH266226   1.233   1.302  14.688 -0.1277 -0.0472  0.0621
14912TIP3    H166227   1.293   1.252  14.633  1.2009 -0.2102  1.5750
14912TIP3    H266228   1.281   1.381  14.711 -0.9272  0.3470  0.4323
14913TIP3   OH266229   2.009   1.501  87.700  0.1130 -0.3726 -0.1987
14913TIP3    H166230   2.079   1.543  87.650  1.5929 -2.2532  0.1659
14913TIP3    H266231   2.009   1.410  87.670  0.3498 -1.3092  2.3908
14914TIP3   OH266232   0.667   0.884  63.209 -0.2580  0.1513 -0.3559
14914TIP3    H166233   0.666   0.826  63.285 -2.0044  0.3497 -0.1787
14914TIP3    H266234   0.677   0.826  63.134  1.2746 -0.0624 -0.0147
14915TIP3   OH266235   2.386   0.841  36.796  0.4589 -0.6559 -0.1393
14915TIP3    H166236   2.365   0.764  36.849  0.1060 -0.4679  0.0014
14915TIP3    H266237   2.412   0.806  36.711  0.3369 -0.9317 -0.0633
14916TIP3   OH266238   0.965   1.310  78.180  0.1454 -0.4383 -0.2007
14916TIP3    H166239   0.916   1.286  78.259 -2.4676  0.4484 -1.4407
14916TIP3    H266240   0.925   1.259  78.110  3.6019 -2.5887 -0.8149
14917TIP3   OH266241   1.698   2.279  93.875  0.3564 -0.4778 -0.5147
14917TIP3    H166242   1.657   2.261  93.790 -1.6121  0.2001  0.2310
14917TIP3    H266243   1.630   2.326  93.924  1.6966 -0.2526  1.1945
14918TIP3   OH266244   2.009   2.081  37.377 -0.7283 -0.3961 -0.1307
14918TIP3    H166245   2.083   2.051  37.324  0.2238 -1.3432  1.6261
14918TIP3    H266246   1.992   2.008  37.437 -1.6821  0.6620  0.9222
14919TIP3   OH266247   0.204   2.436 107.295 -0.1125 -0.2951  0.6511
14919TIP3    H166248   0.255   2.419 107.216  0.5022  0.7123  0.8166
14919TIP3    H266249   0.141   2.364 107.299 -0.2706 -0.2644 -0.8412
14920TIP3   OH266250   1.794   0.653  78.693 -0.1196 -0.3326 -0.5397
14920TIP3    H166251   1.873   0.659  78.639 -0.1109 -0.0195 -0.4980
14920TIP3    H266252   1.796   0.732  78.747 -0.0800 -0.6890 -0.0158
14921TIP3   OH266253   1.540   1.166 108.909 -0.2554 -0.6151  0.1226
14921TIP3    H166254   1.611   1.104 108.926 -0.4683 -1.2661 -1.2067
14921TIP3    H266255   1.560   1.242 108.963  2.0181 -0.3692 -0.9684
14922TIP3   OH266256   2.552   0.531   5.523 -0.4848  0.5302 -0.4243
14922TIP3    H166257   2.491   0.464   5.492 -0.0341 -0.3433  0.5037
14922TIP3    H266258   2.500   0.611   5.526 -1.2154  0.0868 -0.9285
14923TIP3   OH266259   0.664   1.751  92.478 -0.0104  0.5368 -0.0474
14923TIP3    H166260   0.642   1.767  92.386 -1.1792 -0.4754  0.0241
14923TIP3    H266261   0.621   1.822  92.526  1.0612  1.3835 -0.3092
14924TIP3   OH266262   1.322   0.766 107.335  0.4574  0.3791 -0.3191
14924TIP3    H166263   1.387   0.836 107.346  0.4682  0.5269 -1.2324
14924TIP3    H266264   1.307   0.763 107.241  0.6191 -1.0208 -0.3072
14925TIP3   OH266265   0.501   1.031   4.784 -0.0146  0.1271 -0.3295
14925TIP3    H166266   0.432   1.001   4.843  1.8635 -0.3883  1.7489
14925TIP3    H266267   0.550   0.951   4.763  0.9037  0.7060 -0.4314
14926TIP3   OH266268   2.495   2.377  86.727  0.2630  0.4985  0.4829
14926TIP3    H166269   2.584   2.351  86.750  0.1895 -1.1509 -0.9162
14926TIP3    H266270   2.506   2.450  86.666  0.5833  1.5143  1.7303
14927TIP3   OH266271   1.801   0.100  20.711 -0.1199  0.3064  0.6224
14927TIP3    H166272   1.831   0.177  20.662 -0.8099  1.2789  1.6644
14927TIP3    H266273   1.781   0.035  20.644 -0.6010  1.4313 -0.3551
14928TIP3   OH266274   1.180   1.482  22.423  0.4191 -0.5528  0.5517
14928TIP3    H166275   1.151   1.419  22.357  0.8949 -0.8358  0.6079
14928TIP3    H266276   1.244   1.433  22.476  0.7343 -0.0459  0.6414
14929TIP3   OH266277   0.891   1.262  28.211  0.2645  0.5152 -0.1189
14929TIP3    H166278   0.868   1.215  28.131 -2.8647  1.6185 -0.0097
14929TIP3    H266279   0.858   1.207  28.282  1.7707  0.2153  0.3892
14930TIP3   OH266280   0.549   2.309  81.310  0.3589 -0.2139  0.2591
14930TIP3    H166281   0.602   2.275  81.382  0.5233 -0.6950 -0.0754
14930TIP3    H266282   0.599   2.383  81.277 -0.1669  0.5832  1.2175
14931TIP3   OH266283   1.096   1.092  13.481 -0.1785  0.1109 -0.2581
14931TIP3    H166284   1.104   1.149  13.557 -1.9716 -0.8071  0.6979
14931TIP3    H266285   1.118   1.005  13.514  0.9259 -0.0267 -1.2919
14932TIP3   OH266286   0.379   0.854  10.927 -0.1151  0.4258 -0.0074
14932TIP3    H166287   0.293   0.892  10.910 -0.7479  0.3308  2.5787
14932TIP3    H266288   0.365   0.760  10.925  0.5586  0.3186 -2.2106
14933TIP3   OH266289   2.320   0.792  15.159 -0.0038 -0.2657  0.4317
14933TIP3    H166290   2.258   0.827  15.223 -1.1484  0.2307 -0.9016
14933TIP3    H266291   2.294   0.700  15.148  0.6989 -0.5745  1.2400
14934TIP3   OH266292   0.303   2.555  99.775  0.0173  0.1933 -0.0748
14934TIP3    H166293   0.365   2.506  99.828  0.3433  0.7106  0.0306
14934TIP3    H266294   0.228   2.569  99.832 -0.6032 -1.2578 -0.5068
14935TIP3   OH266295   0.450   1.642  10.083  0.3251  0.3149 -0.1061
14935TIP3    H166296   0.478   1.569  10.029 -0.4395  0.0742 -0.1919
14935TIP3    H266297   0.470   1.720  10.031  2.0819  0.2465  0.4137
14936TIP3   OH266298   0.518   0.507 108.684  0.5328  0.0874 -0.1122
14936TIP3    H166299   0.474   0.556 108.754  0.5657  1.5011 -1.0596
14936TIP3    H266300   0.537   0.422 108.724  1.7685  1.2736  2.0769
14937TIP3   OH266301   1.498   1.784  94.836 -0.0678 -0.1175 -0.2319
14937TIP3    H166302   1.575   1.771  94.780 -1.6083  0.8015 -2.7231
14937TIP3    H266303   1.464   1.869  94.811 -2.2938 -0.7819  0.3074
14938TIP3   OH266304   0.977   1.895  97.608  0.0107  0.5796  0.0932
14938TIP3    H166305   1.066   1.899  97.574  0.0903 -0.6585  0.0955
14938TIP3    H266306   0.987   1.913  97.702  0.3662 -0.2821  0.2284
14939TIP3   OH266307   1.428   2.122  86.600 -0.0029  0.2907 -0.1311
14939TIP3    H166308   1.333   2.112  86.608 -0.2667  2.2131 -0.4798
14939TIP3    H266309   1.453   2.056  86.535 -0.7731 -1.5739  1.3747
14940TIP3   OH266310   1.132   2.101  86.571  0.0761 -0.1365 -0.0401
14940TIP3    H166311   1.042   2.134  86.576  0.4076  0.7531  0.2579
14940TIP3    H266312   1.171   2.150  86.499  0.2966 -0.6062 -0.2432
14941TIP3   OH266313   1.455   2.229 105.411 -0.0423  0.2942 -0.2239
14941TIP3    H166314   1.454   2.210 105.505 -3.0006  1.0118 -0.0094
14941TIP3    H266315   1.463   2.324 105.405 -2.6034  0.5685 -0.4903
14942TIP3   OH266316   0.214   0.625  87.914 -0.5015 -0.3715 -0.0264
14942TIP3    H166317   0.219   0.550  87.973 -0.6342  0.3953  0.9749
14942TIP3    H266318   0.304   0.652  87.899 -0.5245  0.3187  0.9970
14943TIP3   OH266319   2.555   2.090   1.646 -0.0584 -0.1686  0.2015
14943TIP3    H166320   2.641   2.130   1.655 -0.0529 -0.0731 -0.2438
14943TIP3    H266321   2.501   2.159   1.606  0.2179 -0.9264 -1.6039
14944TIP3   OH266322   0.666   1.044  90.345  0.1775  0.2649 -0.0332
14944TIP3    H166323   0.649   1.137  90.335  0.7861  0.3048 -0.7806
14944TIP3    H266324   0.607   1.016  90.416 -0.7013  1.0038 -0.4540
14945TIP3   OH266325   2.504   0.684  26.560 -0.0906  0.1434 -0.4029
14945TIP3    H166326   2.419   0.641  26.560  0.0152 -0.0941  0.5041
14945TIP3    H266327   2.526   0.694  26.468 -0.8140 -0.3557 -0.6413
14946TIP3   OH266328   0.638   2.224  41.607 -0.3462  0.2740  0.2847
14946TIP3    H166329   0.545   2.217  41.585 -0.3106  2.7496 -1.0837
14946TIP3    H266330   0.678   2.262  41.528  1.6056  0.4075  1.2762
14947TIP3   OH266331   1.453   2.295  27.069 -0.8600  0.3549  0.4121
14947TIP3    H166332   1.521   2.362  27.057 -0.0102 -0.0692  2.4968
14947TIP3    H266333   1.486   2.239  27.138 -2.9105 -0.4707  0.7978
14948TIP3   OH266334   2.447   1.296  34.759  0.0980  0.0333 -0.3112
14948TIP3    H166335   2.521   1.294  34.820  0.4757 -0.5226 -0.7622
14948TIP3    H266336   2.414   1.206  34.759  0.5308 -0.1499 -1.4094
14949TIP3   OH266337   2.562   0.472  89.224  0.3801  0.1472 -0.8318
14949TIP3    H166338   2.521   0.403  89.171 -3.2976  1.0351  0.6179
14949TIP3    H266339   2.520   0.465  89.310  1.3330  2.9415 -0.0327
14950TIP3   OH266340   1.450   0.511  91.349  0.1507  0.1220  0.5130
14950TIP3    H166341   1.395   0.438  91.320  0.1237  0.6318 -0.8075
14950TIP3    H266342   1.410   0.540  91.431 -1.2506  0.1222 -0.1260
14951TIP3   OH266343   1.513   2.519  75.261 -0.4329 -0.0551  0.1306
14951TIP3    H166344   1.561   2.577  75.202 -0.7694  0.7347  0.6248
14951TIP3    H266345   1.507   2.568  75.343 -0.3343 -0.9702  0.7001
14952TIP3   OH266346   2.152   1.245   9.941  0.6510 -0.3420 -0.1675
14952TIP3    H166347   2.078   1.185   9.951  0.2539  0.1546 -0.0602
14952TIP3    H266348   2.206   1.230  10.018  0.7286 -0.7875 -0.3029
14953TIP3   OH266349   2.438   1.462 106.335 -0.2598 -0.5512  0.1903
14953TIP3    H166350   2.471   1.552 106.332 -1.2120 -0.1079  1.6403
14953TIP3    H266351   2.456   1.433 106.425 -1.9457 -0.9762  0.4390
14954TIP3   OH266352   1.308   0.110  34.293 -0.1878  0.0074 -0.3627
14954TIP3    H166353   1.341   0.111  34.203  2.2808  3.5513  0.3390
14954TIP3    H266354   1.338   0.027  34.329  1.7314 -0.0459 -1.9284
14955TIP3   OH266355   0.182   2.321 108.331 -0.7215 -0.1037 -0.0855
14955TIP3    H166356   0.147   2.280 108.410  0.5219  0.0923  0.5796
14955TIP3    H266357   0.156   2.413 108.339  0.1459  0.0967  0.5372
14956TIP3   OH266358   1.830   2.068   8.950  0.3118 -0.1609 -0.0579
14956TIP3    H166359   1.924   2.066   8.931  0.4405  1.3025  0.2966
14956TIP3    H266360   1.824   2.056   9.045 -0.0066 -2.2493 -0.3060
14957TIP3   OH266361   0.646   0.280  29.960  0.3518  0.1781 -0.0148
14957TIP3    H166362   0.597   0.256  29.881  0.5902 -0.1432 -0.0688
14957TIP3    H266363   0.646   0.201  30.013  1.7964 -0.2042 -0.5287
14958TIP3   OH266364   2.463   1.916  87.691  0.4246 -0.4827 -0.5114
14958TIP3    H166365   2.426   1.987  87.638  1.0744 -0.1280 -0.4927
14958TIP3    H266366   2.454   1.947  87.781  1.1385 -0.2211 -0.5295
14959TIP3   OH266367   1.476   1.433  20.671 -0.2767  0.4895  0.2280
14959TIP3    H166368   1.524   1.513  20.649 -0.4499  0.3564 -0.6612
14959TIP3    H266369   1.417   1.460  20.742 -0.3735  1.1687 -0.0964
14960TIP3   OH266370   1.639   0.371 102.235 -0.0651  0.2576 -0.1941
14960TIP3    H166371   1.559   0.318 102.234 -0.2514  0.5362 -1.0131
14960TIP3    H266372   1.609   0.461 102.229  0.3189  0.3356 -1.1359
14961TIP3   OH266373   0.561   2.272 109.496 -0.3465  0.4860 -0.5536
14961TIP3    H166374   0.596   2.192 109.457 -1.4311 -0.3177  0.0357
14961TIP3    H266375   0.612   2.343 109.457 -0.0517 -0.4136 -1.8805
14962TIP3   OH266376   1.255   0.257 108.627  0.4098  0.1875  0.1012
14962TIP3    H166377   1.264   0.193 108.698  3.3095 -1.4258 -1.5342
14962TIP3    H266378   1.198   0.214 108.564 -0.4392  0.7322  0.4748
14963TIP3   OH266379   2.380   0.323  18.779  0.2155  0.2353  0.2441
14963TIP3    H166380   2.443   0.262  18.741  0.1126  0.2056  0.1222
14963TIP3    H266381   2.313   0.333  18.712 -1.0842 -1.4778  1.2028
14964TIP3   OH266382   0.830   2.433   3.314 -0.1395 -0.0699  0.0652
14964TIP3    H166383   0.787   2.389   3.386 -0.1390  1.5275  1.1044
14964TIP3    H266384   0.904   2.479   3.355  0.4482  0.0697 -1.1093
14965TIP3   OH266385   0.840   0.568  80.855  0.2098  0.2161  0.2911
14965TIP3    H166386   0.830   0.659  80.827 -0.2899 -0.0980 -0.5996
14965TIP3    H266387   0.765   0.551  80.911 -0.5722 -0.0988 -0.8138
14966TIP3   OH266388   2.554   0.815  89.932 -0.2373  0.4375  0.0616
14966TIP3    H166389   2.587   0.748  89.872 -1.7098 -0.4556  0.1961
14966TIP3    H266390   2.471   0.843  89.893  0.4554  2.3946 -0.1185
14967TIP3   OH266391   0.128   1.736  12.612  0.3136 -0.0009 -0.3195
14967TIP3    H166392   0.151   1.826  12.636 -0.6463  0.2097 -0.1320
14967TIP3    H266393   0.210   1.696  12.585  1.2374  0.1784  1.9841
14968TIP3   OH266394   0.095   1.357  37.387 -0.1943 -0.5491  0.1676
14968TIP3    H166395   0.166   1.295  37.368  1.4811  1.3169  0.0919
14968TIP3    H266396   0.027   1.303  37.427 -0.0455 -2.9840 -2.5496
14969TIP3   OH266397   1.740   1.245  63.195  0.1139 -0.7804  0.2813
14969TIP3    H166398   1.655   1.262  63.155  0.7929 -0.6643 -1.1662
14969TIP3    H266399   1.734   1.155  63.228  0.2225 -1.6939 -2.0372
14970TIP3   OH266400   1.046   2.413  87.735  0.1598 -0.1658  0.0802
14970TIP3    H166401   1.012   2.500  87.757  1.2358  0.8276 -1.8757
14970TIP3    H266402   1.085   2.381  87.817  1.5751  2.1193  0.3916
14971TIP3   OH266403   1.753   2.470  19.829 -0.0984  0.2112  0.2956
14971TIP3    H166404   1.833   2.447  19.876  1.6329  0.1100 -2.5217
14971TIP3    H266405   1.763   2.562  19.806 -0.1908 -0.1082 -1.1229
14972TIP3   OH266406   2.063   1.800  88.199  0.4495  0.0249 -0.0137
14972TIP3    H166407   2.145   1.817  88.245  0.3066  0.7500 -0.0090
14972TIP3    H266408   2.083   1.819  88.107  0.4249 -0.2915 -0.0815
14973TIP3   OH266409   2.159   2.667  74.795  0.4954  0.3550 -0.0759
14973TIP3    H166410   2.167   2.687  74.888 -0.2365  1.1120 -0.1644
14973TIP3    H266411   2.110   2.584  74.793  0.0592  0.6003  0.2093
14974TIP3   OH266412   2.497   2.413  21.056 -0.1529 -0.0616 -0.1582
14974TIP3    H166413   2.429   2.383  20.996 -0.0800  1.7743 -1.2196
14974TIP3    H266414   2.548   2.475  21.005  0.7633  0.5093  1.4015
14975TIP3   OH266415   0.076   0.489  16.930 -0.5863 -0.4677 -0.2157
14975TIP3    H166416   0.093   0.471  16.838 -2.0465  1.5287 -0.9238
14975TIP3    H266417   0.148   0.547  16.957 -0.7868 -0.1224 -0.4227
14976TIP3   OH266418   0.157   1.222  68.025  0.1501  0.0575 -0.6970
14976TIP3    H166419   0.116   1.252  67.944  0.2561  0.8396 -0.4745
14976TIP3    H266420   0.131   1.130  68.033 -2.0838  0.6745 -0.2274
14977TIP3   OH266421   2.570   1.784  67.782 -0.3350 -0.0061 -0.4870
14977TIP3    H166422   2.539   1.836  67.856 -1.9070 -0.8545 -0.4969
14977TIP3    H266423   2.490   1.743  67.747  0.4405 -0.0129 -2.3434
14978TIP3   OH266424   2.212   1.142  14.475  0.6836  0.0113 -0.1381
14978TIP3    H166425   2.184   1.194  14.551  0.5872  0.2174 -0.3156
14978TIP3    H266426   2.215   1.052  14.508 -1.3589 -0.2066 -0.4149
14979TIP3   OH266427   1.981   0.223   7.262 -0.0727 -0.4239  0.1630
14979TIP3    H166428   1.903   0.168   7.272 -1.4089  1.5053  1.0182
14979TIP3    H266429   2.013   0.236   7.351 -0.5950  1.2300  0.1387
14980TIP3   OH266430   1.782   1.094  82.411  0.1206  0.1730 -0.1283
14980TIP3    H166431   1.853   1.099  82.475 -0.4203  0.5812  0.4632
14980TIP3    H266432   1.702   1.098  82.464 -0.3566 -1.3318 -0.6899
14981TIP3   OH266433   0.498   1.960 100.390  0.4650 -0.2679  0.3401
14981TIP3    H166434   0.548   1.901 100.447  1.3373  0.6049  0.5117
14981TIP3    H266435   0.558   1.981 100.319 -0.4067 -0.8549 -0.5961
14982TIP3   OH266436   0.326   2.476  19.050  0.0092  0.0802  0.3686
14982TIP3    H166437   0.412   2.514  19.028 -0.3771  1.1952  0.7055
14982TIP3    H266438   0.346   2.406  19.112  0.6125  1.1370  1.4314
14983TIP3   OH266439   0.906   2.539  31.544 -0.2806 -0.0417  0.2251
14983TIP3    H166440   0.894   2.445  31.532  0.9310 -0.3709  1.2992
14983TIP3    H266441   0.818   2.576  31.539 -0.8036 -1.2771  0.1110
14984TIP3   OH266442   0.089   0.799  95.976 -0.5565  0.4257  0.1838
14984TIP3    H166443   0.027   0.820  95.906  0.8970  0.6548 -1.0932
14984TIP3    H266444   0.115   0.884  96.012 -0.0262  0.4149 -0.1629
14985TIP3   OH266445   0.836   1.307  91.663 -0.9500  0.3819 -0.2821
14985TIP3    H166446   0.823   1.245  91.590  1.3211 -0.3264 -0.1772
14985TIP3    H266447   0.753   1.305  91.711 -1.3318 -1.7941 -0.8988
14986TIP3   OH266448   0.325   2.256  90.037 -0.0794  0.0352  0.0665
14986TIP3    H166449   0.385   2.240  89.965 -1.4377 -0.8327 -0.9239
14986TIP3    H266450   0.375   2.309  90.099  0.8691  1.6093 -1.9185
14987TIP3   OH266451   2.022   2.301  17.717 -0.2571  0.3972  0.0298
14987TIP3    H166452   2.027   2.389  17.755  1.5798 -0.0790  0.9909
14987TIP3    H266453   2.087   2.302  17.646 -1.0832  0.1555 -0.7559
14988TIP3   OH266454   2.255   0.576  26.566  0.5948 -0.2735 -0.3217
14988TIP3    H166455   2.232   0.501  26.620  0.2035  0.1320  0.0817
14988TIP3    H266456   2.197   0.570  26.490 -0.1487  0.1737  0.1963
14989TIP3   OH266457   1.474   0.312 107.349  0.2153  0.7798  0.0811
14989TIP3    H166458   1.501   0.403 107.331  0.0430  1.0056  0.9217
14989TIP3    H266459   1.556   0.264 107.357  0.3131  0.5307 -1.8686
14990TIP3   OH266460   2.569   0.810  73.049 -0.1888 -0.5847  0.1020
14990TIP3    H166461   2.651   0.859  73.051 -0.0753 -0.8032  1.0611
14990TIP3    H266462   2.590   0.726  73.089 -0.7131 -0.9210 -0.3036
14991TIP3   OH266463   1.312   0.737  91.623 -0.0382 -0.0613  0.3077
14991TIP3    H166464   1.406   0.732  91.605 -0.1791  0.2953 -0.6073
14991TIP3    H266465   1.297   0.829  91.646 -0.3371  0.1649 -0.7221
14992TIP3   OH266466   0.171   2.380  17.124  0.0243 -0.1550 -0.0882
14992TIP3    H166467   0.209   2.318  17.062 -0.3690 -0.6190  0.1273
14992TIP3    H266468   0.203   2.466  17.095 -0.6547 -0.2873 -1.3112
14993TIP3   OH266469   0.877   1.561   9.086 -0.2132  0.0001  0.1139
14993TIP3    H166470   0.960   1.604   9.110  0.5180 -0.6391 -1.1431
14993TIP3    H266471   0.820   1.574   9.162  0.0982  2.8144 -0.0235
14994TIP3   OH266472   1.351   0.850   1.742  0.7101 -0.2068 -0.4527
14994TIP3    H166473   1.418   0.918   1.737  0.4434  0.4966  3.1431
14994TIP3    H266474   1.269   0.897   1.753 -0.1024 -1.1291 -2.0629
14995TIP3   OH266475   2.640   1.553  67.510 -0.1513  0.0417  0.8103
14995TIP3    H166476   2.633   1.538  67.416 -0.7408  1.9621  0.5195
14995TIP3    H266477   2.584   1.486  67.550 -1.4550  0.4297 -0.3123
14996TIP3   OH266478   1.452   2.335 102.755 -0.1922 -0.3227 -0.1617
14996TIP3    H166479   1.540   2.323 102.791 -0.5786 -0.2749  0.8239
14996TIP3    H266480   1.414   2.248 102.755  0.5964 -0.7586 -2.6799
14997TIP3   OH266481   0.287   1.816 107.585 -0.1958  0.3676 -0.3806
14997TIP3    H166482   0.330   1.891 107.627  1.7135 -0.6630 -0.4066
14997TIP3    H266483   0.285   1.839 107.492  2.1016 -0.3378 -0.6666
14998TIP3   OH266484   1.489   1.533 111.237 -0.3080  0.6113 -0.2163
14998TIP3    H166485   1.528   1.570 111.158  0.5020  0.4053  0.0819
14998TIP3    H266486   1.511   1.440 111.233  1.4925  0.9198  1.2385
14999TIP3   OH266487   2.426   1.407  48.129 -0.5637  0.4297  0.0413
14999TIP3    H166488   2.436   1.339  48.063  0.8669  1.1525 -0.5300
14999TIP3    H266489   2.491   1.386  48.196 -0.7328  0.7311  0.3032
15000TIP3   OH266490   1.265   1.859  20.348  0.4524  0.4260 -0.5056
15000TIP3    H166491   1.236   1.950  20.349 -0.3957  0.1549  0.0304
15000TIP3    H266492   1.278   1.837  20.440 -0.7309 -0.4280 -0.5322
15001TIP3   OH266493   0.423   0.987  12.375  0.1440  0.2525  0.0636
15001TIP3    H166494   0.425   1.002  12.469  0.6015 -0.0162  0.0975
15001TIP3    H266495   0.341   1.027  12.346 -0.5694 -0.6845  0.7426
15002TIP3   OH266496   0.139   0.543  69.029 -0.1890 -0.0803 -0.1783
15002TIP3    H166497   0.097   0.568  68.947 -0.2676 -1.3417 -0.5516
15002TIP3    H266498   0.213   0.489  69.003 -0.2789 -0.5884  0.5779
15003TIP3   OH266499   1.455   2.563  87.224 -0.5006  0.1333 -0.0319
15003TIP3    H166500   1.456   2.473  87.254  0.1522  0.2338  0.2710
15003TIP3    H266501   1.391   2.607  87.280 -0.5811 -0.0683  0.0334
15004TIP3   OH266502   2.128   2.666  19.094 -0.0848 -0.0436  0.2091
15004TIP3    H166503   2.061   2.696  19.032  1.9612  0.8072 -1.7595
15004TIP3    H266504   2.119   2.571  19.096  2.0801 -0.6403 -4.5586
15005TIP3   OH266505   0.788   0.207 109.941 -0.1253  0.1993 -0.3106
15005TIP3    H166506   0.858   0.145 109.959 -0.5918 -0.4790 -0.8168
15005TIP3    H266507   0.712   0.172 109.987 -0.1627  0.8986  0.1863
15006TIP3   OH266508   0.857   0.586  33.710  0.2255  0.0263  0.0416
15006TIP3    H166509   0.907   0.566  33.631 -0.5924 -0.5020 -0.3521
15006TIP3    H266510   0.887   0.673  33.736  1.7689 -0.5054  0.1405
15007TIP3   OH266511   0.927   2.054  73.364 -0.1521  0.4614  0.6289
15007TIP3    H166512   0.970   1.975  73.396 -0.8013 -0.3158 -0.3554
15007TIP3    H266513   0.941   2.118  73.434  1.0333 -0.2839  1.1273
15008TIP3   OH266514   2.618   2.431  36.734 -0.5063 -0.2831  0.3088
15008TIP3    H166515   2.678   2.486  36.783 -0.6906 -0.8311  1.1790
15008TIP3    H266516   2.581   2.371  36.800 -0.9701 -0.8505 -0.4494
15009TIP3   OH266517   0.112   2.489  93.056  0.5563 -0.6310  0.0502
15009TIP3    H166518   0.058   2.506  93.133  0.2218  1.6863 -0.6321
15009TIP3    H266519   0.202   2.499  93.086  0.4064  1.0552  0.0042
15010TIP3   OH266520   1.064   1.374  10.395 -0.0525  0.1969 -0.0018
15010TIP3    H166521   1.073   1.308  10.326  1.1526 -0.8384  1.0852
15010TIP3    H266522   1.020   1.447  10.352 -2.7442 -1.7937 -0.9111
15011TIP3   OH266523   1.165   2.232  76.188 -0.7703 -0.5296  0.7924
15011TIP3    H166524   1.138   2.140  76.186 -2.3696 -0.2816  4.3733
15011TIP3    H266525   1.248   2.231  76.236 -0.2674 -0.1485 -0.0418
15012TIP3   OH266526   1.345   1.792 109.764  0.1252 -0.1461  0.3119
15012TIP3    H166527   1.258   1.751 109.770  0.6193 -1.3957 -0.6645
15012TIP3    H266528   1.342   1.842 109.683 -0.0236  0.6868  0.8227
15013TIP3   OH266529   0.047   0.171  10.729 -0.1265 -0.2319  0.5649
15013TIP3    H166530  -0.037   0.179  10.684 -0.4354  0.8817  1.2910
15013TIP3    H266531   0.038   0.094  10.786 -0.8015  0.1153  0.9322
15014TIP3   OH266532   0.384   0.296  74.531  0.5309 -0.0532 -0.0486
15014TIP3    H166533   0.305   0.269  74.484  0.3229  2.5223 -1.3582
15014TIP3    H266534   0.456   0.264  74.476  0.2953  1.8138 -1.5361
15015TIP3   OH266535   1.154   0.225  97.526  0.6044 -0.1002  0.3262
15015TIP3    H166536   1.197   0.306  97.499  0.7368 -0.1883  0.2769
15015TIP3    H266537   1.107   0.249  97.606  0.4502  0.0880  0.1851
15016TIP3   OH266538   0.020   1.604  93.246  0.0864 -0.2121 -0.2448
15016TIP3    H166539   0.011   1.561  93.161  3.1058 -3.5234  0.8636
15016TIP3    H266540   0.092   1.666  93.234  0.3911 -0.5474 -0.1553
15017TIP3   OH266541   0.709   1.371  75.197  0.3702 -0.4354 -0.3357
15017TIP3    H166542   0.692   1.464  75.211  0.5414 -0.4821  0.2266
15017TIP3    H266543   0.646   1.327  75.255  0.3881 -0.6671 -0.4956
15018TIP3   OH266544   0.802   0.607 109.933  0.1952  0.3563 -0.1967
15018TIP3    H166545   0.840   0.644 109.853 -0.2762 -0.6252 -0.8931
15018TIP3    H266546   0.767   0.682 109.981 -0.2030  0.8817 -1.2890
15019TIP3   OH266547   0.963   2.301  96.318  0.0156  0.0671 -0.0353
15019TIP3    H166548   0.875   2.270  96.298 -0.4605  0.9086  0.6593
15019TIP3    H266549   1.016   2.222  96.323 -0.5992 -0.4254 -0.8878
15020TIP3   OH266550   0.652   0.131  57.297 -0.1993  0.4243  0.2341
15020TIP3    H166551   0.641   0.063  57.230 -0.0341  1.7354 -1.1957
15020TIP3    H266552   0.563   0.158  57.318 -0.3045 -0.7555  1.4064
15021TIP3   OH266553   1.122   1.745 101.663  0.1588 -0.0786 -0.0012
15021TIP3    H166554   1.137   1.831 101.624  0.0476 -0.4789 -0.9582
15021TIP3    H266555   1.207   1.718 101.696  0.1716  0.4457  0.4044
15022TIP3   OH266556   0.837   1.972   7.779  0.3215  0.4228 -0.0689
15022TIP3    H166557   0.930   1.992   7.774  0.6566 -0.7368  1.0980
15022TIP3    H266558   0.830   1.902   7.843 -1.2410 -0.3030 -0.9522
15023TIP3   OH266559   2.079   1.865 107.399  0.4246  0.2535 -0.4988
15023TIP3    H166560   2.104   1.874 107.307  1.0048 -0.6709 -0.4517
15023TIP3    H266561   1.992   1.905 107.404  0.0467 -0.3531 -1.6165
15024TIP3   OH266562   1.842   0.259  59.310  0.4231  0.1074  0.3951
15024TIP3    H166563   1.884   0.338  59.276  0.6727  0.2779  1.0784
15024TIP3    H266564   1.912   0.214  59.358  0.2734 -0.5128  0.0383
15025TIP3   OH266565   2.256   2.517  81.865 -0.4720 -0.2729 -0.2709
15025TIP3    H166566   2.184   2.454  81.855 -0.4439 -0.0667 -2.0962
15025TIP3    H266567   2.307   2.508  81.785  1.0382  0.2421  0.5936
15026TIP3   OH266568   2.107   1.998  91.237  0.8337  0.2584  0.4042
15026TIP3    H166569   2.127   2.091  91.224  0.4327  0.2152 -0.5842
15026TIP3    H266570   2.191   1.954  91.227  1.2516  0.5990  2.0660
15027TIP3   OH266571   1.129   0.848  35.934 -0.0045  0.0562 -0.1502
15027TIP3    H166572   1.177   0.862  35.853 -1.1318  1.1084 -0.6726
15027TIP3    H266573   1.190   0.800  35.990  0.1470 -2.4821 -2.2770
15028TIP3   OH266574   0.399   1.170  10.107  0.1879 -0.3659 -0.1084
15028TIP3    H166575   0.310   1.175  10.143  0.0880 -0.6127 -0.3160
15028TIP3    H266576   0.456   1.178  10.183  0.0043  0.5286 -0.0517
15029TIP3   OH266577   1.895   0.978  76.617  0.1795 -0.1584 -0.2612
15029TIP3    H166578   1.884   0.883  76.619  0.6646 -0.2189  1.7662
15029TIP3    H266579   1.810   1.013  76.643  0.7001 -0.1736  1.6347
15030TIP3   OH266580   1.727   0.485 107.548  0.0151  0.0263 -0.0335
15030TIP3    H166581   1.784   0.477 107.472  0.1054  1.2538 -0.1158
15030TIP3    H266582   1.693   0.396 107.563  1.3778 -0.5740 -0.4046
15031TIP3   OH266583   0.094   0.555  58.138 -0.5201 -0.3977 -0.5200
15031TIP3    H166584   0.182   0.519  58.124 -0.4140 -0.1969 -0.3794
15031TIP3    H266585   0.077   0.541  58.231 -1.0078 -1.2523 -0.7383
15032TIP3   OH266586   0.412   1.089  89.597 -0.3566 -0.6947  0.2780
15032TIP3    H166587   0.332   1.080  89.649 -0.9671 -2.0767 -0.8380
15032TIP3    H266588   0.395   1.164  89.540 -0.6786 -0.7136  0.3436
15033TIP3   OH266589   1.826   0.943 104.215  0.2026  0.1259 -0.3913
15033TIP3    H166590   1.750   0.897 104.251  0.0139  0.3912 -0.4558
15033TIP3    H266591   1.893   0.937 104.284 -0.7585  2.2773  0.8125
15034TIP3   OH266592   2.542   2.647  18.967 -0.7516 -0.2494  0.2327
15034TIP3    H166593   2.575   2.707  19.034  1.0888 -2.3895  1.3710
15034TIP3    H266594   2.498   2.578  19.017 -3.8246  0.5814 -1.0953
15035TIP3   OH266595   0.975   2.544  90.889 -0.5458 -0.8678 -0.2107
15035TIP3    H166596   0.901   2.547  90.829 -1.1076 -2.3541  0.3589
15035TIP3    H266597   0.947   2.484  90.959  0.7725 -0.6028  0.5887
15036TIP3   OH266598   2.177   1.328   3.496  0.7173  0.1051 -0.4416
15036TIP3    H166599   2.230   1.274   3.554 -0.7116 -0.0207  0.7886
15036TIP3    H266600   2.177   1.415   3.536  1.4847  0.5844 -1.4250
15037TIP3   OH266601   2.651   0.134  86.500 -0.1067  0.0223  0.2849
15037TIP3    H166602   2.715   0.161  86.434 -2.8578 -1.1277 -3.1695
15037TIP3    H266603   2.630   0.215  86.547  0.9993  1.2374 -1.1935
15038TIP3   OH266604   0.529   2.394   0.747  0.0932 -0.1626 -0.0743
15038TIP3    H166605   0.449   2.395   0.694 -0.7711 -1.3454  1.1197
15038TIP3    H266606   0.529   2.478   0.792 -1.1459 -0.6037  0.8071
15039TIP3   OH266607   2.614   1.062  25.959  0.3028 -0.4850  0.2243
15039TIP3    H166608   2.614   0.967  25.966  1.6055 -0.5731 -0.6880
15039TIP3    H266609   2.705   1.085  25.942 -0.2431  0.7931 -1.2233
15040TIP3   OH266610   1.196   0.538  38.313 -1.0350  0.2937  0.3977
15040TIP3    H166611   1.291   0.533  38.307 -1.0215 -2.9928  1.5444
15040TIP3    H266612   1.177   0.632  38.315  2.2673  1.0617  1.5495
15041TIP3   OH266613   1.230   1.024   9.576  0.1449 -0.2832  0.0914
15041TIP3    H166614   1.179   1.014   9.496  1.2195 -0.3546 -0.5902
15041TIP3    H266615   1.292   1.094   9.558 -1.6001  1.9051  1.9325
15042TIP3   OH266616   0.254   1.533  78.446 -0.3079 -0.5276 -0.1768
15042TIP3    H166617   0.323   1.526  78.512 -0.9176  0.5426  0.6052
15042TIP3    H266618   0.185   1.474  78.478  0.1968 -1.5495 -0.9260
15043TIP3   OH266619   1.522   2.156  93.733 -0.1135 -0.5848 -0.5636
15043TIP3    H166620   1.573   2.079  93.709  0.3794 -0.4526  0.0482
15043TIP3    H266621   1.457   2.124  93.795  0.8216 -0.3421  0.6012
15044TIP3   OH266622   1.068   0.018  12.321  0.1991 -0.1224  0.4438
15044TIP3    H166623   1.132   0.062  12.265 -0.8468 -1.1892 -1.7281
15044TIP3    H266624   1.107  -0.066  12.342  0.4307  0.1248  1.0207
15045TIP3   OH266625   2.349   0.525   6.198 -0.2192 -0.5641  0.0648
15045TIP3    H166626   2.423   0.545   6.141  0.6102  1.1732  1.6128
15045TIP3    H266627   2.305   0.451   6.157  1.6386 -0.8247 -1.5735
15046TIP3   OH266628   0.082   1.014  94.317  0.1601 -0.0561  0.5597
15046TIP3    H166629   0.002   0.964  94.298 -0.0278  0.0071  1.1820
15046TIP3    H266630   0.094   1.005  94.411  0.7146  0.1996  0.5168
15047TIP3   OH266631   0.767   1.300   5.397 -0.0941  0.4231 -0.1807
15047TIP3    H166632   0.842   1.240   5.402  0.0704  0.6081 -0.4100
15047TIP3    H266633   0.724   1.278   5.314 -0.1296  0.5093 -0.1855
15048TIP3   OH266634   0.870   0.570  97.669 -0.3440 -0.2291 -0.3298
15048TIP3    H166635   0.775   0.567  97.680 -0.3408 -0.2245 -0.3046
15048TIP3    H266636   0.883   0.559  97.575 -0.3717 -0.2599 -0.3324
15049TIP3   OH266637   1.225   0.786  75.505 -0.7446 -0.0694 -0.2862
15049TIP3    H166638   1.141   0.743  75.487 -0.2403 -1.0730 -0.3514
15049TIP3    H266639   1.233   0.853  75.437 -1.3889 -0.1288 -0.4264
15050TIP3   OH266640   2.076   0.016   5.085 -0.2265 -0.2902 -0.6105
15050TIP3    H166641   2.115   0.104   5.093  1.3567 -0.6952 -2.8365
15050TIP3    H266642   2.147  -0.044   5.105 -0.3680 -1.0524 -2.2257
15051TIP3   OH266643   1.697   0.656  33.936 -0.4199 -0.4714 -0.4191
15051TIP3    H166644   1.752   0.713  33.990 -3.3544  1.4011  0.8779
15051TIP3    H266645   1.692   0.574  33.985  1.9526 -1.0812 -1.1020
15052TIP3   OH266646   2.293   0.078  91.095 -0.3258 -0.2196  0.3927
15052TIP3    H166647   2.349   0.156  91.104 -0.1257 -0.4501  1.1938
15052TIP3    H266648   2.218   0.109  91.045 -0.4035  0.5842  0.9841
15053TIP3   OH266649   0.125   1.326  78.539 -0.8784  0.4266 -0.3819
15053TIP3    H166650   0.080   1.302  78.458 -1.4634 -2.2000  0.6281
15053TIP3    H266651   0.171   1.247  78.565  0.1932  1.5508  1.3075
15054TIP3   OH266652   1.486   0.233  33.058  0.0880  0.1048 -0.0407
15054TIP3    H166653   1.579   0.226  33.040  0.1269 -3.0773  0.7553
15054TIP3    H266654   1.480   0.257  33.150  0.1724 -0.5222  0.1338
15055TIP3   OH266655   0.234   2.233   5.514  0.1183 -0.1681 -0.3829
15055TIP3    H166656   0.199   2.291   5.445 -0.7538  1.5538  1.4086
15055TIP3    H266657   0.329   2.237   5.502 -0.0222 -0.2197 -1.7036
15056TIP3   OH266658   1.883   2.684  97.661 -0.5036  0.0039  0.2543
15056TIP3    H166659   1.813   2.633  97.701  1.2347 -2.5173  0.3343
15056TIP3    H266660   1.920   2.626  97.594  0.8913  1.5919 -0.4375
15057TIP3   OH266661   1.072   2.572  97.602  0.4089  0.0142  0.3976
15057TIP3    H166662   1.038   2.526  97.525 -0.9882  2.0993 -0.2966
15057TIP3    H266663   1.020   2.539  97.675 -2.3733  2.1411 -0.4540
15058TIP3   OH266664   2.633   1.352 109.200 -0.4180 -0.2686 -0.0860
15058TIP3    H166665   2.689   1.357 109.122  1.0194 -1.1163  0.8445
15058TIP3    H266666   2.619   1.258 109.213 -0.9901 -0.1120  0.4361
15059TIP3   OH266667   0.704   1.010  14.785 -0.1261 -0.5126  0.6128
15059TIP3    H166668   0.647   0.933  14.789 -1.6172  0.4456 -0.6628
15059TIP3    H266669   0.778   0.983  14.731  0.1351 -1.4902  1.4502
15060TIP3   OH266670   1.837   0.314  28.802 -0.1802  0.4669 -0.4502
15060TIP3    H166671   1.906   0.249  28.788 -0.0836  0.6995 -1.0493
15060TIP3    H266672   1.873   0.396  28.770 -0.1426  0.9240  0.6925
15061TIP3   OH266673   0.670   1.473  23.652  0.0103 -0.8454  0.4628
15061TIP3    H166674   0.717   1.392  23.669 -0.4306 -1.2057 -0.0217
15061TIP3    H266675   0.617   1.455  23.575 -0.1042 -0.1022  0.3574
15062TIP3   OH266676   0.849   1.303  84.503 -0.2648  0.2770  0.1561
15062TIP3    H166677   0.917   1.238  84.493  1.0800  1.6312  0.1403
15062TIP3    H266678   0.776   1.257  84.545  1.5316 -0.6586  2.4161
15063TIP3   OH266679   1.763   0.297  23.110 -0.4554  0.5769  0.1463
15063TIP3    H166680   1.690   0.234  23.105 -0.3875  0.5563 -0.6575
15063TIP3    H266681   1.727   0.378  23.076 -0.4909  0.9459  1.0299
15064TIP3   OH266682   2.451   0.759  87.715 -0.6352 -0.3645 -0.4671
15064TIP3    H166683   2.486   0.769  87.626 -1.3539  1.2036 -0.6215
15064TIP3    H266684   2.465   0.845  87.756 -0.6010 -0.9674  0.8353
15065TIP3   OH266685   0.413   1.758  26.507 -0.1279  0.6471  0.5730
15065TIP3    H166686   0.403   1.768  26.602 -1.6298  1.1870  0.3780
15065TIP3    H266687   0.363   1.831  26.470  0.9322  0.8068 -0.6431
15066TIP3   OH266688   0.283   0.733 103.185 -0.4427 -0.3716 -0.6136
15066TIP3    H166689   0.272   0.667 103.117  1.7053 -1.0022 -0.4077
15066TIP3    H266690   0.291   0.683 103.266 -3.7891  0.3964  0.3348
15067TIP3   OH266691   1.913   1.834  16.922 -0.1057  0.4036 -0.4071
15067TIP3    H166692   1.909   1.748  16.878  0.2422  0.0972  0.1517
15067TIP3    H266693   1.827   1.872  16.908  0.6615  1.3436 -3.3905
15068TIP3   OH266694   1.663   1.055  19.938  0.5856 -0.7404 -0.4557
15068TIP3    H166695   1.641   1.146  19.916  2.0789 -0.6952 -1.9128
15068TIP3    H266696   1.596   1.029  20.002 -1.3932  0.5638 -1.8845
15069TIP3   OH266697   1.164   0.377  27.950  0.0933 -0.1600 -0.2436
15069TIP3    H166698   1.186   0.456  27.899  0.1108  2.4755  3.4672
15069TIP3    H266699   1.244   0.324  27.946 -0.2496 -0.6468 -3.6400
15070TIP3   OH266700   2.600   2.052 102.127 -0.0196 -0.1587  0.1419
15070TIP3    H166701   2.550   2.068 102.207  1.2163  1.7304  0.5983
15070TIP3    H266702   2.645   1.969 102.143 -2.4201 -1.5809 -0.0295
15071TIP3   OH266703   0.333   0.105 110.518  0.1544 -0.0845 -0.5429
15071TIP3    H166704   0.334   0.199 110.504  0.3087 -0.0433 -0.2726
15071TIP3    H266705   0.425   0.079 110.507  0.2025 -0.1187 -0.0847
15072TIP3   OH266706   1.760   0.121 100.795  0.0251  0.1142 -0.3422
15072TIP3    H166707   1.796   0.174 100.867 -0.0728  0.8360 -0.8225
15072TIP3    H266708   1.717   0.048 100.840 -0.0039  0.5329  0.3416
15073TIP3   OH266709   0.393   0.968  17.300 -0.2703 -0.3175  0.0864
15073TIP3    H166710   0.480   0.951  17.263 -0.9853 -1.4477 -1.1835
15073TIP3    H266711   0.339   0.896  17.267 -1.8092  0.6320  0.4534
15074TIP3   OH266712   1.736   2.373  13.013  0.2820 -0.6973  0.1416
15074TIP3    H166713   1.759   2.363  12.921  0.8017 -1.3222  0.3331
15074TIP3    H266714   1.640   2.362  13.014  0.3285 -1.1886 -0.2597
15075TIP3   OH266715   2.449   0.161  95.016 -0.7627  0.4814  0.1234
15075TIP3    H166716   2.420   0.222  95.084 -0.5818  0.2682  0.3972
15075TIP3    H266717   2.370   0.114  94.991 -0.5932 -0.4340  1.2094
15076TIP3   OH266718   1.229   1.192  96.793  0.7056  1.0516  0.4381
15076TIP3    H166719   1.138   1.208  96.766  0.4381 -1.0228 -0.0419
15076TIP3    H266720   1.282   1.224  96.720  0.3377  1.6711  0.4360
15077TIP3   OH266721   1.974   1.156  36.921  0.2988  0.1313  0.3616
15077TIP3    H166722   1.976   1.239  36.969  0.4171  0.9114 -0.9552
15077TIP3    H266723   2.066   1.136  36.905  0.2120  0.8393 -1.1305
15078TIP3   OH266724   2.472   2.094  20.294  0.1067 -0.1852 -0.1176
15078TIP3    H166725   2.474   2.168  20.233 -0.5052  0.8597  1.0710
15078TIP3    H266726   2.451   2.019  20.240 -0.8095  0.7744 -1.1499
15079TIP3   OH266727   1.916   2.041  21.154  0.3041  0.2840 -0.4544
15079TIP3    H166728   1.901   2.062  21.061 -2.1877  1.3320  0.0893
15079TIP3    H266729   1.833   2.003  21.184  1.2392 -0.5399  1.2396
15080TIP3   OH266730   1.333   0.315 105.996 -0.4117  0.0406 -0.2068
15080TIP3    H166731   1.243   0.326 105.968 -0.2345  0.5324 -0.5806
15080TIP3    H266732   1.336   0.226 106.032 -0.8805 -0.2363 -0.8299
15081TIP3   OH266733   0.510   0.111  86.382 -0.5609 -0.0279  0.0766
15081TIP3    H166734   0.477   0.070  86.463  0.9218  0.4094  0.9406
15081TIP3    H266735   0.460   0.069  86.312 -2.0240 -0.2925  1.2162
15082TIP3   OH266736   1.295   0.447  22.639  0.2670  0.3616 -0.7340
15082TIP3    H166737   1.308   0.531  22.595  0.0064 -0.0572 -1.6363
15082TIP3    H266738   1.200   0.437  22.643  0.2397  1.0726  1.2841
15083TIP3   OH266739   0.471   1.814 106.524  0.1654 -0.0089 -0.4500
15083TIP3    H166740   0.507   1.855 106.446 -1.7223  2.4393 -0.1934
15083TIP3    H266741   0.425   1.737 106.492  1.4784 -0.4343 -1.3798
15084TIP3   OH266742   1.402   0.698  87.705  0.6899 -0.1586 -0.1239
15084TIP3    H166743   1.350   0.621  87.680  0.3349 -0.0991  0.4252
15084TIP3    H266744   1.346   0.747  87.765  1.4964 -0.2459  0.7104
15085TIP3   OH266745   0.779   0.678  36.453  0.1820 -0.1043 -0.4827
15085TIP3    H166746   0.690   0.708  36.436  0.6046  0.9825 -0.9191
15085TIP3    H266747   0.798   0.709  36.542 -0.3434 -1.5672  0.1700
15086TIP3   OH266748   2.414   0.481   2.855  0.1126 -0.1786 -0.0547
15086TIP3    H166749   2.473   0.554   2.834 -0.4312  0.0078 -1.0010
15086TIP3    H266750   2.447   0.408   2.802  0.6286 -0.6240  0.8572
15087TIP3   OH266751   0.357   1.272   4.732 -0.3641  0.0514 -0.1190
15087TIP3    H166752   0.427   1.212   4.760  1.3488  1.3452 -1.3438
15087TIP3    H266753   0.404   1.349   4.698 -2.3940  0.9057 -1.1793
15088TIP3   OH266754   1.500   1.974  80.244  0.2414 -0.2627  0.0150
15088TIP3    H166755   1.507   2.036  80.172 -0.2815  1.3182  1.2758
15088TIP3    H266756   1.451   1.900  80.207  0.1921  0.4032 -1.3044
15089TIP3   OH266757   0.176   2.136  77.957 -0.1119  0.4844 -0.9790
15089TIP3    H166758   0.243   2.167  78.017  0.4719  0.3436 -1.5456
15089TIP3    H266759   0.172   2.203  77.888 -0.6094  0.5314 -0.9127
15090TIP3   OH266760   0.267   1.596  75.350 -0.2678  0.2538  0.1142
15090TIP3    H166761   0.268   1.603  75.446  0.9646 -1.9630  0.3288
15090TIP3    H266762   0.174   1.601  75.327 -0.6405  0.1537  1.5011
15091TIP3   OH266763   1.327   1.879   7.233  0.0994  0.2589 -0.2908
15091TIP3    H166764   1.243   1.834   7.241  0.6613 -0.8513 -0.4370
15091TIP3    H266765   1.386   1.830   7.290  0.6997  0.9183 -0.3290
15092TIP3   OH266766   2.064   2.240  28.129 -0.6353  0.4142 -0.3078
15092TIP3    H166767   2.023   2.315  28.086 -0.6312  0.4918 -0.1781
15092TIP3    H266768   2.125   2.205  28.064 -0.7958  0.3912 -0.4481
15093TIP3   OH266769   1.250   0.069  36.736  0.4297 -0.6572 -0.6897
15093TIP3    H166770   1.211   0.032  36.815 -0.1843  2.2084  0.4513
15093TIP3    H266771   1.333   0.021  36.726  0.5357 -1.0996  1.6929
15094TIP3   OH266772   2.663   2.329  90.865 -0.0945  0.3145 -0.0059
15094TIP3    H166773   2.639   2.421  90.879  1.0082  1.1283 -2.7173
15094TIP3    H266774   2.598   2.297  90.802 -0.3801 -0.7346  0.8130
15095TIP3   OH266775   0.683   2.209   6.321  0.1746 -0.0342  0.2500
15095TIP3    H166776   0.713   2.241   6.236  0.2493 -0.9545 -0.0718
15095TIP3    H266777   0.757   2.161   6.356 -1.1019 -3.0528 -0.9085
15096TIP3   OH266778   0.293   0.152  98.351 -0.0502 -0.2266  0.3401
15096TIP3    H166779   0.365   0.213  98.363 -0.2652 -0.0228  0.6081
15096TIP3    H266780   0.223   0.185  98.408 -0.7881  0.2551 -0.8154
15097TIP3   OH266781   0.768   1.436  80.342 -0.0288  0.2826 -0.1171
15097TIP3    H166782   0.838   1.446  80.407 -0.2278 -1.3566  0.4034
15097TIP3    H266783   0.783   1.507  80.280  1.3760  0.6933  0.6453
15098TIP3   OH266784   1.178   2.517  52.876 -0.5060 -0.0791 -0.4527
15098TIP3    H166785   1.166   2.424  52.894 -0.5685 -0.0619 -0.4049
15098TIP3    H266786   1.268   2.535  52.902  0.2460 -0.6123 -2.4771
15099TIP3   OH266787   0.676   0.853  97.850  0.2886 -0.3332  0.1143
15099TIP3    H166788   0.687   0.918  97.780 -1.5403  0.5080  0.5374
15099TIP3    H266789   0.759   0.855  97.898  0.2680  1.8133  0.1843
15100TIP3   OH266790   1.263   1.735   0.931  0.2572 -0.2226  0.0967
15100TIP3    H166791   1.304   1.710   0.849 -0.9304  0.3081 -0.6885
15100TIP3    H266792   1.286   1.827   0.943 -0.1037 -0.1181  0.0124
15101TIP3   OH266793   2.554   0.021 103.337  0.7416  0.0936 -0.1146
15101TIP3    H166794   2.484  -0.041 103.316 -0.1661  1.0495  0.0186
15101TIP3    H266795   2.574   0.003 103.429  1.1668 -0.6369 -0.3399
15102TIP3   OH266796   1.285   2.629  26.922 -0.2588 -0.3888 -0.0689
15102TIP3    H166797   1.275   2.589  26.836 -0.8085 -2.1840  0.7898
15102TIP3    H266798   1.216   2.591  26.975 -1.2392  2.2281  0.6838
15103TIP3   OH266799   1.172   1.389 102.505 -0.2967  0.2377 -0.0729
15103TIP3    H166800   1.156   1.435 102.423  0.1198 -0.9118 -0.8289
15103TIP3    H266801   1.256   1.422 102.535 -1.2391  1.9333  0.8199
15104TIP3   OH266802   1.737   0.879  13.709 -0.1855 -0.6106  0.2455
15104TIP3    H166803   1.691   0.894  13.626 -0.8372  0.5183  0.7857
15104TIP3    H266804   1.815   0.934  13.702 -0.8138  0.3764  0.8241
15105TIP3   OH266805   0.366   0.458 102.362  0.0349  0.4823  0.4102
15105TIP3    H166806   0.366   0.532 102.422 -0.2790 -0.3621  1.4998
15105TIP3    H266807   0.434   0.399 102.395 -0.2202 -0.0530  0.0151
15106TIP3   OH266808   1.801   1.746  15.766 -0.1960  0.0069 -0.4163
15106TIP3    H166809   1.778   1.805  15.837 -0.0579  0.4450 -0.7319
15106TIP3    H266810   1.840   1.670  15.810  0.0194  0.3352 -0.0358
15107TIP3   OH266811   2.009   1.076   4.487  0.1232 -0.8467 -0.0022
15107TIP3    H166812   2.054   1.142   4.540  1.4936 -1.2228 -0.6500
15107TIP3    H266813   1.925   1.117   4.464  1.0739  0.8093 -0.6605
15108TIP3   OH266814   0.329   1.728  22.855 -0.2454 -0.4990 -0.1668
15108TIP3    H166815   0.349   1.656  22.915  1.1475  0.3252  0.4216
15108TIP3    H266816   0.388   1.714  22.781  0.0959  0.0648 -0.0103
15109TIP3   OH266817   1.480   2.616  85.656  0.0340 -0.2486 -0.6871
15109TIP3    H166818   1.503   2.618  85.749  0.6416 -0.9253 -0.8147
15109TIP3    H266819   1.438   2.701  85.640 -0.1858 -0.1795  0.2306
15110TIP3   OH266820   1.833   2.353   1.272 -0.2476 -0.3733 -0.2141
15110TIP3    H166821   1.883   2.291   1.218 -0.2577 -1.0676  0.5592
15110TIP3    H266822   1.853   2.327   1.362 -0.8266  0.3014  0.1121
15111TIP3   OH266823   0.853   1.549  20.447  0.0727 -0.0505 -0.0151
15111TIP3    H166824   0.941   1.515  20.431 -0.7636 -1.8972 -1.0501
15111TIP3    H266825   0.828   1.512  20.532  0.2598  0.4310  0.2536
15112TIP3   OH266826   1.581   0.147  22.800  0.0915 -0.4997 -0.3604
15112TIP3    H166827   1.563   0.108  22.886  2.3074 -0.4767  0.1850
15112TIP3    H266828   1.667   0.186  22.810  0.1354  0.0166 -2.4493
15113TIP3   OH266829   0.773   1.635  78.550  0.1856 -0.8703  0.8069
15113TIP3    H166830   0.691   1.607  78.590 -0.5503 -1.1796 -0.8480
15113TIP3    H266831   0.805   1.705  78.607 -2.6343  1.2188  0.0470
15114TIP3   OH266832   0.920   1.354  30.019 -0.4272  0.1811 -0.0960
15114TIP3    H166833   0.829   1.383  30.022 -0.1533  1.1212 -0.2692
15114TIP3    H266834   0.918   1.272  29.970 -1.4433 -0.9426  1.7600
15115TIP3   OH266835   1.000   0.774  22.540 -0.1074  0.0629  0.4283
15115TIP3    H166836   1.010   0.775  22.445  1.4989 -2.6539  0.4688
15115TIP3    H266837   1.069   0.832  22.572  0.7860 -0.7320 -0.0230
15116TIP3   OH266838   0.605   0.260  18.105  0.2086 -0.2846 -0.3771
15116TIP3    H166839   0.590   0.322  18.177 -1.8534 -0.2093 -0.8117
15116TIP3    H266840   0.663   0.306  18.045 -1.0061  1.1335 -0.5209
15117TIP3   OH266841   2.464   1.208  76.988 -0.4589 -0.4780  0.0142
15117TIP3    H166842   2.553   1.209  76.954 -0.4029 -0.5274  0.1562
15117TIP3    H266843   2.441   1.115  76.994 -0.1673 -0.5062  0.8694
15118TIP3   OH266844   1.750   2.390  33.383 -0.6001 -0.3815 -0.2907
15118TIP3    H166845   1.769   2.384  33.289  1.1325 -3.1568  0.1048
15118TIP3    H266846   1.658   2.365  33.391 -1.1809  1.2910 -1.3168
15119TIP3   OH266847   0.281   2.020 100.142  0.5020 -0.2726  0.1727
15119TIP3    H166848   0.261   1.927 100.148  0.6878 -0.4487 -1.5385
15119TIP3    H266849   0.351   2.026 100.076  0.3781  1.0898  0.1286
15120TIP3   OH266850   0.881   1.246  15.814 -0.2306 -0.3176  0.0291
15120TIP3    H166851   0.964   1.252  15.768 -0.2491  0.6876  0.1044
15120TIP3    H266852   0.822   1.303  15.765  0.1294  1.9811  2.0471
15121TIP3   OH266853   2.684   1.655  35.548 -0.1329 -0.3374  0.0418
15121TIP3    H166854   2.774   1.684  35.538 -0.3408  0.4168  0.2931
15121TIP3    H266855   2.654   1.637  35.458  0.3701 -0.9231 -0.0109
15122TIP3   OH266856   1.408   2.590  15.114 -0.1677  0.1241  0.2705
15122TIP3    H166857   1.318   2.557  15.117 -0.6167  1.2823 -0.1220
15122TIP3    H266858   1.400   2.679  15.080  1.0991  0.3541  0.5349
15123TIP3   OH266859   2.676   1.945  18.113  0.0135  0.4044 -0.2840
15123TIP3    H166860   2.712   2.016  18.060  1.5584  0.8194  1.2142
15123TIP3    H266861   2.751   1.888  18.131 -0.9187 -0.8559 -0.2937
15124TIP3   OH266862   2.035   2.534 106.508  0.2305 -0.4715 -0.5803
15124TIP3    H166863   1.951   2.490 106.516 -0.1604  0.3354 -0.1803
15124TIP3    H266864   2.066   2.544 106.598  1.7693 -2.6245 -0.7985
15125TIP3   OH266865   2.101   1.174  99.128  0.3986 -0.5235 -0.0703
15125TIP3    H166866   2.152   1.120  99.067  1.0031 -1.4924  1.2347
15125TIP3    H266867   2.131   1.147  99.215 -3.4354 -2.2836  0.8880
15126TIP3   OH266868   0.413   0.579  59.987  0.0059 -0.2550  0.4244
15126TIP3    H166869   0.484   0.638  59.964  0.8004 -1.5109 -0.5019
15126TIP3    H266870   0.394   0.531  59.906  0.8211 -2.7100  1.5885
15127TIP3   OH266871   0.177   1.630  16.383 -0.0174  0.0041  0.2425
15127TIP3    H166872   0.163   1.720  16.353 -0.1992  0.1314  0.6935
15127TIP3    H266873   0.270   1.628  16.408 -0.2748  0.3929  1.2781
15128TIP3   OH266874   0.078   0.731 106.117  0.4887 -0.3300 -0.1584
15128TIP3    H166875  -0.016   0.718 106.102  0.4903  1.2942 -1.9955
15128TIP3    H266876   0.089   0.722 106.211 -0.9093 -3.9683 -0.1732
15129TIP3   OH266877   2.325   2.578  31.692 -0.2229  0.4269  0.8757
15129TIP3    H166878   2.419   2.587  31.708 -0.2098  1.1070  0.4718
15129TIP3    H266879   2.310   2.627  31.611 -0.7114 -0.7486  0.2319
15130TIP3   OH266880   2.170   1.924  63.096 -0.1067 -0.2829  0.3844
15130TIP3    H166881   2.184   1.997  63.156  1.9423  0.0231 -0.3792
15130TIP3    H266882   2.089   1.945  63.050 -0.5824  0.5122  1.5682
15131TIP3   OH266883   1.013   0.254  98.522  0.5000 -0.4709  0.3145
15131TIP3    H166884   0.966   0.174  98.498  0.5483 -0.9291  1.6856
15131TIP3    H266885   1.061   0.232  98.602 -1.4367  1.5856  2.2088
15132TIP3   OH266886   1.046   1.647 103.811 -0.5660  0.2012  0.0192
15132TIP3    H166887   1.027   1.591 103.735  1.1556  1.5997 -1.5581
15132TIP3    H266888   1.113   1.599 103.859  0.1114  0.3676 -0.7303
15133TIP3   OH266889   0.331   0.144  67.070  0.0425 -0.4601  0.1031
15133TIP3    H166890   0.385   0.216  67.039  1.1860 -1.9956 -1.6693
15133TIP3    H266891   0.368   0.066  67.029 -1.5142 -2.0125  1.4545
15134TIP3   OH266892   0.381   1.035  77.743  0.0073 -0.9049  1.0618
15134TIP3    H166893   0.295   1.073  77.759 -0.6091 -1.0914 -1.3553
15134TIP3    H266894   0.432   1.107  77.706 -0.5218 -1.7678 -1.5795
15135TIP3   OH266895   0.408   0.684  95.593  0.3136 -0.0238 -0.0290
15135TIP3    H166896   0.502   0.695  95.600  0.1619  0.8670  0.6931
15135TIP3    H266897   0.372   0.733  95.666 -0.6623 -1.4036  0.4672
15136TIP3   OH266898   0.576   2.260  76.940  0.0654  0.2016 -0.0189
15136TIP3    H166899   0.553   2.294  77.026  0.0884 -0.2134  0.1500
15136TIP3    H266900   0.563   2.165  76.946  0.4272  0.1225 -0.3547
15137TIP3   OH266901   2.310   1.390 105.281 -0.1659 -0.1807  0.4015
15137TIP3    H166902   2.286   1.392 105.188 -0.1282 -0.1589  0.3950
15137TIP3    H266903   2.229   1.365 105.326 -0.1903 -0.1681  0.3661
15138TIP3   OH266904   0.126   2.152  11.482  0.4151  0.3721 -0.3183
15138TIP3    H166905   0.160   2.098  11.553 -0.4814  0.7156  0.3856
15138TIP3    H266906   0.162   2.239  11.499  0.4053  0.4000 -0.4365
15139TIP3   OH266907   1.934   2.393  11.284  0.1778 -0.3715  0.2580
15139TIP3    H166908   1.898   2.371  11.198  0.2930 -0.2358  0.1753
15139TIP3    H266909   1.872   2.354  11.346  0.4984 -1.1286  0.1127
15140TIP3   OH266910   0.728   2.228  80.364  0.5671  0.1513  0.5818
15140TIP3    H166911   0.672   2.179  80.425  1.2297  1.2138  2.1241
15140TIP3    H266912   0.816   2.191  80.379  0.9354  1.2310  1.1896
15141TIP3   OH266913   1.555   1.311  97.596 -0.8766  0.2358  0.3633
15141TIP3    H166914   1.519   1.249  97.533 -0.2986 -1.6733  1.8151
15141TIP3    H266915   1.644   1.328  97.565 -0.8367 -0.1495  0.2526
15142TIP3   OH266916   2.353   1.830  15.122 -0.4805  0.0397  0.5209
15142TIP3    H166917   2.402   1.754  15.153  0.3018  0.8578  1.3412
15142TIP3    H266918   2.266   1.820  15.161  0.0240  0.2434  1.7432
15143TIP3   OH266919   0.137   0.164  87.672  0.4411  0.1030 -0.3474
15143TIP3    H166920   0.060   0.221  87.673  0.5381  0.3526  2.7793
15143TIP3    H266921   0.211   0.225  87.681  0.8749 -0.2652 -1.3459
15144TIP3   OH266922   1.620   2.527 109.009  0.2225 -0.4711 -0.2256
15144TIP3    H166923   1.549   2.480 108.965  0.2400  0.4920 -1.3463
15144TIP3    H266924   1.577   2.603 109.048  0.7128  0.5145 -1.5431
15145TIP3   OH266925   2.094   1.209  23.318 -0.4321  0.1637  0.5512
15145TIP3    H166926   2.185   1.225  23.293 -0.1177 -2.0865  0.0185
15145TIP3    H266927   2.092   1.220  23.413  0.1357  1.2261  0.4501
15146TIP3   OH266928   1.965   1.803  20.002  0.1816 -0.0733 -0.6274
15146TIP3    H166929   2.054   1.784  20.030 -0.4886  0.1664  1.9497
15146TIP3    H266930   1.965   1.897  19.983  0.7502 -0.3194 -1.9573
15147TIP3   OH266931   1.912   1.742 110.565  0.0299  0.3147  0.4863
15147TIP3    H166932   1.925   1.657 110.523  0.4578  0.5536  0.1243
15147TIP3    H266933   1.945   1.731 110.654 -0.0389  0.0656  0.4792
15148TIP3   OH266934   0.341   0.292  81.864 -0.0023  0.0248 -0.1048
15148TIP3    H166935   0.380   0.210  81.895 -1.3963 -0.3456  0.7431
15148TIP3    H266936   0.296   0.269  81.783 -0.7647 -0.1540  0.3614
15149TIP3   OH266937   0.158   1.448  31.249 -0.6373 -0.2782 -0.6063
15149TIP3    H166938   0.208   1.419  31.173 -0.5000 -1.4432 -0.0907
15149TIP3    H266939   0.068   1.419  31.232 -0.2356 -2.4233  0.5623
15150TIP3   OH266940   2.374   2.187  25.568  0.1702 -0.1312  0.0076
15150TIP3    H166941   2.281   2.204  25.553  0.0534 -0.7375  0.0180
15150TIP3    H266942   2.395   2.115  25.508  0.6641  0.0963 -0.0946
15151TIP3   OH266943   2.362   1.524  85.802 -0.3575 -0.1679 -0.5460
15151TIP3    H166944   2.380   1.527  85.896  0.9512  0.0075 -0.7802
15151TIP3    H266945   2.442   1.558  85.762 -0.7531 -0.6230 -1.7411
15152TIP3   OH266946   0.285   0.321  30.126 -0.0870  0.1740 -0.6918
15152TIP3    H166947   0.324   0.296  30.210  1.9852  1.1090 -1.2992
15152TIP3    H266948   0.192   0.331  30.144  0.5595  2.4714  2.0856
15153TIP3   OH266949   1.859   0.847  57.183  0.0655 -0.1487  0.3485
15153TIP3    H166950   1.902   0.785  57.126  0.2813 -0.7303  1.1284
15153TIP3    H266951   1.916   0.854  57.260 -1.0510 -0.7137  1.2697
15154TIP3   OH266952   1.958   1.221 101.226  0.6608  0.0352  0.1864
15154TIP3    H166953   2.022   1.180 101.285 -0.4018  0.9439  2.0794
15154TIP3    H266954   1.873   1.207 101.269 -0.0193  1.8459 -0.4475
15155TIP3   OH266955   2.058   0.984 109.271 -0.1909 -0.2588 -0.2351
15155TIP3    H166956   1.971   0.978 109.232  0.0503 -1.1349 -0.6719
15155TIP3    H266957   2.057   0.919 109.341  0.2334 -0.5494 -0.4966
15156TIP3   OH266958   1.488   2.120  28.827 -0.2695 -0.2807  0.0374
15156TIP3    H166959   1.422   2.052  28.845 -0.4631  0.0719  0.6974
15156TIP3    H266960   1.439   2.189  28.782 -0.0612 -0.5966 -0.6817
15157TIP3   OH266961   1.089   0.124  76.417  0.4233 -0.0898  0.4628
15157TIP3    H166962   1.079   0.154  76.507 -1.5681  0.7073  0.0379
15157TIP3    H266963   1.061   0.032  76.418  0.1213  0.0010  0.6315
15158TIP3   OH266964   1.909   0.864  31.314  0.1327  0.1688 -0.0405
15158TIP3    H166965   1.861   0.836  31.392  1.6427  0.0955  0.8927
15158TIP3    H266966   1.904   0.789  31.255  0.9341 -0.6912  0.9353
15159TIP3   OH266967   0.245   0.654  18.247 -0.1599 -0.3157 -0.1052
15159TIP3    H166968   0.193   0.719  18.198 -0.8094 -0.1466  0.7862
15159TIP3    H266969   0.235   0.573  18.196 -1.9204 -0.4691  0.4118
15160TIP3   OH266970   2.287   2.219 101.266 -0.6834 -0.6137 -0.1168
15160TIP3    H166971   2.204   2.260 101.241 -1.0504 -1.2071  0.0936
15160TIP3    H266972   2.275   2.195 101.358 -0.9329 -2.2299 -0.5406
15161TIP3   OH266973   2.302   0.819   1.373  0.0566 -0.2564 -0.1614
15161TIP3    H166974   2.282   0.751   1.309  1.3012 -0.6257 -0.1843
15161TIP3    H266975   2.370   0.872   1.331 -0.6664  0.8378 -0.0191
15162TIP3   OH266976   1.995   2.591  18.832  0.3770 -0.3101 -0.0715
15162TIP3    H166977   1.939   2.595  18.910 -0.3589  0.1479 -0.6144
15162TIP3    H266978   1.997   2.681  18.800 -0.3177 -0.6973 -1.2725
15163TIP3   OH266979   1.926   2.645  92.785  0.4494  0.1777  0.5696
15163TIP3    H166980   1.879   2.631  92.703 -0.3330 -0.7552  1.1512
15163TIP3    H266981   2.017   2.622  92.765 -0.0873 -2.1022  0.4474
15164TIP3   OH266982   0.217   1.256  23.148 -0.4568 -0.0525  0.2737
15164TIP3    H166983   0.127   1.282  23.130 -0.4079  0.8253  1.1392
15164TIP3    H266984   0.250   1.222  23.066 -0.8981  1.7041 -0.6868
15165TIP3   OH266985   0.722   0.971  17.350 -0.9364  0.3039 -0.2133
15165TIP3    H166986   0.744   0.947  17.440 -2.0911  0.2341  0.0690
15165TIP3    H266987   0.752   0.897  17.297 -0.4891  0.2260  0.1458
15166TIP3   OH266988   1.843   2.203  22.711  1.1239 -0.0958  0.0393
15166TIP3    H166989   1.785   2.278  22.721  0.5351 -0.5485  0.0499
15166TIP3    H266990   1.931   2.242  22.701  0.6646  0.6409 -1.4114
15167TIP3   OH266991   2.084   1.099 102.307 -0.1363  0.1585 -0.2422
15167TIP3    H166992   2.070   1.193 102.322 -3.2487  0.0276 -1.6941
15167TIP3    H266993   2.088   1.062 102.395  0.7945  1.5579  0.3535
15168TIP3   OH266994   1.114   0.567  94.316  0.2836  0.0144 -0.1578
15168TIP3    H166995   1.153   0.500  94.371 -0.4506 -0.8560 -0.6649
15168TIP3    H266996   1.187   0.598  94.262  0.4475 -1.0876 -0.6120
15169TIP3   OH266997   2.226   1.372  86.316  0.4558 -0.3586  0.0827
15169TIP3    H166998   2.169   1.299  86.293  0.4965 -0.4597  0.2938
15169TIP3    H266999   2.187   1.409  86.396  0.6643 -0.4057  0.2080
15170TIP3   OH267000   2.065   0.175  63.113 -0.6502 -0.0361 -0.5347
15170TIP3    H167001   2.044   0.117  63.040  1.0058  0.0757 -1.1433
15170TIP3    H267002   2.150   0.145  63.144 -0.3514  1.2596 -0.0423
15171TIP3   OH267003   1.253   1.411  10.609  0.1095 -0.1695  0.4281
15171TIP3    H167004   1.171   1.411  10.659 -1.2911 -0.4149 -1.7134
15171TIP3    H267005   1.227   1.382  10.522  2.5316 -0.3206 -0.3082
15172TIP3   OH267006   0.796   1.933 111.837 -0.3820  0.5822  0.4394
15172TIP3    H167007   0.724   1.889 111.792 -0.8434 -1.2461  2.8096
15172TIP3    H267008   0.753   2.000 111.891 -0.2457  0.1315  1.1183
15173TIP3   OH267009   1.977   0.280 111.026 -0.7224 -0.1679 -0.0201
15173TIP3    H167010   1.893   0.256 111.064 -0.4077 -0.4556  0.4946
15173TIP3    H267011   2.029   0.313 111.099  0.1150 -1.3412 -0.0612
15174TIP3   OH267012   1.326   2.620  77.025  0.7866 -0.1395 -0.5445
15174TIP3    H167013   1.312   2.597  76.933  1.9015  0.6156 -0.9208
15174TIP3    H267014   1.400   2.566  77.052  0.2914 -0.5642  0.0161
15175TIP3   OH267015   0.976   1.328  36.030  0.2166  0.7098 -0.2975
15175TIP3    H167016   0.974   1.233  36.021  1.1142  0.6696 -0.2224
15175TIP3    H267017   0.906   1.359  35.973 -0.1240  0.0043 -0.2748
15176TIP3   OH267018   1.902   0.349  78.642  0.2138  0.5367 -0.1633
15176TIP3    H167019   1.980   0.379  78.595  1.5039 -1.5973  0.4203
15176TIP3    H267020   1.850   0.303  78.576  0.9353 -0.5552  0.0009
15177TIP3   OH267021   0.773   1.328  78.865 -0.2386 -0.4889  0.3817
15177TIP3    H167022   0.740   1.293  78.782  2.0735 -2.0446  0.0078
15177TIP3    H267023   0.803   1.416  78.843 -1.3093 -0.1845  0.0440
15178TIP3   OH267024   1.700   1.833  29.478 -0.2821 -0.6882 -0.1233
15178TIP3    H167025   1.752   1.835  29.398 -0.0703  0.9608  0.0199
15178TIP3    H267026   1.626   1.891  29.460  0.1073  0.2190  1.0779
15179TIP3   OH267027   1.619   0.248  96.802  0.5066 -0.0793  0.3426
15179TIP3    H167028   1.567   0.189  96.856 -0.0038 -0.6405 -0.7108
15179TIP3    H267029   1.700   0.201  96.785  1.0454  0.4646  1.3237
15180TIP3   OH267030   2.233   1.090  34.927  0.3127 -0.3820  0.4203
15180TIP3    H167031   2.191   1.004  34.923 -1.7753  0.5609  0.4641
15180TIP3    H267032   2.295   1.090  34.855  1.2816 -2.3457  1.1828
15181TIP3   OH267033   1.869   1.490  24.542  0.4791  0.0587  0.7871
15181TIP3    H167034   1.780   1.496  24.578 -0.0196 -0.9812 -0.2116
15181TIP3    H267035   1.924   1.470  24.618 -0.6803 -3.1109  0.9453
15182TIP3   OH267036   2.507   0.849  91.031  0.0984 -0.2887 -0.0775
15182TIP3    H167037   2.461   0.856  91.114  1.0693  2.0715  0.3416
15182TIP3    H267038   2.454   0.900  90.969 -1.1047 -2.7642 -1.2132
15183TIP3   OH267039   0.409   2.011  74.478  0.0313  0.0563  0.3472
15183TIP3    H167040   0.387   2.104  74.466 -0.1247 -0.1298 -0.9669
15183TIP3    H267041   0.500   2.004  74.452 -0.9926 -0.8143 -3.7575
15184TIP3   OH267042   1.300   1.864  29.453 -0.1607 -0.2945  0.2097
15184TIP3    H167043   1.328   1.777  29.423 -2.0848 -1.1911  0.8419
15184TIP3    H267044   1.286   1.853  29.547  2.7478  1.6295  0.9943
15185TIP3   OH267045   1.288   1.325   4.576  0.0670 -0.0622 -0.1648
15185TIP3    H167046   1.208   1.313   4.524  0.1882  0.6276 -0.5252
15185TIP3    H267047   1.284   1.257   4.642 -0.1302 -0.9224 -1.0361
15186TIP3   OH267048   1.552   1.071  12.272 -0.2774 -0.0157 -0.3273
15186TIP3    H167049   1.482   1.006  12.269  0.3269 -0.6887 -0.1692
15186TIP3    H267050   1.622   1.033  12.218  0.7419 -0.3208  1.1505
15187TIP3   OH267051   0.293   1.115  29.539 -0.4858  0.1045 -0.3729
15187TIP3    H167052   0.277   1.112  29.445  1.1279 -0.2854 -0.6739
15187TIP3    H267053   0.248   1.038  29.574  0.3941 -0.7638 -1.1020
15188TIP3   OH267054   2.614   1.518  77.300  0.0020  0.4029  0.7168
15188TIP3    H167055   2.589   1.600  77.258 -0.7183  0.2120  0.7631
15188TIP3    H267056   2.537   1.463  77.293  1.2151 -1.1920 -1.4893
15189TIP3   OH267057   1.081   0.918  85.384  0.1941  0.1275 -0.2253
15189TIP3    H167058   1.157   0.921  85.442  0.2934  0.7172 -0.3769
15189TIP3    H267059   1.015   0.972  85.427  0.4656  1.0409 -0.9241
15190TIP3   OH267060   2.425   2.118 109.539  0.3875  0.5355  0.4902
15190TIP3    H167061   2.398   2.105 109.630  0.6331  0.4470  0.5498
15190TIP3    H267062   2.519   2.131 109.543  0.5683 -0.5781  0.1501
15191TIP3   OH267063   1.994   0.754  17.241  0.4834  0.2170 -0.5411
15191TIP3    H167064   1.951   0.803  17.170  1.4340  1.3798 -0.3338
15191TIP3    H267065   2.081   0.733  17.207  1.2801  1.5583  0.5760
15192TIP3   OH267066   0.158   2.641  89.062  0.3973  0.0111  0.0894
15192TIP3    H167067   0.132   2.558  89.023 -2.1805  0.7738  0.0463
15192TIP3    H267068   0.092   2.658  89.129  0.6526  2.2147 -0.1483
15193TIP3   OH267069   1.182   0.071  35.464 -0.4104  0.0362 -0.0078
15193TIP3    H167070   1.244   0.134  35.502 -0.0266 -0.3333 -0.0213
15193TIP3    H267071   1.190  -0.007  35.518  1.5874 -1.2324 -1.9365
15194TIP3   OH267072   1.955   2.161  27.744  0.1101  0.1061 -0.0561
15194TIP3    H167073   1.861   2.148  27.750  0.2885 -1.6454 -0.5725
15194TIP3    H267074   1.981   2.119  27.662  1.5232 -0.6342  0.7263
15195TIP3   OH267075   1.325   1.430  92.509 -0.3533  0.7633  0.1819
15195TIP3    H167076   1.279   1.513  92.518 -0.2372  0.6548  2.2342
15195TIP3    H267077   1.350   1.406  92.598 -0.3149 -1.4457 -0.3526
15196TIP3   OH267078   1.156   0.575  57.601  0.1937  0.2364 -0.0940
15196TIP3    H167079   1.158   0.548  57.509 -4.0671 -0.2817 -0.2322
15196TIP3    H267080   1.152   0.670  57.598  0.9839  0.2661 -0.3759
15197TIP3   OH267081   1.895   1.317  77.838  0.4674 -0.6028 -0.5400
15197TIP3    H167082   1.892   1.261  77.761  1.2567 -0.9893 -0.3037
15197TIP3    H267083   1.988   1.329  77.855  0.3018 -0.3659  0.2438
15198TIP3   OH267084   2.062   1.478  87.293  0.2091 -0.6559  0.2731
15198TIP3    H167085   1.992   1.435  87.243  0.6386 -2.0263  0.7973
15198TIP3    H267086   2.137   1.419  87.283  1.6897  1.3475 -1.2670
15199TIP3   OH267087   0.008   1.625  30.030  0.4658 -0.2702  0.1593
15199TIP3    H167088   0.063   1.658  30.101  0.8369 -2.1113  0.8076
15199TIP3    H267089   0.065   1.564  29.982 -0.8395 -2.0009  0.6696
15200TIP3   OH267090   0.001   0.452  14.000  0.2446  0.6720 -0.4622
15200TIP3    H167091   0.058   0.516  14.042  0.7025  0.2059 -0.3628
15200TIP3    H267092   0.060   0.396  13.950 -0.2665  1.1364 -1.6486
15201TIP3   OH267093   0.096   2.216  92.291  0.3961  0.3820 -0.3782
15201TIP3    H167094   0.192   2.225  92.286  0.4815  0.2255  0.6270
15201TIP3    H267095   0.069   2.193  92.203  1.2549  0.7641 -0.7524
15202TIP3   OH267096   0.898   0.620 111.106  0.0148  0.1531  0.4283
15202TIP3    H167097   0.909   0.574 111.023 -1.5691  1.4013 -0.5428
15202TIP3    H267098   0.906   0.552 111.173 -1.5055 -1.4050 -0.8902
15203TIP3   OH267099   0.074   0.656   9.018  0.3270  0.1249 -0.3965
15203TIP3    H167100   0.037   0.701   8.942 -0.0928  1.4475  0.5551
15203TIP3    H267101   0.116   0.578   8.982 -1.3318 -0.1784 -1.7914
15204TIP3   OH267102   1.620   1.037  16.452 -0.0485  0.0254 -0.4293
15204TIP3    H167103   1.673   0.991  16.387  0.0647  0.6868 -0.8127
15204TIP3    H267104   1.560   0.970  16.485  0.1999 -0.4313 -0.8839
15205TIP3   OH267105   2.359   1.065 109.237 -0.0147  0.3029  0.4284
15205TIP3    H167106   2.270   1.031 109.243  0.6714 -1.5543  0.6219
15205TIP3    H267107   2.407   0.998 109.190  1.7324  0.3402  2.0657
15206TIP3   OH267108   0.168   2.581  81.499 -0.4660 -0.1650  0.0747
15206TIP3    H167109   0.090   2.528  81.483 -1.7749  1.2245  1.4238
15206TIP3    H267110   0.211   2.538  81.573 -0.0799 -0.7962 -0.5132
15207TIP3   OH267111   1.826   1.935  82.218  0.1052 -0.0479  0.2430
15207TIP3    H167112   1.903   1.991  82.211 -0.2575  0.9386  2.9944
15207TIP3    H267113   1.833   1.896  82.306 -1.7369 -1.1716 -0.0618
15208TIP3   OH267114   1.712   2.419 104.233 -0.1177  0.6284 -0.0251
15208TIP3    H167115   1.742   2.354 104.171 -1.7730 -1.1904  0.9772
15208TIP3    H267116   1.776   2.417 104.304 -1.3954 -1.7994  1.1759
15209TIP3   OH267117   0.425   1.553 100.832 -0.0142  0.1626  0.1510
15209TIP3    H167118   0.499   1.614 100.845 -0.1613  0.2737  0.4738
15209TIP3    H267119   0.352   1.610 100.809  0.0207  0.0444 -0.2571
15210TIP3   OH267120   1.486   0.308  36.612 -0.0864 -0.1361 -0.1886
15210TIP3    H167121   1.405   0.286  36.567  1.0338 -1.6413 -1.5692
15210TIP3    H267122   1.486   0.404  36.614 -1.5093 -0.0920 -0.8622
15211TIP3   OH267123   2.150   2.184   3.242  0.3878  0.0312  0.2514
15211TIP3    H167124   2.141   2.170   3.148 -0.1839 -0.2018  0.3364
15211TIP3    H267125   2.072   2.235   3.266  0.6854  0.3482  0.5448
15212TIP3   OH267126   1.598   2.334  87.519  0.1140 -0.3539  0.1043
15212TIP3    H167127   1.566   2.315  87.431  2.9380  1.7154 -1.5110
15212TIP3    H267128   1.655   2.260  87.540 -1.1495 -1.2290  0.5968
15213TIP3   OH267129   2.284   0.648  62.708 -0.2688  0.5323 -0.2265
15213TIP3    H167130   2.255   0.622  62.795 -1.2904  1.4612 -0.2632
15213TIP3    H267131   2.205   0.643  62.654  0.2734  0.3410 -1.0063
15214TIP3   OH267132   2.142   2.455   0.232 -0.0461  0.0149  0.3157
15214TIP3    H167133   2.118   2.520   0.166  2.7353 -0.5537 -1.4522
15214TIP3    H267134   2.189   2.506   0.298 -0.2162  0.1941  0.2997
15215TIP3   OH267135   1.498   1.071  13.180 -0.2122  0.0373  0.1942
15215TIP3    H167136   1.497   1.136  13.250 -0.0995  1.1305 -0.8091
15215TIP3    H267137   1.406   1.043  13.172 -0.2227 -0.1208  0.7802
15216TIP3   OH267138   1.400   1.755   9.811 -0.0497  0.2840  0.4107
15216TIP3    H167139   1.447   1.708   9.880  1.2206  2.4557  1.1410
15216TIP3    H267140   1.319   1.783   9.853 -1.2616 -1.9227 -0.3071
15217TIP3   OH267141   0.265   1.953   1.226 -0.1382 -1.2816 -0.1403
15217TIP3    H167142   0.280   1.964   1.320 -1.0795 -1.1773  0.0022
15217TIP3    H267143   0.180   1.910   1.220 -2.0512  2.3368 -1.0340
15218TIP3   OH267144   0.669   1.079 101.505  0.2042  0.1960 -0.5052
15218TIP3    H167145   0.738   1.134 101.544  0.5040 -1.2291  1.1004
15218TIP3    H267146   0.587   1.116 101.539  0.3502  0.2490 -0.2043
15219TIP3   OH267147   2.648   1.143  29.527  0.1000 -0.4239  0.1073
15219TIP3    H167148   2.698   1.212  29.482 -1.1297  0.7557  0.4697
15219TIP3    H267149   2.639   1.073  29.462 -0.7237  0.7992 -1.1592
15220TIP3   OH267150   1.798   0.928  94.254  0.9531 -0.7129 -0.5480
15220TIP3    H167151   1.860   0.984  94.301  0.4418 -0.4927 -0.1191
15220TIP3    H267152   1.830   0.839  94.269  1.0408 -0.6153 -0.1307
15221TIP3   OH267153   0.984   2.680  69.055  0.2947  0.7779 -0.3072
15221TIP3    H167154   1.030   2.757  69.089  2.1619 -0.9412  1.2933
15221TIP3    H267155   1.036   2.605  69.084 -2.3494 -1.2358 -0.2991
15222TIP3   OH267156   0.766   1.086 107.648  0.0902  0.4722  0.6065
15222TIP3    H167157   0.675   1.114 107.661 -0.3263 -0.2277 -0.6768
15222TIP3    H267158   0.786   1.035 107.727 -0.2979  1.4212  1.3359
15223TIP3   OH267159   0.436   1.854   5.650 -0.3405  0.0700  0.6593
15223TIP3    H167160   0.471   1.765   5.647 -0.7235 -0.0653 -2.2403
15223TIP3    H267161   0.483   1.896   5.723 -0.0231 -2.4021  1.9748
15224TIP3   OH267162   2.404   2.468  89.197 -0.2178  0.0620  0.3914
15224TIP3    H167163   2.332   2.447  89.257 -0.4363 -1.4502 -0.3513
15224TIP3    H267164   2.366   2.462  89.110  1.0571 -2.1362 -0.0903
15225TIP3   OH267165   1.265   0.970  78.281  0.4752 -0.4688  0.0145
15225TIP3    H167166   1.225   0.887  78.254  0.3015 -0.3931  0.0433
15225TIP3    H267167   1.263   1.025  78.203 -0.6727  0.0026  0.3649
15226TIP3   OH267168   2.020   0.674   5.713  0.2036 -0.4884  0.2396
15226TIP3    H167169   1.993   0.648   5.625 -0.1266  1.1206 -0.1664
15226TIP3    H267170   2.116   0.669   5.712  0.3159  1.1905 -0.8010
15227TIP3   OH267171   1.355   0.929  82.829 -1.2336  0.1361  0.2847
15227TIP3    H167172   1.336   0.837  82.848  0.4616 -0.0821  1.1185
15227TIP3    H267173   1.318   0.977  82.903 -1.8890  0.1153 -0.0222
15228TIP3   OH267174   1.924   0.166 111.619 -0.4173 -0.5986 -0.1408
15228TIP3    H167175   1.887   0.113 111.548 -0.1456 -1.5965  0.4401
15228TIP3    H267176   1.858   0.163 111.688 -0.8141  0.6166 -0.4350
15229TIP3   OH267177   1.674   1.859  95.651  0.0879 -0.2311 -0.0604
15229TIP3    H167178   1.581   1.882  95.651 -0.0287 -0.6937 -0.0475
15229TIP3    H267179   1.715   1.924  95.593 -0.3837 -0.5638 -0.7930
15230TIP3   OH267180   0.659   0.144  13.915  0.1016  0.0096 -0.3177
15230TIP3    H167181   0.611   0.072  13.874 -0.2670  0.1769 -0.1827
15230TIP3    H267182   0.617   0.154  14.001  0.6170 -0.0854 -0.0524
15231TIP3   OH267183   1.055   1.009  10.038  0.3917  0.2104 -0.3831
15231TIP3    H167184   1.129   0.996   9.979  0.3994 -1.6931 -0.0230
15231TIP3    H267185   0.986   1.046   9.982  1.1313  0.6412 -1.0357
15232TIP3   OH267186   1.219   0.171  24.658  0.1533 -0.5969 -0.0266
15232TIP3    H167187   1.126   0.148  24.664  0.5518 -1.9514  1.5787
15232TIP3    H267188   1.221   0.265  24.675 -0.9603 -0.4531 -0.5677
15233TIP3   OH267189   1.868   2.381  16.211 -0.2880  0.0553 -0.1615
15233TIP3    H167190   1.798   2.346  16.267  1.2479 -0.9196  1.2213
15233TIP3    H267191   1.927   2.307  16.197  0.6711  0.9541 -0.9720
15234TIP3   OH267192   0.849   1.906  78.857  1.1289 -0.1679 -0.2773
15234TIP3    H167193   0.758   1.889  78.879  1.0597  0.3698 -0.1390
15234TIP3    H267194   0.854   2.002  78.848  1.3112 -0.3002 -1.8493
15235TIP3   OH267195   1.469   1.654  93.388  0.1659  0.0597 -0.2132
15235TIP3    H167196   1.473   1.749  93.375 -0.5916  0.2134  0.5928
15235TIP3    H267197   1.379   1.630  93.364  0.1979 -0.3731  0.0882
15236TIP3   OH267198   0.901   1.480 109.297  0.1485  0.0230  0.4751
15236TIP3    H167199   0.891   1.426 109.219 -2.7269  0.0495  0.7149
15236TIP3    H267200   0.915   1.568 109.263  1.7490 -0.3564  0.0649
15237TIP3   OH267201   0.376   0.645   9.270  0.2646 -0.1319  0.2951
15237TIP3    H167202   0.423   0.694   9.338  0.6955 -1.3605  0.9225
15237TIP3    H267203   0.443   0.587   9.233  0.0177  0.4750 -1.1632
15238TIP3   OH267204   0.125   2.517 111.291 -0.3228  0.3369 -0.6521
15238TIP3    H167205   0.086   2.488 111.374  2.7446  0.9892  1.1718
15238TIP3    H267206   0.114   2.442 111.232 -1.7526 -0.5175  0.6142
15239TIP3   OH267207   0.694   0.728  63.606  0.3594  0.2468  0.6761
15239TIP3    H167208   0.603   0.703  63.588  1.0593 -1.3360 -0.9757
15239TIP3    H267209   0.694   0.752  63.699 -1.5868 -0.4506  0.9088
15240TIP3   OH267210   2.429   0.824  28.061  0.0701 -0.2457  0.0994
15240TIP3    H167211   2.387   0.750  28.017 -0.0588  0.0222 -0.2299
15240TIP3    H267212   2.399   0.818  28.152  0.1868 -0.6890  0.1096
15241TIP3   OH267213   2.576   0.047   8.980 -0.6889  0.2641 -0.0588
15241TIP3    H167214   2.590   0.139   8.960 -0.3172  0.2825  0.2595
15241TIP3    H267215   2.608   0.037   9.070 -1.0256 -0.1048  0.0248
15242TIP3   OH267216   0.505   0.664  83.677 -0.1096  0.5043 -0.4766
15242TIP3    H167217   0.533   0.598  83.740 -0.9182  0.1172 -0.5103
15242TIP3    H267218   0.537   0.747  83.713 -0.0385  0.2193  0.1282
15243TIP3   OH267219   2.146   1.408   0.986  0.0321 -0.0431 -0.1008
15243TIP3    H167220   2.241   1.423   0.981  0.1192 -0.0680  1.1611
15243TIP3    H267221   2.137   1.326   1.034 -0.6290 -0.4271 -0.8559
15244TIP3   OH267222   2.142   2.279  24.777 -0.3681 -0.0149 -0.1559
15244TIP3    H167223   2.105   2.264  24.690 -0.8234 -2.1108  0.3290
15244TIP3    H267224   2.066   2.284  24.835 -0.0866  1.7462  0.1073
15245TIP3   OH267225   1.093   1.184   9.361  0.4531 -0.6789  0.3447
15245TIP3    H167226   1.104   1.279   9.353  0.9027 -0.5429  2.1068
15245TIP3    H267227   1.011   1.165   9.316  0.4690  0.5021 -0.2266
15246TIP3   OH267228   0.569   1.597  90.360  0.2840 -0.3238  0.3824
15246TIP3    H167229   0.586   1.615  90.268 -1.5069 -0.5520 -0.0236
15246TIP3    H267230   0.630   1.526  90.382  0.1504 -0.8361 -0.8501
15247TIP3   OH267231   0.599   2.585  79.836  0.1326 -0.4671  0.3695
15247TIP3    H167232   0.690   2.616  79.838  0.2896 -0.7198 -1.2415
15247TIP3    H267233   0.551   2.655  79.792  0.0278 -1.3855 -1.0330
15248TIP3   OH267234   1.390   0.411  15.682  0.4557  0.2145 -0.2886
15248TIP3    H167235   1.328   0.470  15.724  0.8092  0.3363  0.0716
15248TIP3    H267236   1.337   0.339  15.648  0.1439  0.2190  0.1838
15249TIP3   OH267237   0.610   2.045  76.065  0.4882 -0.6420 -0.1162
15249TIP3    H167238   0.663   2.014  76.138 -0.5002  1.0349  1.3944
15249TIP3    H267239   0.623   2.140  76.065 -0.4608 -0.4903 -1.3654
15250TIP3   OH267240   1.403   2.210  10.562 -0.1005 -0.3520  0.2033
15250TIP3    H167241   1.418   2.299  10.532 -0.7803 -0.0882  0.6257
15250TIP3    H267242   1.467   2.157  10.514 -0.0094  0.2940 -0.3982
15251TIP3   OH267243   1.673   1.035 102.372 -0.5770 -0.2497  0.6664
15251TIP3    H167244   1.702   1.043 102.463  0.5626 -1.1520  0.4076
15251TIP3    H267245   1.579   1.021 102.378 -0.5695  0.0695  1.6888
15252TIP3   OH267246   1.128   0.891  75.249 -0.2523 -0.5623  0.0694
15252TIP3    H167247   1.072   0.828  75.205 -0.8191  0.3003 -0.4653
15252TIP3    H267248   1.104   0.976  75.211 -0.1349  0.0956  1.3971
15253TIP3   OH267249   1.432   1.340  86.470 -0.6575  0.0995  0.4298
15253TIP3    H167250   1.425   1.350  86.564  0.2105 -0.7646  0.6003
15253TIP3    H267251   1.380   1.412  86.434 -2.1502 -0.3793  1.5516
15254TIP3   OH267252   1.089   1.582  26.325  0.6526  0.0506 -0.0002
15254TIP3    H167253   1.023   1.517  26.347  0.2053 -0.4797 -2.5989
15254TIP3    H267254   1.129   1.605  26.409  0.5687 -3.2587  1.0961
15255TIP3   OH267255   2.552   0.717  42.223  0.0530  0.4382  0.0529
15255TIP3    H167256   2.625   0.673  42.178 -0.7415 -0.6290 -0.2545
15255TIP3    H267257   2.541   0.668  42.304 -2.1321 -1.3294 -1.1861
15256TIP3   OH267258   2.647   2.189  31.230  0.5464 -0.1639  0.3898
15256TIP3    H167259   2.703   2.266  31.238 -0.1350  0.1309  3.3657
15256TIP3    H267260   2.701   2.116  31.261  0.1085 -0.3066  0.8319
15257TIP3   OH267261   0.927   2.490  75.688 -0.8129 -0.1972  0.2760
15257TIP3    H167262   0.892   2.491  75.599 -0.1803  1.4224  0.0144
15257TIP3    H267263   0.915   2.579  75.720  0.8088 -0.2228  1.0664
15258TIP3   OH267264   2.398   0.364  17.480  0.0733 -0.4614 -0.2543
15258TIP3    H167265   2.460   0.295  17.457  0.3254 -0.8594  1.4428
15258TIP3    H267266   2.452   0.443  17.485 -0.1503 -0.1698 -1.8283
15259TIP3   OH267267   2.178   1.484  93.393  0.1118 -0.1772 -0.5511
15259TIP3    H167268   2.100   1.505  93.342  0.1829 -0.0409 -0.6034
15259TIP3    H267269   2.148   1.484  93.484 -0.3996 -2.0741 -0.6760
15260TIP3   OH267270   0.470   1.224  19.630  0.2473 -0.4496  0.4327
15260TIP3    H167271   0.448   1.292  19.566  2.0129 -0.7324 -0.5401
15260TIP3    H267272   0.471   1.270  19.714  0.3988  0.4951 -0.0707
15261TIP3   OH267273   0.588   1.589  91.301 -0.5225 -0.2273 -0.0633
15261TIP3    H167274   0.496   1.599  91.279 -0.6351 -0.0862  0.4416
15261TIP3    H267275   0.597   1.634  91.385  0.6312  2.4807 -1.5119
15262TIP3   OH267276   0.422   2.111  84.629 -0.3856 -0.9335 -0.3209
15262TIP3    H167277   0.480   2.096  84.703  0.7388  2.4990 -0.3450
15262TIP3    H267278   0.481   2.119  84.554 -1.0037  0.6614 -0.6798
15263TIP3   OH267279   2.573   2.609  93.755  0.0273  0.1384  0.2711
15263TIP3    H167280   2.584   2.523  93.715  1.9390 -0.1376  1.2621
15263TIP3    H267281   2.633   2.608  93.831  0.2155  2.3735  0.2153
15264TIP3   OH267282   2.466   1.419  14.040  0.1082 -0.3844 -0.1929
15264TIP3    H167283   2.438   1.343  13.989  1.1822 -1.6936  1.0739
15264TIP3    H267284   2.407   1.421  14.115  0.5500 -0.4251  0.1603
15265TIP3   OH267285   0.694   0.517   2.756 -0.0649 -0.0373 -0.3034
15265TIP3    H167286   0.772   0.572   2.760  1.2805 -1.9048  2.2221
15265TIP3    H267287   0.641   0.544   2.832 -0.9967 -0.0424 -0.9283
15266TIP3   OH267288   0.977   1.625  29.960 -0.2010  0.2773  0.4463
15266TIP3    H167289   0.987   1.623  29.865 -0.5908  0.5725  0.3979
15266TIP3    H267290   0.962   1.534  29.984  1.1638  0.0117  0.3720
15267TIP3   OH267291   1.946   0.949  19.279 -0.2558 -0.2800  0.1248
15267TIP3    H167292   1.852   0.945  19.297 -0.4002  0.4496 -0.4311
15267TIP3    H267293   1.953   0.932  19.185  0.1517 -0.1831  0.1357
15268TIP3   OH267294   2.274   2.201  99.529  0.4748  0.0038 -0.3240
15268TIP3    H167295   2.263   2.113  99.565  0.6639 -0.3889 -1.1898
15268TIP3    H267296   2.219   2.257  99.584  0.6910 -0.5785  0.5039
15269TIP3   OH267297   0.991   0.123  10.125 -0.0483 -0.0570 -0.0077
15269TIP3    H167298   0.932   0.186  10.166 -2.3662 -1.5154 -0.8947
15269TIP3    H267299   0.995   0.149  10.033 -0.1808 -0.5737 -0.1634
15270TIP3   OH267300   1.935   2.144  89.367  0.6326 -0.4858 -0.2785
15270TIP3    H167301   1.901   2.065  89.409 -0.0898 -0.6552 -1.1562
15270TIP3    H267302   1.981   2.191  89.437  0.0893 -1.1187  0.5146
15271TIP3   OH267303   1.362   2.593 101.671 -0.0167  0.3597  0.3347
15271TIP3    H167304   1.384   2.607 101.763  0.9083  0.8175  0.0543
15271TIP3    H267305   1.444   2.609 101.624 -0.9585  2.2060 -0.7627
15272TIP3   OH267306   2.429   0.810  28.645  0.0173  0.0664 -0.0133
15272TIP3    H167307   2.497   0.866  28.682  0.6566 -0.1034 -0.9007
15272TIP3    H267308   2.365   0.872  28.608  1.0863  0.2505 -1.6511
15273TIP3   OH267309   2.282   1.060  21.892  0.2159  0.1170 -0.1278
15273TIP3    H167310   2.211   1.005  21.859  1.0433 -1.4352  0.5629
15273TIP3    H267311   2.237   1.128  21.942 -0.9334  1.2715 -2.5500
15274TIP3   OH267312   2.222   0.396 101.274 -0.2112 -0.7326 -0.7366
15274TIP3    H167313   2.139   0.406 101.227 -0.1385  0.4073 -0.6465
15274TIP3    H267314   2.214   0.454 101.350 -0.0524 -2.0234  0.3038
15275TIP3   OH267315   0.175   1.892  24.462 -0.4540  0.2757 -0.1635
15275TIP3    H167316   0.155   1.986  24.453 -0.1907  0.3053 -0.4663
15275TIP3    H267317   0.232   1.887  24.539 -0.1969  0.4066 -0.3436
15276TIP3   OH267318   1.854   0.349  95.814 -0.1624 -0.3257  0.2424
15276TIP3    H167319   1.768   0.355  95.774  0.3043 -1.0214 -0.9069
15276TIP3    H267320   1.876   0.439  95.838 -0.4428  0.1200 -1.1059
15277TIP3   OH267321   1.454   0.779 104.497 -0.6549  0.2834 -0.2725
15277TIP3    H167322   1.516   0.738 104.557 -0.1393  1.3424 -0.0490
15277TIP3    H267323   1.368   0.758 104.533 -0.3544  1.1610  1.0577
15278TIP3   OH267324   1.781   2.285  99.132 -0.1096 -0.5131 -0.1940
15278TIP3    H167325   1.846   2.354  99.143 -2.0641  1.3014  0.8419
15278TIP3    H267326   1.774   2.274  99.037  1.2530 -0.3018 -0.3333
15279TIP3   OH267327   0.156   0.848  19.367  0.1368  0.0516 -0.1502
15279TIP3    H167328   0.130   0.930  19.411 -2.0001  0.4954 -2.0527
15279TIP3    H267329   0.165   0.785  19.438  0.9824  1.6989  1.2952
15280TIP3   OH267330   0.268   2.590  98.265 -0.5288 -0.1601 -0.4028
15280TIP3    H167331   0.264   2.685  98.272 -1.4470 -0.2890  2.0800
15280TIP3    H267332   0.356   2.568  98.296 -1.4024 -0.1974  2.3543
15281TIP3   OH267333   1.854   0.606   1.841  0.5628  0.3691 -0.0170
15281TIP3    H167334   1.850   0.686   1.788  1.4485  0.5416  0.1613
15281TIP3    H267335   1.942   0.572   1.826  1.0450  0.7276  1.7682
15282TIP3   OH267336   2.184   1.822  94.715  0.5797  0.4494  0.4402
15282TIP3    H167337   2.258   1.778  94.755  1.2385  1.5765  0.5020
15282TIP3    H267338   2.179   1.786  94.626  1.5836  0.8034  0.2323
15283TIP3   OH267339   0.766   0.208  86.282 -0.0356  0.8519  0.2838
15283TIP3    H167340   0.749   0.277  86.217 -0.0029  1.1842  0.6209
15283TIP3    H267341   0.682   0.197  86.327  0.1966  1.3014  0.8323
15284TIP3   OH267342   1.501   1.818   1.552 -0.3244  0.3981  0.7576
15284TIP3    H167343   1.585   1.845   1.591  0.2775 -0.1700 -0.1065
15284TIP3    H267344   1.495   1.724   1.571 -0.8963  0.4845  1.0297
15285TIP3   OH267345   2.056   0.025 108.880 -0.2425 -0.0411  0.4431
15285TIP3    H167346   2.066   0.071 108.963  0.8681  1.7263 -0.6011
15285TIP3    H267347   2.143  -0.010 108.862 -0.3666 -0.0398 -0.1699
15286TIP3   OH267348   1.843   0.890  83.687  0.1636  0.8054  0.4068
15286TIP3    H167349   1.937   0.874  83.681 -0.1451 -1.1422  0.1460
15286TIP3    H267350   1.819   0.863  83.776 -0.0041  2.3606  0.8718
15287TIP3   OH267351   0.512   2.684  96.138  0.0389  0.1124  0.5565
15287TIP3    H167352   0.425   2.702  96.173  0.4923  0.2480  1.6485
15287TIP3    H267353   0.572   2.713  96.207  0.9292 -0.5697  0.0846
15288TIP3   OH267354   1.431   1.431  36.429  0.4963 -0.4522  0.3190
15288TIP3    H167355   1.379   1.420  36.349  0.3800  0.5811  0.2448
15288TIP3    H267356   1.453   1.524  36.431 -0.3930 -0.2376  2.0370
15289TIP3   OH267357   0.012   1.258  26.168  0.3668 -0.5432 -0.3990
15289TIP3    H167358   0.028   1.344  26.129 -1.5049  0.0221 -0.0196
15289TIP3    H267359   0.033   1.196  26.098 -1.1569  0.3610 -1.7222
15290TIP3   OH267360   1.268   2.312  82.365 -0.0255 -0.0213  0.0034
15290TIP3    H167361   1.266   2.239  82.303 -0.9807  0.3845 -0.4719
15290TIP3    H267362   1.217   2.281  82.440 -0.1417  0.0276 -0.0559
15291TIP3   OH267363   2.132   2.338 100.646  0.6644  0.1470 -0.3758
15291TIP3    H167364   2.129   2.314 100.554  1.5121 -1.0371 -0.1307
15291TIP3    H267365   2.207   2.289 100.681 -1.0650 -1.3909  1.4605
15292TIP3   OH267366   0.268   0.621 107.668  0.0741 -0.6508 -0.2773
15292TIP3    H167367   0.203   0.565 107.709 -0.8251 -0.3099 -1.2042
15292TIP3    H267368   0.230   0.644 107.583  0.9547  0.3720 -0.4214
15293TIP3   OH267369   0.239   1.766  26.113 -0.3430 -0.0816 -0.1289
15293TIP3    H167370   0.170   1.802  26.057  0.0183  1.0339  0.1093
15293TIP3    H267371   0.193   1.731  26.189 -1.0151 -3.1325 -1.7744
15294TIP3   OH267372   0.779   0.690  97.052 -0.7778 -0.1960  0.1222
15294TIP3    H167373   0.716   0.689  97.124 -0.4066 -0.2524  0.4514
15294TIP3    H267374   0.759   0.770  97.003 -0.0539  0.6616  1.1790
15295TIP3   OH267375   1.056   2.296  36.082 -0.1877 -0.1360  0.6367
15295TIP3    H167376   1.107   2.237  36.028 -0.8318 -0.1186  0.0012
15295TIP3    H267377   1.082   2.275  36.172  0.5241 -0.5003  0.3473
15296TIP3   OH267378   0.421   2.100  11.042 -0.0291  0.0608 -0.1898
15296TIP3    H167379   0.418   2.166  10.972  0.3734 -0.3955 -0.6473
15296TIP3    H267380   0.338   2.054  11.035  0.3123 -0.4686 -0.8565
15297TIP3   OH267381   0.211   1.137 106.943  0.1249  0.6150  0.0951
15297TIP3    H167382   0.158   1.115 107.019 -0.8702 -0.2028 -0.8007
15297TIP3    H267383   0.284   1.074 106.945 -0.2688  0.1521  0.0004
15298TIP3   OH267384   2.033   0.030  99.426 -0.2074 -0.3750  0.1168
15298TIP3    H167385   2.061   0.008  99.337 -0.1052  0.9823 -0.2196
15298TIP3    H267386   2.114   0.050  99.472 -0.2915 -0.6662  0.3882
15299TIP3   OH267387   2.393   1.567  81.657  0.4064 -0.6648 -0.1601
15299TIP3    H167388   2.451   1.641  81.675  2.2510 -1.1910 -3.1506
15299TIP3    H267389   2.425   1.497  81.713  1.1402 -0.2642 -0.0595
15300TIP3   OH267390   2.166   0.525  97.822 -0.0060 -0.7213  0.6867
15300TIP3    H167391   2.105   0.537  97.895 -0.4168  0.0650  0.2394
15300TIP3    H267392   2.123   0.568  97.748  0.1479 -1.9791 -0.1583
15301TIP3   OH267393   2.106   1.867  11.816  0.7381  0.2458  0.2989
15301TIP3    H167394   2.098   1.885  11.910 -0.0754  0.5334  0.1828
15301TIP3    H267395   2.160   1.788  11.811 -1.3059 -1.3138  1.1415
15302TIP3   OH267396   1.944   0.682  16.703 -0.2442 -0.6092 -0.7202
15302TIP3    H167397   1.880   0.723  16.645  0.2821 -0.4133 -1.1835
15302TIP3    H267398   1.969   0.752  16.763 -1.1888 -0.9634  0.1031
15303TIP3   OH267399   1.981   1.534   6.896  0.0321 -0.0746  0.0770
15303TIP3    H167400   1.894   1.530   6.855  0.0429 -1.9831  0.1255
15303TIP3    H267401   1.965   1.572   6.983 -0.8114 -0.6060  0.1700
15304TIP3   OH267402   0.746   0.138  11.532  0.0465 -0.0305 -0.5655
15304TIP3    H167403   0.788   0.182  11.458  1.2071 -0.4822 -0.1858
15304TIP3    H267404   0.658   0.118  11.500 -0.1224  1.5092 -1.1491
15305TIP3   OH267405   0.501   2.391 108.030 -0.3995 -0.2454 -0.1918
15305TIP3    H167406   0.568   2.334 107.993  0.2527  0.8347 -0.6991
15305TIP3    H267407   0.541   2.428 108.109 -1.4374 -1.7867  1.1211
15306TIP3   OH267408   0.506   0.268   8.289 -0.2516  0.5149 -0.3100
15306TIP3    H167409   0.555   0.347   8.312 -0.1427  0.3895 -0.1065
15306TIP3    H267410   0.564   0.195   8.313 -1.3218  0.2973  1.9035
15307TIP3   OH267411   1.078   2.202  20.751 -0.0246 -0.0788 -0.4930
15307TIP3    H167412   1.035   2.287  20.764  0.9369  0.3480 -0.0000
15307TIP3    H267413   1.027   2.160  20.681  0.4229  1.5471 -1.8708
15308TIP3   OH267414   0.005   0.345 110.685 -0.0466 -0.4849 -0.4549
15308TIP3    H167415  -0.087   0.320 110.676 -0.5341  0.8587  0.4537
15308TIP3    H267416   0.023   0.398 110.607 -0.7979  1.2767  0.4958
15309TIP3   OH267417   1.619   2.378  83.254  0.3745 -0.1269 -0.6150
15309TIP3    H167418   1.528   2.347  83.258  0.1496  0.5482 -0.4499
15309TIP3    H267419   1.659   2.343  83.333 -0.1058  0.6883  0.0101
15310TIP3   OH267420   0.445   0.411  37.845 -0.1332  0.2324 -0.0966
15310TIP3    H167421   0.412   0.321  37.847  2.5614 -0.8240  0.5391
15310TIP3    H267422   0.461   0.433  37.936  1.0962  0.5958 -0.3875
15311TIP3   OH267423   0.093   1.809  22.021  0.4253 -0.3694  0.1169
15311TIP3    H167424   0.095   1.713  22.025  0.9631 -0.3213  1.7530
15311TIP3    H267425   0.167   1.832  21.965  0.0742 -0.8987 -0.5908
15312TIP3   OH267426   1.984   0.337   0.802 -0.0386  0.0201  0.1819
15312TIP3    H167427   1.943   0.361   0.885 -0.6400  2.9774 -0.8538
15312TIP3    H267428   2.054   0.401   0.791 -0.3149  0.0279 -1.8390
15313TIP3   OH267429   0.116   0.876  98.154 -0.2207  0.1140 -0.2299
15313TIP3    H167430   0.182   0.856  98.221  0.0397 -0.7355 -0.7318
15313TIP3    H267431   0.090   0.966  98.173  0.0408 -0.0210  0.8475
15314TIP3   OH267432   0.323   0.957  81.419 -0.1351  0.0671  0.2558
15314TIP3    H167433   0.293   0.878  81.464 -0.4136  1.1932  2.1671
15314TIP3    H267434   0.406   0.978  81.461 -0.5046  1.2749  0.4228
15315TIP3   OH267435   2.473   1.465  84.400  0.2434 -0.3076 -0.0645
15315TIP3    H167436   2.412   1.483  84.329  1.7144  0.5185 -1.1866
15315TIP3    H267437   2.467   1.541  84.458 -0.0087 -0.3782  0.0024
15316TIP3   OH267438   1.273   2.237   2.265  0.4166 -0.0297 -0.1966
15316TIP3    H167439   1.268   2.168   2.199  0.3709  0.3610 -0.6077
15316TIP3    H267440   1.256   2.318   2.216 -0.7771  0.1550  0.4894
15317TIP3   OH267441   0.633   2.042  79.596 -0.4884  0.1788  0.4607
15317TIP3    H167442   0.715   2.022  79.550 -1.0776  1.8670 -1.4697
15317TIP3    H267443   0.582   1.961  79.588 -0.7699  0.5141 -2.4642
15318TIP3   OH267444   0.922   0.550  94.095 -0.1664  0.0407  0.2080
15318TIP3    H167445   0.987   0.586  94.034 -0.2519  0.2888  0.2618
15318TIP3    H267446   0.969   0.541  94.177  0.0499 -0.6281  0.0148
15319TIP3   OH267447   2.589   1.386  33.276 -0.2291 -0.0893 -0.1381
15319TIP3    H167448   2.635   1.303  33.261  1.1913  0.5406  0.5731
15319TIP3    H267449   2.614   1.441  33.202  1.0802  0.6177  0.7933
15320TIP3   OH267450   1.347   1.872  11.184  0.2114 -0.0994 -0.4346
15320TIP3    H167451   1.347   1.968  11.191  1.1634 -0.0115 -1.3933
15320TIP3    H267452   1.255   1.848  11.198  0.1236  0.8493  0.8347
15321TIP3   OH267453   1.647   0.122 108.688 -0.2540  0.0909 -0.2844
15321TIP3    H167454   1.589   0.051 108.662  1.1188 -0.9387 -0.6168
15321TIP3    H267455   1.593   0.178 108.745 -0.7455 -2.3753  1.8320
15322TIP3   OH267456   0.220   2.632  97.829  0.1009 -0.1533  0.2720
15322TIP3    H167457   0.285   2.575  97.787  0.2026  0.5063 -0.4891
15322TIP3    H267458   0.259   2.656  97.912 -0.3365 -1.9273  1.0363
15323TIP3   OH267459   1.407   1.304  89.400  0.5172 -0.7121  0.2305
15323TIP3    H167460   1.384   1.212  89.395  0.9896 -0.8466  0.4844
15323TIP3    H267461   1.462   1.320  89.323 -0.6050 -0.3287 -0.5234
15324TIP3   OH267462   2.341   1.587  85.430 -0.1939 -0.4606  0.2947
15324TIP3    H167463   2.354   1.533  85.352 -2.0567 -2.2479  1.1169
15324TIP3    H267464   2.267   1.644  85.407 -0.4697 -0.6914  0.6074
15325TIP3   OH267465   1.811   2.235  78.236  0.0716  0.7800 -0.0400
15325TIP3    H167466   1.888   2.287  78.211  0.0546  0.9342  0.2212
15325TIP3    H267467   1.837   2.193  78.318  0.3727 -0.2576 -0.6488
15326TIP3   OH267468   0.201   1.686  27.180 -0.6020  0.4288  0.4786
15326TIP3    H167469   0.162   1.772  27.163 -1.6989 -0.2427 -0.5929
15326TIP3    H267470   0.282   1.705  27.228 -0.7277  2.0686  0.0966
15327TIP3   OH267471   0.590   0.978  30.333 -0.0142 -0.0654 -0.0798
15327TIP3    H167472   0.580   0.943  30.245 -0.4743 -1.4366  0.4779
15327TIP3    H267473   0.586   0.901  30.390 -2.3756  0.9765  1.3343
15328TIP3   OH267474   0.580   2.254  77.953 -0.2408 -0.4456 -0.2082
15328TIP3    H167475   0.646   2.284  78.016 -2.1775  2.3645  0.6817
15328TIP3    H267476   0.603   2.299  77.871 -1.2053  0.8739  0.2142
15329TIP3   OH267477   1.415   2.229 106.040 -0.0133  0.2693 -0.3439
15329TIP3    H167478   1.386   2.242 105.950 -0.9100  0.1437 -0.0813
15329TIP3    H267479   1.401   2.135 106.057  0.6098  0.1896 -0.2275
15330TIP3   OH267480   1.246   2.014  86.913  0.2326 -0.3890 -0.2451
15330TIP3    H167481   1.327   1.991  86.957  0.8129  0.5210 -0.7915
15330TIP3    H267482   1.254   2.108  86.895 -1.0705 -0.2163 -0.0518
15331TIP3   OH267483   2.406   1.623  79.854  0.9156  0.2875  0.2450
15331TIP3    H167484   2.376   1.534  79.876  0.3675  0.2313 -0.6728
15331TIP3    H267485   2.499   1.622  79.875  0.7578 -0.2531  0.9976
15332TIP3   OH267486   2.017   2.525  97.483  0.2286  0.2648 -0.1536
15332TIP3    H167487   2.096   2.488  97.444 -0.4942  0.3472 -1.7392
15332TIP3    H267488   1.950   2.457  97.471 -0.2274  0.6464  0.1708
15333TIP3   OH267489   2.575   0.748   8.809 -0.2071  0.1676 -0.0978
15333TIP3    H167490   2.576   0.813   8.739 -1.5463 -1.5793 -1.8750
15333TIP3    H267491   2.493   0.764   8.855  0.1259  0.5963  0.3514
15334TIP3   OH267492   0.891   1.231  95.068  0.4338 -0.4689 -0.0003
15334TIP3    H167493   0.941   1.230  95.149  1.8270 -2.0158 -0.8081
15334TIP3    H267494   0.876   1.139  95.048 -0.1184 -0.1071 -1.3563
15335TIP3   OH267495   2.650   2.280  81.660  0.0366  0.0058  0.5409
15335TIP3    H167496   2.735   2.322  81.677  0.8887 -2.1525  2.1493
15335TIP3    H267497   2.671   2.212  81.596 -0.1965 -1.2167  1.7122
15336TIP3   OH267498   2.565   1.002   9.383 -0.4092  0.5522  0.3600
15336TIP3    H167499   2.545   1.036   9.297 -0.4142  0.7374  0.4347
15336TIP3    H267500   2.485   0.957   9.411 -0.3639  0.3805  0.2149
15337TIP3   OH267501   0.343   2.521  97.127  0.3745  0.1476  0.2111
15337TIP3    H167502   0.310   2.453  97.068 -0.9589  0.3027  0.7415
15337TIP3    H267503   0.286   2.596  97.111  0.2087  0.3073  1.4462
15338TIP3   OH267504   1.619   1.398  63.748 -0.2958 -0.0812 -0.0881
15338TIP3    H167505   1.530   1.384  63.780 -0.4315  0.4030 -0.2483
15338TIP3    H267506   1.639   1.488  63.771 -0.4153  0.2973 -1.3936
15339TIP3   OH267507   0.180   2.186   3.016 -0.1136  0.1109 -0.1898
15339TIP3    H167508   0.185   2.095   2.986  0.9277 -0.5759  1.8354
15339TIP3    H267509   0.147   2.179   3.106 -0.1998  1.7634 -0.0703
15340TIP3   OH267510   0.100   1.342 103.499 -0.2928  0.3030  0.2223
15340TIP3    H167511   0.087   1.406 103.430  1.3911 -0.4995 -0.9218
15340TIP3    H267512   0.171   1.286 103.467  0.2391 -0.3889  2.4144
15341TIP3   OH267513   0.134   0.420 109.553 -0.1810  0.3512 -0.1280
15341TIP3    H167514   0.090   0.417 109.637 -2.0202 -0.8168 -1.0763
15341TIP3    H267515   0.156   0.513 109.540  1.5751  0.3656  2.2714
15342TIP3   OH267516   1.097   0.944  97.549  0.0576  0.0119  0.3744
15342TIP3    H167517   1.026   0.936  97.486 -0.1626 -0.3721  0.6682
15342TIP3    H267518   1.125   0.854  97.565 -1.0205 -0.0538  2.0985
15343TIP3   OH267519   0.597   1.372  12.321 -0.3738 -0.1894 -0.1683
15343TIP3    H167520   0.687   1.403  12.306  0.3655 -1.6628  0.9881
15343TIP3    H267521   0.579   1.317  12.245 -1.5742  2.6055 -2.0665
15344TIP3   OH267522   0.980   1.735  94.673 -0.1963  0.1961  0.0707
15344TIP3    H167523   1.069   1.769  94.662  0.8264 -1.8308  1.4582
15344TIP3    H267524   0.939   1.746  94.587  1.2146  1.6066 -0.4636
15345TIP3   OH267525   0.859   0.392  16.711 -0.1589 -0.4570 -0.1715
15345TIP3    H167526   0.829   0.452  16.780  2.8107  0.7248  0.2505
15345TIP3    H267527   0.833   0.435  16.630 -0.8981 -0.2511  0.1585
15346TIP3   OH267528   0.818   1.519   9.725 -0.4486  0.1635 -0.3229
15346TIP3    H167529   0.869   1.493   9.649  2.5235  0.5850  1.3966
15346TIP3    H267530   0.763   1.443   9.743  0.6611 -0.9369 -1.3596
15347TIP3   OH267531   2.221   2.339  96.559  0.5979  0.0337  0.1147
15347TIP3    H167532   2.227   2.244  96.552  0.8331 -0.0601  1.3476
15347TIP3    H267533   2.293   2.372  96.506  1.0004 -0.5117  0.3193
15348TIP3   OH267534   0.357   1.785  97.247  0.5470 -0.7391 -0.3877
15348TIP3    H167535   0.401   1.704  97.271 -0.3351 -0.9957  0.4122
15348TIP3    H267536   0.280   1.756  97.197 -0.6040 -0.5068  1.1881
15349TIP3   OH267537   2.593   2.503  77.356 -0.1500 -0.4878  0.2016
15349TIP3    H167538   2.514   2.514  77.408  0.0455  0.5507  0.3003
15349TIP3    H267539   2.617   2.411  77.368 -1.3542 -0.8286  0.1288
15350TIP3   OH267540   0.747   1.640   6.388  0.2601 -0.2524  0.2864
15350TIP3    H167541   0.799   1.682   6.319 -0.8814 -0.2360 -0.5912
15350TIP3    H267542   0.812   1.606   6.449  1.3961 -1.7123 -1.6326
15351TIP3   OH267543   0.099   0.338  17.805  0.4150 -0.4635  0.1929
15351TIP3    H167544   0.053   0.264  17.765  0.1261 -0.3163  0.2515
15351TIP3    H267545   0.058   0.347  17.891  0.5092 -0.2878  0.2190
15352TIP3   OH267546   1.163   0.539  95.926 -0.1161  0.0729 -0.3879
15352TIP3    H167547   1.170   0.451  95.963 -2.7951  0.4737  1.3525
15352TIP3    H267548   1.120   0.526  95.841 -0.8539 -0.2894  0.0344
15353TIP3   OH267549   0.664   0.467  16.481 -0.3698 -0.4635 -0.0237
15353TIP3    H167550   0.674   0.559  16.505  1.1559 -0.7115  0.4109
15353TIP3    H267551   0.726   0.454  16.409 -0.8260 -1.0763 -0.3219
15354TIP3   OH267552   2.224   1.763  73.260  0.1942 -0.6516 -0.2413
15354TIP3    H167553   2.294   1.774  73.326 -0.5564  0.9071  0.3579
15354TIP3    H267554   2.210   1.669  73.256  1.3293 -0.8943  0.7039
15355TIP3   OH267555   0.526   2.207  86.543  0.2771 -0.5964 -0.5376
15355TIP3    H167556   0.517   2.297  86.575 -1.3256  0.1399 -2.7674
15355TIP3    H267557   0.556   2.217  86.452 -1.2121 -2.2183 -1.2677
15356TIP3   OH267558   0.706   1.644 103.759 -0.0863  0.1770 -0.0586
15356TIP3    H167559   0.690   1.628 103.666  1.4590 -1.9654 -0.0393
15356TIP3    H267560   0.799   1.667 103.763  0.8845 -3.3367  1.1952
15357TIP3   OH267561   1.230   0.811  11.006  0.0161 -0.1561  0.5056
15357TIP3    H167562   1.258   0.740  11.064 -0.0713  0.2677  1.0688
15357TIP3    H267563   1.289   0.883  11.026 -0.4982  0.2415  0.6156
15358TIP3   OH267564   1.456   1.215  27.790 -0.2316  0.0404 -0.0971
15358TIP3    H167565   1.438   1.132  27.835 -0.7061  1.6682  2.9791
15358TIP3    H267566   1.370   1.255  27.779  0.1930  1.4368  1.3277
15359TIP3   OH267567   2.462   0.170  25.299 -0.7486 -0.3998 -0.2273
15359TIP3    H167568   2.372   0.139  25.292 -0.9785  0.4568 -1.3839
15359TIP3    H267569   2.456   0.255  25.341 -0.4808 -0.3664 -0.2513
15360TIP3   OH267570   0.702   0.478  14.585 -0.0411 -0.2262 -0.5563
15360TIP3    H167571   0.613   0.510  14.573 -0.1115  0.4471  1.4332
15360TIP3    H267572   0.755   0.529  14.523 -0.5766  1.8276  0.5880
15361TIP3   OH267573   1.460   1.626  34.302  0.5786  0.3001 -0.3540
15361TIP3    H167574   1.526   1.695  34.299  0.5170  0.3435 -2.5830
15361TIP3    H267575   1.510   1.545  34.302  0.6867  0.1917  3.2874
15362TIP3   OH267576   1.833   0.558 104.420 -0.0842  0.2776 -0.3637
15362TIP3    H167577   1.903   0.513 104.373 -1.3159 -0.4435 -1.5785
15362TIP3    H267578   1.762   0.494 104.424 -0.5076  0.7992  1.3252
15363TIP3   OH267579   2.395   0.442  86.231 -0.1313  0.5561  0.1622
15363TIP3    H167580   2.448   0.502  86.284 -0.1956 -0.0421  0.9136
15363TIP3    H267581   2.458   0.396  86.176  0.1019  0.0868  0.8150
15364TIP3   OH267582   2.667   1.248  12.028  0.1006 -0.1718 -0.0224
15364TIP3    H167583   2.634   1.292  12.106  1.2705 -0.7868  0.8490
15364TIP3    H267584   2.598   1.186  12.004  0.3155 -0.9964  1.3993
15365TIP3   OH267585   0.882   0.319  14.037 -0.5443  0.2424  0.1646
15365TIP3    H167586   0.881   0.326  13.941 -1.3737 -0.3474  0.1109
15365TIP3    H267587   0.805   0.369  14.065 -0.7805 -0.2663  0.4477
15366TIP3   OH267588   0.550   2.018 109.309 -0.0850  0.2142 -0.1068
15366TIP3    H167589   0.459   2.044 109.295 -0.5587 -0.4607  1.5685
15366TIP3    H267590   0.547   1.922 109.317  1.0718 -0.0472 -2.0615
15367TIP3   OH267591   1.286   0.068 111.418  0.1536  0.1421  0.4600
15367TIP3    H167592   1.331   0.089 111.336 -0.7793  0.3871  0.0025
15367TIP3    H267593   1.356   0.068 111.484  0.5698  2.2349  0.0701
15368TIP3   OH267594   1.868   2.295  90.642  0.1211  0.3273 -0.0247
15368TIP3    H167595   1.815   2.280  90.721 -0.3028  0.9518 -0.1771
15368TIP3    H267596   1.958   2.280  90.671 -0.0032  0.8320  0.6613
15369TIP3   OH267597   1.029   0.975   5.120 -0.0382  0.3172  0.1812
15369TIP3    H167598   1.075   0.918   5.182 -2.8547 -3.0828 -0.5589
15369TIP3    H267599   0.949   1.002   5.167 -0.5865  0.4799 -0.8233
15370TIP3   OH267600   0.215   0.194  12.619  0.5408 -0.1593 -0.6129
15370TIP3    H167601   0.249   0.283  12.614  1.2702 -0.3684  0.3189
15370TIP3    H267602   0.133   0.202  12.667  0.3575  0.0643 -0.9565
15371TIP3   OH267603   1.155   2.241   1.972  0.2806  0.0629  0.4889
15371TIP3    H167604   1.169   2.245   1.878 -1.2225  0.0162  0.2361
15371TIP3    H267605   1.225   2.295   2.010  0.5030  0.6204 -0.6908
15372TIP3   OH267606   0.165   1.301   4.531 -0.2102 -0.2118  0.0263
15372TIP3    H167607   0.254   1.322   4.502 -0.3188 -2.0730 -1.8500
15372TIP3    H267608   0.177   1.264   4.619  0.7959  0.1929  0.0695
15373TIP3   OH267609   1.287   0.197  62.623  0.4035  0.2928 -0.0262
15373TIP3    H167610   1.252   0.201  62.534  1.5464 -1.1297 -0.5618
15373TIP3    H267611   1.346   0.122  62.623 -1.4738 -1.3582  2.6292
15374TIP3   OH267612   2.433   1.785  35.006  0.1795  0.0388  0.2040
15374TIP3    H167613   2.402   1.699  34.979 -1.6262  0.2783  1.3482
15374TIP3    H267614   2.425   1.840  34.928 -1.5580 -0.1287  0.2300
15375TIP3   OH267615   0.675   1.613 111.045 -0.7568 -0.1139 -0.4730
15375TIP3    H167616   0.685   1.694 111.095  2.5536 -0.2530 -0.7171
15375TIP3    H267617   0.699   1.637 110.955 -0.3927 -1.1956 -0.6819
15376TIP3   OH267618   1.513   1.077  82.020  0.0956  0.2803 -0.0388
15376TIP3    H167619   1.421   1.052  82.015  0.1907  0.0474 -0.6512
15376TIP3    H267620   1.558   0.999  82.052 -0.1026  0.8371  1.6867
15377TIP3   OH267621   1.718   1.917  63.749  0.0163  0.2051  0.1164
15377TIP3    H167622   1.752   1.910  63.660 -1.5996  0.5302 -0.5665
15377TIP3    H267623   1.752   1.840  63.794  1.4267  0.3943 -0.5615
15378TIP3   OH267624   0.892   0.616  59.442 -0.3981 -0.1174 -0.5341
15378TIP3    H167625   0.829   0.683  59.471 -0.7924 -1.5495  2.3347
15378TIP3    H267626   0.846   0.569  59.372 -2.0987 -0.3671  0.6756
15379TIP3   OH267627   0.823   2.532   6.768  0.5192 -0.2842 -0.3871
15379TIP3    H167628   0.809   2.579   6.686  0.6326  2.8157  1.2321
15379TIP3    H267629   0.735   2.515   6.801  0.4436 -2.4486 -1.5319
15380TIP3   OH267630   2.278   0.758  98.525 -0.2014  0.2391  0.1887
15380TIP3    H167631   2.206   0.745  98.586 -0.4878  0.2195 -0.1558
15380TIP3    H267632   2.334   0.681  98.537 -0.6445 -0.1317 -0.1049
15381TIP3   OH267633   2.618   0.147  34.180  0.0385  0.1305  0.2639
15381TIP3    H167634   2.710   0.124  34.192  0.5578  1.1723 -1.4082
15381TIP3    H267635   2.571   0.064  34.188  1.1929 -0.5244  0.4086
15382TIP3   OH267636   2.443   1.934  12.812  0.3613  0.1058  0.3309
15382TIP3    H167637   2.380   2.000  12.842 -0.9618 -0.8531 -0.2177
15382TIP3    H267638   2.411   1.852  12.850  0.6695 -0.5647 -0.8145
15383TIP3   OH267639   1.278   1.776  98.642  0.4047 -0.0131 -0.1114
15383TIP3    H167640   1.292   1.809  98.554 -0.5145  1.0690  0.1101
15383TIP3    H267641   1.237   1.850  98.689 -0.9928 -1.2027  0.6477
15384TIP3   OH267642   0.185   0.397  92.402 -0.2882 -0.1137 -0.2819
15384TIP3    H167643   0.139   0.350  92.472 -0.9460  1.9503  0.7757
15384TIP3    H267644   0.123   0.465  92.375  1.7706  2.2979  0.6587
15385TIP3   OH267645   1.006   1.053  25.394 -0.1420 -0.3672 -0.0219
15385TIP3    H167646   1.083   1.006  25.427  1.6223  0.9715 -1.9229
15385TIP3    H267647   1.032   1.145  25.396 -2.0127  0.1995 -0.0213
15386TIP3   OH267648   0.873   1.285  83.795 -0.1178  0.3086  0.0716
15386TIP3    H167649   0.809   1.332  83.849 -0.2848  0.3713 -0.1765
15386TIP3    H267650   0.914   1.354  83.741 -0.9397  0.0599 -0.8892
15387TIP3   OH267651   0.766   1.968  75.657  0.6314  0.0902  0.3618
15387TIP3    H167652   0.751   1.886  75.704 -1.2304  0.2112  0.0881
15387TIP3    H267653   0.801   2.028  75.723 -2.1378  0.3267  1.7567
15388TIP3   OH267654   1.887   0.523  28.198  0.4888 -0.7034 -0.0973
15388TIP3    H167655   1.937   0.594  28.238 -0.1491 -0.2500 -0.0905
15388TIP3    H267656   1.954   0.466  28.159  1.0713 -0.7257  0.8999
15389TIP3   OH267657   1.028   0.114  31.564  0.8536 -0.2625 -0.0292
15389TIP3    H167658   1.025   0.121  31.659  0.4788 -0.2961 -0.0393
15389TIP3    H267659   1.014   0.021  31.545  0.3791 -0.1699 -0.1405
15390TIP3   OH267660   0.284   2.429  77.029 -0.1238  0.4559  0.2184
15390TIP3    H167661   0.302   2.521  77.012 -0.7859  0.2304 -1.9577
15390TIP3    H267662   0.189   2.421  77.025 -0.0556 -0.3965 -0.0261
15391TIP3   OH267663   1.270   1.284  31.728  0.2737  0.1327 -0.1934
15391TIP3    H167664   1.228   1.232  31.796  0.6215 -1.7702 -1.3617
15391TIP3    H267665   1.297   1.365  31.773  0.2448 -0.9171  1.8297
15392TIP3   OH267666   0.933   2.524   6.089 -0.5027  0.1871  0.6465
15392TIP3    H167667   0.873   2.450   6.077  0.1951 -0.0366 -2.1685
15392TIP3    H267668   1.020   2.484   6.090 -0.1509  0.9010 -0.2467
15393TIP3   OH267669   1.471   0.990 107.344  0.2631  0.5667 -0.1633
15393TIP3    H167670   1.426   1.039 107.275  0.1787  1.3734  0.4450
15393TIP3    H267671   1.457   1.043 107.423  0.7030 -0.1283  0.3925
15394TIP3   OH267672   0.257   1.822 105.265  0.0890 -0.1978 -0.2002
15394TIP3    H167673   0.330   1.777 105.307  0.2080  0.4060  0.2548
15394TIP3    H267674   0.181   1.799 105.318  0.0983 -0.1118 -0.1492
15395TIP3   OH267675   1.442   2.555  37.741 -0.1424 -0.0617 -0.0412
15395TIP3    H167676   1.347   2.546  37.742 -0.1928  0.3502  1.5689
15395TIP3    H267677   1.474   2.479  37.791  0.1909  1.1358  1.6709
15396TIP3   OH267678   1.254   0.673  22.049  0.4779  0.0902 -0.1700
15396TIP3    H167679   1.271   0.581  22.070  0.3802  0.2539  0.6350
15396TIP3    H267680   1.168   0.673  22.008 -0.7622  0.1180  2.2455
15397TIP3   OH267681   2.131   1.416  33.660  0.2896 -0.0854 -0.0568
15397TIP3    H167682   2.168   1.372  33.737  1.6814 -0.5109 -0.9303
15397TIP3    H267683   2.169   1.370  33.586 -0.7770  0.5268 -1.0186
15398TIP3   OH267684   1.627   0.800  11.083 -0.4108 -0.1851  0.1107
15398TIP3    H167685   1.593   0.729  11.139  1.5164  0.3190  2.0469
15398TIP3    H267686   1.573   0.876  11.106  0.0933 -0.0866  1.0083
15399TIP3   OH267687   2.394   0.180  31.799 -0.1633 -0.6397  0.3562
15399TIP3    H167688   2.338   0.115  31.841  0.0018 -0.8255  0.2941
15399TIP3    H267689   2.469   0.190  31.859  0.8950 -2.1223 -0.6400
15400TIP3   OH267690   1.612   2.195  25.616 -0.0774 -0.3842  0.2832
15400TIP3    H167691   1.589   2.124  25.676 -2.2688  0.3855  0.4394
15400TIP3    H267692   1.653   2.261  25.672  0.2955 -0.7638  0.4592
15401TIP3   OH267693   1.165   1.340  77.611 -0.2119 -0.4271  0.5516
15401TIP3    H167694   1.212   1.382  77.682  0.2161 -1.1925  0.7290
15401TIP3    H267695   1.114   1.411  77.571  1.1776  0.4594  0.2659
15402TIP3   OH267696   1.660   1.917  15.956  0.2358 -0.3157 -0.3502
15402TIP3    H167697   1.651   1.848  16.021 -1.2731 -0.8290 -1.0697
15402TIP3    H267698   1.642   1.998  16.004 -0.6341 -0.6681 -0.0763
15403TIP3   OH267699   1.311   0.049  28.055 -0.3144  0.3801  0.2716
15403TIP3    H167700   1.360  -0.030  28.032  1.0122  1.0978  0.5239
15403TIP3    H267701   1.325   0.108  27.981 -0.4056  0.7574  0.5515
15404TIP3   OH267702   0.643   0.789 110.072 -0.4579 -0.0281  0.1772
15404TIP3    H167703   0.700   0.809 110.146  0.6171  1.1406 -0.9265
15404TIP3    H267704   0.558   0.824 110.097 -0.7941 -1.8410  1.8702
15405TIP3   OH267705   1.913   1.169  95.455  0.0680  0.1874 -0.3124
15405TIP3    H167706   1.928   1.098  95.518  0.7308  0.6978  0.1170
15405TIP3    H267707   1.861   1.233  95.503 -2.6417 -1.0165 -1.4138
15406TIP3   OH267708   2.506   2.007  93.105  0.2715 -0.0121  0.3089
15406TIP3    H167709   2.439   2.067  93.074  0.4986 -0.6902 -1.6290
15406TIP3    H267710   2.492   2.002  93.199 -1.6318  0.7731  0.1154
15407TIP3   OH267711   2.459   0.437  97.317 -0.5129  0.4985 -0.4421
15407TIP3    H167712   2.519   0.366  97.337 -1.2670  0.2200  0.9362
15407TIP3    H267713   2.499   0.482  97.242  0.8342 -0.3373 -0.2516
15408TIP3   OH267714   0.190   2.099 109.843  0.5141  0.0061  0.1996
15408TIP3    H167715   0.253   2.140 109.902 -1.1287  2.5126  0.3227
15408TIP3    H267716   0.156   2.170 109.789 -1.1331 -1.5176 -0.9095
15409TIP3   OH267717   1.884   2.205  30.674  0.2763 -0.3936 -0.4589
15409TIP3    H167718   1.844   2.149  30.741 -0.5646  0.7696  0.0523
15409TIP3    H267719   1.834   2.186  30.595 -0.9595  0.5968  0.0362
15410TIP3   OH267720   2.537   0.781  39.259 -0.4848 -0.0324  0.1922
15410TIP3    H167721   2.622   0.777  39.304  0.5208  1.5453 -1.4422
15410TIP3    H267722   2.475   0.807  39.327  0.2344 -1.5671  1.5072
15411TIP3   OH267723   1.294   2.230 106.516 -0.7042  0.0177 -0.1029
15411TIP3    H167724   1.366   2.177 106.482 -0.8297  0.1363 -0.5619
15411TIP3    H267725   1.335   2.311 106.546 -0.4466 -0.5057  1.0207
15412TIP3   OH267726   0.182   0.227  97.266 -0.0881  0.5069  0.2153
15412TIP3    H167727   0.269   0.206  97.300 -0.7271 -1.5110  0.7149
15412TIP3    H267728   0.135   0.144  97.266 -2.1143  1.5819  0.1894
15413TIP3   OH267729   0.133   0.758  14.534 -0.0292  0.0145 -0.0206
15413TIP3    H167730   0.202   0.824  14.540  0.6540 -0.7766  2.6811
15413TIP3    H267731   0.053   0.808  14.517  0.6816  1.3695  0.4383
15414TIP3   OH267732   0.830   0.012  69.426 -0.1496  0.4485 -0.1532
15414TIP3    H167733   0.829  -0.056  69.494 -0.2994  0.0900 -0.5071
15414TIP3    H267734   0.917   0.052  69.433  0.0612 -0.0004 -0.1553
15415TIP3   OH267735   0.618   0.909  31.943 -0.3015  0.9241  0.3801
15415TIP3    H167736   0.651   0.828  31.983 -1.0882  0.2419 -0.3146
15415TIP3    H267737   0.697   0.957  31.918  0.1794  0.3823  0.8092
15416TIP3   OH267738   0.699   0.241   2.635 -0.2605 -0.0515  0.1435
15416TIP3    H167739   0.610   0.206   2.623 -0.2174 -0.1430  0.0819
15416TIP3    H267740   0.688   0.320   2.687 -0.2837 -0.5817  0.9635
15417TIP3   OH267741   1.158   1.906  33.667  0.3338  0.6222  0.4681
15417TIP3    H167742   1.225   1.922  33.734 -0.1741 -1.4036  1.5654
15417TIP3    H267743   1.199   1.843  33.608  0.1597  1.0600 -0.1195
15418TIP3   OH267744   1.180   0.148 101.751 -0.3429 -0.2247 -0.3537
15418TIP3    H167745   1.088   0.173 101.742 -1.0929 -2.7237 -0.4020
15418TIP3    H267746   1.214   0.149 101.661 -0.1464  1.1981 -0.2847
15419TIP3   OH267747   0.362   0.994 111.681  0.1936 -0.7730 -0.4409
15419TIP3    H167748   0.375   1.023 111.772  2.3515 -0.5911 -0.7547
15419TIP3    H267749   0.267   0.999 111.668  0.0770  2.5766  0.7064
15420TIP3   OH267750   2.064   2.507  35.099 -0.1281  0.3884 -0.0912
15420TIP3    H167751   2.015   2.530  35.178 -0.2859 -0.0653 -0.0523
15420TIP3    H267752   2.029   2.564  35.031  0.3315  1.1084  0.2674
15421TIP3   OH267753   2.568   0.783  63.637 -0.2126 -0.5280  0.2325
15421TIP3    H167754   2.514   0.846  63.684  3.7664  3.3597  0.2635
15421TIP3    H267755   2.641   0.765  63.696  1.6068 -0.6276 -1.9071
15422TIP3   OH267756   2.581   0.676  69.781 -1.0631  0.1333 -0.2118
15422TIP3    H167757   2.621   0.736  69.844  1.5255 -0.2037 -1.3747
15422TIP3    H267758   2.502   0.721  69.750 -0.2876  2.0135  0.4529
15423TIP3   OH267759   1.603   1.488  37.477 -0.3358  0.3065 -0.1461
15423TIP3    H167760   1.537   1.421  37.497 -0.8719  0.4545 -1.3127
15423TIP3    H267761   1.553   1.568  37.464  0.2111  0.7192  0.2590
15424TIP3   OH267762   1.343   2.418  22.995 -0.2459 -0.3300 -0.1007
15424TIP3    H167763   1.298   2.349  23.043 -1.3078  0.6051  0.2889
15424TIP3    H267764   1.287   2.433  22.918  0.0615  0.0011 -0.2592
15425TIP3   OH267765   1.371   2.541 105.484  0.0202  0.1827  0.9244
15425TIP3    H167766   1.399   2.570 105.397 -2.4209  0.6581  0.2057
15425TIP3    H267767   1.376   2.620 105.538  1.6079 -0.1290  1.2638
15426TIP3   OH267768   1.222   1.606  93.274 -0.1881 -0.3057 -0.2737
15426TIP3    H167769   1.139   1.582  93.314  0.5180 -1.3050  0.6423
15426TIP3    H267770   1.230   1.548  93.199  1.0618 -2.4085  1.3848
15427TIP3   OH267771   1.489   2.595 108.611  0.0285  0.4017  0.0264
15427TIP3    H167772   1.439   2.522 108.647  0.4253 -0.1715 -0.5618
15427TIP3    H267773   1.568   2.555 108.576 -0.2576  0.9530 -1.3095
15428TIP3   OH267774   1.029   0.880  14.185 -0.3677 -0.6085  0.4220
15428TIP3    H167775   1.122   0.903  14.183 -0.6096  0.3068 -0.8886
15428TIP3    H267776   1.002   0.877  14.093 -2.1665  1.4092  0.7989
15429TIP3   OH267777   0.242   1.670  47.503  0.4638 -0.2000 -0.0165
15429TIP3    H167778   0.286   1.691  47.421  0.2712  0.3775  0.0210
15429TIP3    H267779   0.209   1.754  47.534  1.5589 -0.2168  1.2589
15430TIP3   OH267780   2.108   1.268   1.279 -0.7313 -0.2498  0.0740
15430TIP3    H167781   2.150   1.232   1.358 -0.1965  0.1014 -0.0486
15430TIP3    H267782   2.026   1.305   1.311  0.0704  1.0512  0.6896
15431TIP3   OH267783   2.380   0.048  91.623  0.1474 -0.1241  0.0746
15431TIP3    H167784   2.385   0.081  91.534 -3.1591  1.8639  0.4347
15431TIP3    H267785   2.457   0.083  91.667  1.0728  0.0590 -1.6110
15432TIP3   OH267786   0.130   1.815  78.563 -0.4911  0.3432  0.1158
15432TIP3    H167787   0.127   1.721  78.542  2.3129  0.0921  0.4831
15432TIP3    H267788   0.184   1.820  78.642  0.6358  2.3669 -0.7222
15433TIP3   OH267789   2.323   1.566 101.913  0.8450  0.1122 -0.3454
15433TIP3    H167790   2.376   1.525 101.981  1.0224  0.3859 -0.3151
15433TIP3    H267791   2.266   1.626 101.960  2.0400  1.4568 -0.5575
15434TIP3   OH267792   1.297   1.795 104.902 -0.0603  0.2044  0.3506
15434TIP3    H167793   1.226   1.817 104.962 -0.3855  1.1671 -0.3577
15434TIP3    H267794   1.377   1.812 104.953 -0.3077 -1.0334  1.2051
15435TIP3   OH267795   1.891   2.389  24.904 -0.2666  0.0409  0.4302
15435TIP3    H167796   1.831   2.343  24.963 -0.9072  0.3729  0.0510
15435TIP3    H267797   1.834   2.442  24.848  0.4516  1.4727  0.9897
15436TIP3   OH267798   1.244   0.460   2.356  0.2786  0.5498 -0.2556
15436TIP3    H167799   1.254   0.455   2.261 -1.5529  0.7764 -0.5098
15436TIP3    H267800   1.233   0.369   2.384  2.1286  0.3545 -0.0462
15437TIP3   OH267801   2.636   0.216 101.750 -0.4179 -0.4193  0.8556
15437TIP3    H167802   2.718   0.243 101.792 -1.0324  0.5752  1.4666
15437TIP3    H267803   2.646   0.243 101.659 -0.1408 -0.1336  0.9713
15438TIP3   OH267804   1.537   0.588 107.336 -0.4920  0.2425 -0.5497
15438TIP3    H167805   1.449   0.618 107.357  0.1304  2.3021 -0.6885
15438TIP3    H267806   1.577   0.571 107.422 -0.6299  0.5080 -0.4292
15439TIP3   OH267807   1.098   2.048  88.244  0.0015  0.0441  0.3303
15439TIP3    H167808   1.149   2.032  88.324  1.0993 -0.5747 -0.4728
15439TIP3    H267809   1.079   2.141  88.247  0.7745  0.2020  0.8966
15440TIP3   OH267810   1.888   1.439 106.628  0.4043 -0.3290 -0.5412
15440TIP3    H167811   1.918   1.349 106.638  0.9832 -0.1095 -0.2634
15440TIP3    H267812   1.910   1.462 106.538  0.5355 -0.3640 -0.5193
15441TIP3   OH267813   2.302   0.087   4.094  0.8218 -0.2866 -0.2679
15441TIP3    H167814   2.279   0.103   4.003  1.0571 -0.0281 -0.2834
15441TIP3    H267815   2.390   0.048   4.090  0.6614 -0.6642 -0.1750
15442TIP3   OH267816   1.546   0.426  11.011 -0.1228  0.1084  0.1207
15442TIP3    H167817   1.528   0.497  10.949 -0.6937  0.4285  0.6467
15442TIP3    H267818   1.491   0.354  10.982 -1.8218  0.8600  1.3207
15443TIP3   OH267819   1.538   0.612  28.392  0.3902 -0.1672 -0.2618
15443TIP3    H167820   1.619   0.662  28.395  1.0703 -1.2322  2.2230
15443TIP3    H267821   1.469   0.677  28.409  0.9338  0.4306 -0.3242
15444TIP3   OH267822   2.021   1.949  99.288  0.1895  0.2390  0.8570
15444TIP3    H167823   2.065   1.891  99.349 -0.6995  0.2682  1.5478
15444TIP3    H267824   2.015   2.033  99.334  2.6459  1.3394 -0.6053
15445TIP3   OH267825   2.615   0.339  20.430 -0.0500  0.4362 -0.2387
15445TIP3    H167826   2.670   0.400  20.480  0.4242  1.3972 -1.8579
15445TIP3    H267827   2.591   0.271  20.493  1.7314  0.8091  0.9039
15446TIP3   OH267828   0.057   1.403  85.518 -0.0143 -0.0091 -0.3015
15446TIP3    H167829   0.079   1.415  85.610 -4.1051 -1.0984  1.0277
15446TIP3    H267830   0.098   1.319  85.494 -1.4234 -1.2774  1.5345
15447TIP3   OH267831   2.213   1.961  45.732  0.1270 -0.1087 -0.3463
15447TIP3    H167832   2.238   1.951  45.640  0.3531  0.6106 -0.3756
15447TIP3    H267833   2.209   2.056  45.745 -4.3356 -0.0459 -0.7900
15448TIP3   OH267834   1.868   0.467  75.838 -0.0353  0.0289  0.1752
15448TIP3    H167835   1.869   0.483  75.932 -0.5526  0.5697  0.0988
15448TIP3    H267836   1.926   0.392  75.825  1.3454  0.9705  0.7254
15449TIP3   OH267837   2.403   1.353  17.974  0.0330  0.3147 -0.1141
15449TIP3    H167838   2.440   1.267  17.996 -1.5378 -0.4927 -0.5119
15449TIP3    H267839   2.310   1.336  17.961 -0.4916  2.2769  0.8067
15450TIP3   OH267840   0.091   1.636 110.930  0.3236 -0.0838 -0.0243
15450TIP3    H167841   0.065   1.646 110.838  1.2916  0.6013 -0.2365
15450TIP3    H267842   0.014   1.662 110.980 -0.8795 -2.2252 -0.6090
15451TIP3   OH267843   1.515   2.213  79.794 -0.2669 -0.2569  0.1457
15451TIP3    H167844   1.502   2.119  79.779  0.1421 -0.2280 -0.4386
15451TIP3    H267845   1.515   2.251  79.706 -2.3215  0.5668  0.4437
15452TIP3   OH267846   0.876   2.611  88.691 -0.1446 -0.1332 -0.1494
15452TIP3    H167847   0.827   2.586  88.769 -1.1216  1.6330 -0.1516
15452TIP3    H267848   0.810   2.619  88.622  0.4350  0.2875 -0.6688
15453TIP3   OH267849   1.730   0.874  22.324 -0.7154  0.6287 -0.4010
15453TIP3    H167850   1.670   0.857  22.251  0.1687 -1.7561 -0.6459
15453TIP3    H267851   1.814   0.892  22.282 -0.3681 -0.0215  0.0041
15454TIP3   OH267852   2.291   0.761   8.822 -0.4107  0.4105 -0.1034
15454TIP3    H167853   2.307   0.724   8.735  0.0953 -1.1580  0.6288
15454TIP3    H267854   2.230   0.700   8.863 -1.2674  1.5581  0.3898
15455TIP3   OH267855   1.111   2.072  80.924  0.1014 -0.0136 -0.9706
15455TIP3    H167856   1.132   2.063  81.017  0.1810 -1.6151 -1.1093
15455TIP3    H267857   1.177   2.017  80.880 -0.4619  0.0435 -1.8976
15456TIP3   OH267858   1.308   2.393  47.608  0.1722  0.2298  0.1454
15456TIP3    H167859   1.224   2.377  47.566  1.2239 -1.7312 -1.3354
15456TIP3    H267860   1.374   2.360  47.547  1.9641  0.3546  1.8711
15457TIP3   OH267861   1.512   1.813 107.581 -0.4388  0.6702  0.2525
15457TIP3    H167862   1.519   1.840 107.672  0.1830 -0.4110  0.5336
15457TIP3    H267863   1.528   1.719 107.582 -1.8112  0.3922 -0.8041
15458TIP3   OH267864   2.274   0.111  89.594 -0.2084  0.1019 -0.3188
15458TIP3    H167865   2.284   0.016  89.601 -1.4757 -0.2506 -2.5226
15458TIP3    H267866   2.224   0.136  89.672 -0.9053 -1.2312 -0.3203
15459TIP3   OH267867   1.803   1.355 105.890 -0.6135 -0.3231 -0.0166
15459TIP3    H167868   1.833   1.340 105.801 -0.2180 -0.9195  0.2189
15459TIP3    H267869   1.770   1.270 105.919 -1.2306 -0.0095  0.2223
15460TIP3   OH267870   2.553   2.345  74.912  0.8559  0.4119 -0.3260
15460TIP3    H167871   2.485   2.367  74.977  1.8226  0.9774  0.5241
15460TIP3    H267872   2.559   2.250  74.915  0.0646  0.3511 -0.4495
15461TIP3   OH267873   1.269   2.106  84.462  0.4841  0.5244  0.0294
15461TIP3    H167874   1.208   2.166  84.505 -1.4513 -1.3919  0.1344
15461TIP3    H267875   1.266   2.026  84.515  1.9139 -0.1703 -0.8571
15462TIP3   OH267876   0.499   2.502  93.416  0.1911  0.3333  0.1170
15462TIP3    H167877   0.438   2.475  93.347 -0.3202  1.8725 -0.0601
15462TIP3    H267878   0.480   2.443  93.489 -1.5726  0.8035  0.0787
15463TIP3   OH267879   1.655   1.911 110.717 -0.1879 -0.2220 -0.4667
15463TIP3    H167880   1.685   1.896 110.807 -1.3926  0.6905  0.1123
15463TIP3    H267881   1.666   1.826 110.674  3.3261  0.0379 -0.3785
15464TIP3   OH267882   2.368   1.081  79.697 -0.4367  0.0877  0.2084
15464TIP3    H167883   2.423   1.051  79.769 -1.4829  0.5765  1.2688
15464TIP3    H267884   2.279   1.076  79.732 -0.9022  1.2054 -0.7321
15465TIP3   OH267885   0.009   0.032  25.274 -0.0564  0.4483  0.2549
15465TIP3    H167886  -0.070   0.086  25.282  0.3050  1.1485 -0.7363
15465TIP3    H267887  -0.019  -0.044  25.223 -0.2045  0.4511  0.3316
15466TIP3   OH267888   2.484   2.624 110.986 -0.0052  0.7160 -0.2459
15466TIP3    H167889   2.526   2.613 110.900  0.5571 -1.3034  0.2369
15466TIP3    H267890   2.550   2.668 111.039  1.0988 -1.2804  0.1338
15467TIP3   OH267891   1.076   0.828   2.604  0.2270 -0.2922 -0.3125
15467TIP3    H167892   1.027   0.765   2.551  1.1663  0.2375 -1.8658
15467TIP3    H267893   1.140   0.775   2.652 -0.0289 -0.6761 -0.3920
15468TIP3   OH267894   2.215   1.406  77.384  0.5560 -0.4091  0.0673
15468TIP3    H167895   2.292   1.363  77.347  0.3258 -0.6068 -0.1959
15468TIP3    H267896   2.142   1.374  77.330  0.4609  0.8321 -0.5869
15469TIP3   OH267897   2.577   0.970   7.052 -0.0252  0.3512  0.2911
15469TIP3    H167898   2.532   0.916   6.987  1.2365 -0.8354  0.3548
15469TIP3    H267899   2.514   0.978   7.124 -0.6352 -0.1278 -0.1738
15470TIP3   OH267900   1.635   0.629 111.717 -0.5397  0.4328  0.1555
15470TIP3    H167901   1.647   0.572 111.793 -0.0437  0.9995  0.5138
15470TIP3    H267902   1.547   0.611 111.687 -0.1888 -0.9502 -0.0886
15471TIP3   OH267903   1.663   0.733 106.224 -0.4023  0.1689  0.2526
15471TIP3    H167904   1.619   0.786 106.290  0.7222 -0.9814  1.9999
15471TIP3    H267905   1.596   0.672 106.195 -1.5074  1.9891 -1.2743
15472TIP3   OH267906   1.612   2.040  28.074  1.0503 -0.0925  0.4384
15472TIP3    H167907   1.655   2.121  28.100 -0.8693  0.6955  1.3688
15472TIP3    H267908   1.550   2.022  28.144  0.2924 -1.5004 -0.5350
15473TIP3   OH267909   2.217   1.206 106.575  0.2219  0.0541 -0.2868
15473TIP3    H167910   2.123   1.205 106.560 -0.0924 -1.7503  1.4713
15473TIP3    H267911   2.251   1.135 106.521  0.4993  0.2504 -0.3775
15474TIP3   OH267912   1.672   1.590 102.189 -0.1614  0.0888  0.2873
15474TIP3    H167913   1.737   1.649 102.152 -0.0883  0.3086  0.7568
15474TIP3    H267914   1.596   1.599 102.131  1.2837 -2.7251 -2.3373
15475TIP3   OH267915   2.269   1.414  14.274  0.2638  0.0753  0.0972
15475TIP3    H167916   2.224   1.476  14.331  1.6311  0.7931  0.4199
15475TIP3    H267917   2.198   1.373  14.224 -0.9166 -0.0481  1.7560
15476TIP3   OH267918   2.172   0.203  93.454  0.0237  0.0566 -0.1313
15476TIP3    H167919   2.164   0.231  93.363  0.8999  1.1854  0.1233
15476TIP3    H267920   2.266   0.187  93.466  0.1993  1.6615  1.0308
15477TIP3   OH267921   0.492   1.489  86.386  0.6461 -0.7140  0.0920
15477TIP3    H167922   0.514   1.569  86.434 -1.7303 -0.5249  0.9862
15477TIP3    H267923   0.575   1.461  86.348  1.5730  2.1219 -0.1968
15478TIP3   OH267924   0.063   0.040  17.740 -0.8030 -0.5502  0.3312
15478TIP3    H167925   0.011  -0.022  17.790  0.1217 -1.4645  0.1940
15478TIP3    H267926   0.097  -0.011  17.667  0.0374  0.1021  0.2523
15479TIP3   OH267927   1.442   0.018   5.371  0.0258  0.6638 -0.0949
15479TIP3    H167928   1.465   0.040   5.281  1.1184 -0.3093 -0.0681
15479TIP3    H267929   1.499   0.073   5.425  1.3449 -0.6947 -0.0295
15480TIP3   OH267930   0.012   1.536  23.681  0.2511 -0.3113  0.3097
15480TIP3    H167931   0.097   1.579  23.688  1.1403 -2.0635  1.0317
15480TIP3    H267932   0.029   1.456  23.631 -0.5716 -1.5480  1.8766
15481TIP3   OH267933   2.600   0.201  25.002  0.2948  0.2442  0.0656
15481TIP3    H167934   2.577   0.223  25.093 -3.0401 -0.2436 -0.5234
15481TIP3    H267935   2.669   0.135  25.009  0.1630  0.2749  2.2409
15482TIP3   OH267936   0.504   2.654  93.004 -0.3355 -0.1068 -0.0698
15482TIP3    H167937   0.536   2.570  93.037  0.3481  0.1784  0.0018
15482TIP3    H267938   0.582   2.698  92.970 -0.3976  1.1916  1.3884
15483TIP3   OH267939   0.739   2.232   5.249 -0.0881  0.0127  0.2698
15483TIP3    H167940   0.758   2.152   5.299 -0.7186 -1.9555 -2.4233
15483TIP3    H267941   0.825   2.270   5.231  0.3163 -0.7464  0.5381
15484TIP3   OH267942   2.260   0.639  40.954 -0.0573 -0.3551 -0.4327
15484TIP3    H167943   2.210   0.720  40.946 -0.5174 -0.5988 -0.0484
15484TIP3    H267944   2.195   0.572  40.976 -0.2716 -1.5134 -3.9004
15485TIP3   OH267945   1.516   1.499   6.016 -0.1141 -0.2264 -0.0835
15485TIP3    H167946   1.466   1.553   6.077 -1.2174 -0.6822 -0.5610
15485TIP3    H267947   1.557   1.562   5.957 -1.0606  0.1285 -0.3887
15486TIP3   OH267948   0.168   2.670  73.092 -0.3399 -0.1278  0.0814
15486TIP3    H167949   0.130   2.697  73.008  1.3046  2.9278  0.1681
15486TIP3    H267950   0.165   2.749  73.146 -2.8933 -2.3701  3.6379
15487TIP3   OH267951   0.824   1.985 100.645 -0.0324  0.0660 -0.2575
15487TIP3    H167952   0.743   1.950 100.606 -0.5729 -0.6037  1.3268
15487TIP3    H267953   0.806   2.078 100.659 -0.2057  0.0976 -0.6757
15488TIP3   OH267954   0.308   0.192  13.107  0.2660  0.4627  0.1115
15488TIP3    H167955   0.355   0.227  13.032 -1.0847  1.1410 -0.4635
15488TIP3    H267956   0.299   0.098  13.088  0.5548  0.4985 -0.2174
15489TIP3   OH267957   0.521   1.018  35.244 -0.0391 -0.8687 -0.0481
15489TIP3    H167958   0.600   1.055  35.206  0.3565 -2.3420 -0.7135
15489TIP3    H267959   0.449   1.060  35.197  0.3671 -0.3297 -0.1880
15490TIP3   OH267960   0.742   2.385  74.717  0.4554 -0.5129  0.4099
15490TIP3    H167961   0.815   2.364  74.776  0.8799 -2.3953 -0.6933
15490TIP3    H267962   0.753   2.478  74.698  1.2172 -0.2317  2.0524
15491TIP3   OH267963   1.265   0.943 108.535 -0.1794  0.4578  0.6970
15491TIP3    H167964   1.255   0.921 108.627 -1.0124 -1.9072  0.1219
15491TIP3    H267965   1.337   0.887 108.505 -0.3219  0.7525 -0.2269
15492TIP3   OH267966   0.579   0.247  20.237  0.2170 -0.1210  0.3650
15492TIP3    H167967   0.484   0.246  20.227  0.2138  0.0069  0.3866
15492TIP3    H267968   0.604   0.338  20.223  0.1679  0.1855  2.0433
15493TIP3   OH267969   1.236   0.918  82.305 -0.0017 -0.2668 -0.2816
15493TIP3    H167970   1.279   0.833  82.298 -1.0930 -0.8508 -0.0850
15493TIP3    H267971   1.248   0.943  82.397  0.1201 -0.3125 -0.2849
15494TIP3   OH267972   2.432   0.304  91.118 -0.4142  0.0369 -0.4005
15494TIP3    H167973   2.384   0.364  91.060 -2.8829 -0.8527  0.6304
15494TIP3    H267974   2.449   0.356  91.196  0.9567  0.5419 -0.9970
15495TIP3   OH267975   1.837   0.406   3.040 -0.1418 -0.4045  0.4939
15495TIP3    H167976   1.790   0.347   2.981 -1.3594 -0.5195  1.5337
15495TIP3    H267977   1.830   0.492   2.998 -0.3482 -0.6098  0.0988
15496TIP3   OH267978   0.601   1.593   5.976 -0.1891 -0.3113  0.1805
15496TIP3    H167979   0.679   1.611   6.027  0.5512 -0.4230 -0.8800
15496TIP3    H267980   0.556   1.524   6.024 -0.1776  0.4626  1.3374
15497TIP3   OH267981   1.463   0.592  36.529 -0.1604 -0.5288  0.3785
15497TIP3    H167982   1.429   0.677  36.501 -0.7775 -1.3792 -1.6288
15497TIP3    H267983   1.389   0.532  36.519  0.3778 -1.3872  1.3636
15498TIP3   OH267984   0.894   2.213  82.906  0.0379  0.5809  0.1497
15498TIP3    H167985   0.811   2.256  82.926 -0.0082  0.6503 -0.1822
15498TIP3    H267986   0.874   2.159  82.829 -0.0248 -0.3822  0.8223
15499TIP3   OH267987   0.959   0.036  14.661  0.2756  0.2681  0.5568
15499TIP3    H167988   0.934   0.115  14.612  0.8477 -0.6096 -1.2275
15499TIP3    H267989   0.904  -0.033  14.625  0.3012 -0.2993  1.5938
15500TIP3   OH267990   2.240   0.828  37.645  0.5961  0.0116 -0.5030
15500TIP3    H167991   2.296   0.906  37.651  1.2794 -0.5462  0.8349
15500TIP3    H267992   2.263   0.776  37.722  0.1020 -1.4886 -1.3313
15501TIP3   OH267993   2.116   0.994  81.375  0.0352 -0.6372  0.0758
15501TIP3    H167994   2.177   1.041  81.319 -0.3893  0.1868  0.2939
15501TIP3    H267995   2.112   1.046  81.455  0.5819 -1.7572  0.8573
15502TIP3   OH267996   2.563   0.452   2.165  0.3122 -0.0632 -0.4359
15502TIP3    H167997   2.594   0.421   2.080  2.7185 -0.5213  0.5450
15502TIP3    H267998   2.629   0.423   2.227 -0.9230  1.0460  1.4967
15503TIP3   OH267999   0.640   2.034  38.037  0.8865 -0.3522 -0.2262
15503TIP3    H168000   0.547   2.052  38.023  0.7936  0.3557  1.1384
15503TIP3    H268001   0.654   2.050  38.130  1.8166 -3.0187  0.1873
15504TIP3   OH268002   1.896   0.412  29.267  0.0890 -0.0820  0.5374
15504TIP3    H168003   1.938   0.339  29.221 -0.0650  0.1655 -0.0045
15504TIP3    H268004   1.907   0.392  29.360 -0.0082 -0.8319  0.3909
15505TIP3   OH268005   0.534   0.457  59.407  0.2181 -0.4265 -0.5798
15505TIP3    H168006   0.620   0.438  59.369 -0.4565  2.3678 -3.9473
15505TIP3    H268007   0.542   0.545  59.443 -1.0194 -0.5086 -0.0327
15506TIP3   OH268008   1.762   0.352  21.146 -0.1745 -0.6566  0.6603
15506TIP3    H168009   1.781   0.329  21.237  0.6841 -1.0935  0.3903
15506TIP3    H268010   1.848   0.357  21.105 -0.3927  1.9759  0.4098
15507TIP3   OH268011   2.621   1.893  35.168 -1.0842  0.4909  0.0883
15507TIP3    H168012   2.566   1.900  35.090 -0.6395  3.1540 -0.0714
15507TIP3    H268013   2.706   1.930  35.141  0.2170 -1.7440  0.8853
15508TIP3   OH268014   2.672   2.574   1.443  0.0020  0.3408  0.1080
15508TIP3    H168015   2.587   2.547   1.408 -0.2538  1.9010 -0.5663
15508TIP3    H268016   2.681   2.523   1.524 -2.1702  1.0143  0.8607
15509TIP3   OH268017   0.334   1.184  79.931  0.2422  0.1932 -0.5287
15509TIP3    H168018   0.319   1.125  79.858  2.6828 -1.4105  0.1611
15509TIP3    H268019   0.358   1.267  79.891 -0.2484 -0.1402 -1.5310
15510TIP3   OH268020   0.296   0.598  12.351 -0.2418 -0.9421 -0.2244
15510TIP3    H168021   0.323   0.529  12.292  0.4032 -1.7483  0.9710
15510TIP3    H268022   0.370   0.658  12.354 -1.0448  0.1825 -1.7571
15511TIP3   OH268023   1.990   1.918  26.501 -0.3772  0.5446  0.0766
15511TIP3    H168024   2.066   1.897  26.555 -0.6578 -0.7213  0.0147
15511TIP3    H268025   1.922   1.940  26.563 -0.5553 -0.4167  0.2359
15512TIP3   OH268026   1.129   1.201   4.031 -0.5182  0.3666  0.1584
15512TIP3    H168027   1.077   1.167   4.104 -0.1507  0.7053  0.5798
15512TIP3    H268028   1.137   1.295   4.048 -2.1091  0.8262 -1.3526
15513TIP3   OH268029   0.310   0.902  75.645 -0.3156  0.4600  0.2064
15513TIP3    H168030   0.271   0.818  75.666 -2.0007  1.2011  0.1900
15513TIP3    H268031   0.284   0.919  75.555 -0.3105  1.1651  0.3289
15514TIP3   OH268032   1.994   0.557  96.571  0.2560  0.0200 -0.2364
15514TIP3    H168033   1.921   0.495  96.576 -1.0038  1.4993  0.3520
15514TIP3    H268034   1.985   0.598  96.485 -1.5196  2.3781  0.9661
15515TIP3   OH268035   1.031   0.207 110.509 -0.1588 -0.1394  0.0089
15515TIP3    H168036   1.055   0.119 110.538  1.4399 -0.3458 -1.7049
15515TIP3    H268037   1.022   0.199 110.414 -0.0458  1.5158 -0.1752
15516TIP3   OH268038   1.310   0.849  84.442  0.2741 -0.1047 -0.5302
15516TIP3    H168039   1.386   0.841  84.499 -0.9504 -0.9021  1.0878
15516TIP3    H268040   1.296   0.943  84.432  0.2114  0.0647  0.9639
15517TIP3   OH268041   2.275   0.993   5.856 -0.1509 -0.0569  0.0312
15517TIP3    H168042   2.222   0.932   5.907 -0.6506  0.7270  0.4613
15517TIP3    H268043   2.212   1.050   5.813  0.2020 -1.3735 -2.3816
15518TIP3   OH268044   0.867   1.540 110.802  0.3651  0.1771 -0.3764
15518TIP3    H168045   0.902   1.627 110.822 -0.9183  0.3112  1.4954
15518TIP3    H268046   0.939   1.480 110.823  0.5534  0.6442  0.3268
15519TIP3   OH268047   1.844   2.180 108.595 -0.2649  1.0285  0.5444
15519TIP3    H168048   1.914   2.182 108.660 -1.8285  0.0095  2.3757
15519TIP3    H268049   1.781   2.244 108.626  0.0106  2.2791 -1.3425
15520TIP3   OH268050   0.499   1.499  91.943  0.2282  0.0976 -0.1814
15520TIP3    H168051   0.418   1.505  91.893 -0.0267 -2.7393 -0.2487
15520TIP3    H268052   0.476   1.452  92.023  1.8259 -1.0979 -0.3591
15521TIP3   OH268053   1.419   0.453  31.365 -0.0080  0.3194 -1.0211
15521TIP3    H168054   1.480   0.426  31.433 -0.4386  0.7284 -0.4579
15521TIP3    H268055   1.449   0.408  31.286  1.2171  0.7772 -0.8418
15522TIP3   OH268056   1.276   0.679  80.514 -0.1991 -0.4900 -0.1427
15522TIP3    H168057   1.330   0.608  80.550 -0.5255 -0.8706 -0.3965
15522TIP3    H268058   1.327   0.712  80.440 -0.2615 -0.7761 -0.3167
15523TIP3   OH268059   0.615   1.047  29.282  0.1099 -0.1174  0.4886
15523TIP3    H168060   0.591   0.982  29.216 -0.8651  1.5243 -0.8662
15523TIP3    H268061   0.539   1.106  29.285  1.0779  1.1204  1.4264
15524TIP3   OH268062   0.621   0.556   0.214  0.3324  0.0062  0.1174
15524TIP3    H168063   0.599   0.463   0.201  0.2728  0.1233 -0.6697
15524TIP3    H268064   0.686   0.556   0.284  1.4109 -0.7561 -0.8636
15525TIP3   OH268065   2.076   2.276 105.471 -0.1668 -0.5156  0.3527
15525TIP3    H168066   1.984   2.304 105.473 -0.2386 -0.3541 -2.0005
15525TIP3    H268067   2.122   2.347 105.425  0.8591 -1.2322  0.2319
15526TIP3   OH268068   1.550   0.892  33.473  0.0367 -0.8032 -0.1332
15526TIP3    H168069   1.462   0.874  33.504  0.3763  0.4465  1.7039
15526TIP3    H268070   1.599   0.811  33.489 -0.2855 -0.8269  0.7838
15527TIP3   OH268071   1.759   1.259  20.316 -0.2528 -0.1080  0.4500
15527TIP3    H168072   1.761   1.346  20.275 -3.1718 -0.1927 -0.1128
15527TIP3    H268073   1.668   1.231  20.308  0.4863 -3.0563  1.0303
15528TIP3   OH268074   1.332   2.346 109.953  0.5079  0.3368 -0.0998
15528TIP3    H168075   1.378   2.387 109.881  1.0747  0.3131  0.2441
15528TIP3    H268076   1.385   2.367 110.030  0.1721 -0.0384  0.2406
15529TIP3   OH268077   0.846   1.104  98.289  0.4011  0.0468  0.2801
15529TIP3    H168078   0.933   1.066  98.307 -0.4553 -1.3605  1.7426
15529TIP3    H268079   0.848   1.189  98.333  0.9387 -0.1206  0.6060
15530TIP3   OH268080   1.653   2.053  73.933 -0.2002  0.2106  0.5072
15530TIP3    H168081   1.668   2.116  73.863  0.0029 -1.8845 -1.4940
15530TIP3    H268082   1.740   2.025  73.960 -0.2756 -0.5072  0.0555
15531TIP3   OH268083   2.187   2.025  28.964  0.0133 -0.2495 -0.2151
15531TIP3    H168084   2.162   2.116  28.980  1.1402  0.0524 -0.0637
15531TIP3    H268085   2.258   2.031  28.899  0.8497 -0.9279  0.6118
15532TIP3   OH268086   0.290   1.968   7.326 -0.0124  0.4675  0.5237
15532TIP3    H168087   0.347   1.992   7.253 -1.0755 -0.7200 -0.7495
15532TIP3    H268088   0.298   2.041   7.387  2.1385  0.7440 -0.0244
15533TIP3   OH268089   1.225   0.859  51.324  0.0929  0.3183 -1.4787
15533TIP3    H168090   1.195   0.799  51.392  0.0091 -1.1333 -2.7510
15533TIP3    H268091   1.307   0.894  51.358 -0.1151 -0.1361 -0.4881
15534TIP3   OH268092   2.032   2.077  36.750 -0.1824 -0.3979 -0.0069
15534TIP3    H168093   2.019   2.171  36.761  1.5435 -0.4298  3.5119
15534TIP3    H268094   2.117   2.070  36.706  0.4094 -0.2767  1.0887
15535TIP3   OH268095   2.620   1.436  26.396 -0.1691 -0.0146  0.2227
15535TIP3    H168096   2.569   1.384  26.458  0.5677 -1.1155 -0.0528
15535TIP3    H268097   2.633   1.378  26.321  0.2731  0.7481 -0.3101
15536TIP3   OH268098   1.570   2.178  36.433 -0.2734 -0.2281 -0.2015
15536TIP3    H168099   1.556   2.162  36.526  1.7510  0.2712  0.2437
15536TIP3    H268100   1.513   2.116  36.389 -0.8510 -0.8677  1.3663
15537TIP3   OH268101   2.085   1.673  93.849  0.0520 -0.0421 -0.5271
15537TIP3    H168102   2.094   1.645  93.758  2.4302  1.6005 -0.8791
15537TIP3    H268103   2.157   1.630  93.895 -1.1981 -0.9623  0.6846
15538TIP3   OH268104   0.169   1.269 111.414  0.2886 -0.0546  0.1218
15538TIP3    H168105   0.141   1.282 111.504  2.7396 -0.3927  1.0100
15538TIP3    H268106   0.107   1.205 111.379 -0.4838 -0.2108  1.6690
15539TIP3   OH268107   2.017   2.214  89.116 -0.3261  0.1561  0.5202
15539TIP3    H168108   1.992   2.171  89.198 -2.2672 -0.3149 -0.2512
15539TIP3    H268109   1.934   2.247  89.081  0.7039  1.8179 -0.4484
15540TIP3   OH268110   0.402   1.026  11.974 -0.3775  0.4098 -0.2708
15540TIP3    H168111   0.314   1.017  11.937 -0.0485 -0.8693 -0.8070
15540TIP3    H268112   0.453   0.958  11.930  0.4818  0.0572  1.2146
15541TIP3   OH268113   1.482   1.706  82.386 -0.7177 -0.1079 -1.0470
15541TIP3    H168114   1.460   1.645  82.317 -1.9801  0.3960 -1.1171
15541TIP3    H268115   1.488   1.652  82.465 -2.0425 -0.3164 -1.0640
15542TIP3   OH268116   1.221   1.685  94.872 -0.4908 -0.1403  0.3707
15542TIP3    H168117   1.181   1.767  94.846 -1.3807 -1.0631 -1.3197
15542TIP3    H268118   1.315   1.702  94.867 -0.6214  1.2890  1.8944
15543TIP3   OH268119   0.314   2.274 102.067  0.0690  0.3766  0.6222
15543TIP3    H168120   0.330   2.199 102.125 -0.6301 -0.4378 -0.2073
15543TIP3    H268121   0.221   2.269 102.046  0.5821 -0.4053 -1.9121
15544TIP3   OH268122   0.906   1.188  22.077  0.3758 -0.0084 -0.0307
15544TIP3    H168123   0.935   1.127  22.009 -0.7339 -0.4496 -0.1264
15544TIP3    H268124   0.861   1.258  22.029 -1.1039 -0.7155  0.2647
15545TIP3   OH268125   0.135   0.929  87.131  0.1829  0.5546 -0.0434
15545TIP3    H168126   0.146   0.920  87.225 -0.9140 -0.3586  0.0196
15545TIP3    H268127   0.068   0.997  87.122  2.8779  3.4154 -0.3228
15546TIP3   OH268128   1.324   1.659  79.598 -0.2526  0.2892 -0.3031
15546TIP3    H168129   1.335   1.567  79.576 -1.7059 -0.9175  3.1545
15546TIP3    H268130   1.409   1.686  79.632  0.1981  0.2865 -1.3965
15547TIP3   OH268131   1.482   0.407  28.663  0.1690 -0.1371  0.5102
15547TIP3    H168132   1.549   0.476  28.663  0.2887 -0.2281 -0.7204
15547TIP3    H268133   1.427   0.428  28.738  0.4497  1.0627  0.4129
15548TIP3   OH268134   1.228   0.345  35.832 -0.0225  0.1870  0.1011
15548TIP3    H168135   1.280   0.319  35.908  3.8893 -2.7805 -3.1983
15548TIP3    H268136   1.148   0.292  35.839  0.3567 -0.2383  1.9174
15549TIP3   OH268137   0.507   0.091  17.364  0.0257 -0.2703 -0.1740
15549TIP3    H168138   0.586   0.059  17.407  1.3390 -0.2989 -2.4061
15549TIP3    H268139   0.512   0.055  17.275 -0.6528  2.5163 -1.4726
15550TIP3   OH268140   2.535   0.019  30.368  0.9094  0.0490 -0.4206
15550TIP3    H168141   2.583   0.035  30.449  0.2505  1.1564 -0.2148
15550TIP3    H268142   2.454  -0.023  30.396 -0.4289  2.6172 -0.1739
15551TIP3   OH268143   0.723   2.563 111.698 -0.3369 -0.0740  0.1904
15551TIP3    H168144   0.764   2.592 111.616  0.8913 -0.9430  0.4580
15551TIP3    H268145   0.638   2.529 111.671 -0.1501  0.0963 -0.6629
15552TIP3   OH268146   0.114   0.532  73.585  0.0391 -0.2737  0.3248
15552TIP3    H168147   0.067   0.586  73.521 -2.6576 -0.3507  2.0485
15552TIP3    H268148   0.156   0.464  73.533  1.3782  1.9163 -1.6631
15553TIP3   OH268149   0.017   1.958  22.472  0.3727  0.1412  0.0958
15553TIP3    H168150   0.006   1.868  22.441 -0.2211  0.6992 -1.3995
15553TIP3    H268151   0.089   1.953  22.535 -0.2516 -1.5207  0.7442
15554TIP3   OH268152   0.430   0.155  34.735  0.4178 -0.1438 -0.4388
15554TIP3    H168153   0.451   0.238  34.777  2.1849 -1.0494  0.6230
15554TIP3    H268154   0.356   0.174  34.678  0.1372  1.9135  0.5326
15555TIP3   OH268155   0.160   0.388  91.835 -0.0584 -0.5286  0.1299
15555TIP3    H168156   0.107   0.434  91.770 -1.0965  0.8562  1.8606
15555TIP3    H268157   0.130   0.297  91.831 -0.7022 -0.2968 -0.7262
15556TIP3   OH268158   2.059   1.836 106.855 -0.0873  1.0943 -0.2388
15556TIP3    H168159   2.015   1.751 106.849  1.3863  0.2702  0.1330
15556TIP3    H268160   2.126   1.832 106.787  1.0834  1.2737  0.8691
15557TIP3   OH268161   1.229   1.929 104.617  0.0217 -0.0208 -0.3580
15557TIP3    H168162   1.244   1.909 104.709  1.9759 -0.6884 -0.7605
15557TIP3    H268163   1.135   1.920 104.605 -0.4516  1.3491  1.8348
15558TIP3   OH268164   0.745   1.606   2.604 -0.2229 -0.6847 -0.1180
15558TIP3    H168165   0.758   1.541   2.535  1.4123  1.4530 -1.9612
15558TIP3    H268166   0.812   1.585   2.669  0.9942 -0.2495 -1.2016
15559TIP3   OH268167   0.723   2.627  53.322 -0.2131 -0.4916  0.8359
15559TIP3    H168168   0.648   2.669  53.280  0.4453  0.3069  0.4309
15559TIP3    H268169   0.756   2.693  53.382  0.4896 -0.6367  0.6125
15560TIP3   OH268170   2.539   0.081  82.871  0.0610  0.4854 -0.1167
15560TIP3    H168171   2.546   0.132  82.951  1.6656 -0.3236  0.3077
15560TIP3    H268172   2.466   0.021  82.886 -0.9309  1.6888 -0.0691
15561TIP3   OH268173   0.389   2.056  10.132 -0.5151  0.2540 -0.6264
15561TIP3    H168174   0.350   1.981  10.177 -1.1475 -0.3015 -2.0675
15561TIP3    H268175   0.324   2.083  10.067 -0.4639  2.3140  0.1014
15562TIP3   OH268176   1.447   1.376  52.144  0.1794  0.0861  1.1968
15562TIP3    H168177   1.416   1.464  52.167 -0.0792  0.8350 -1.6576
15562TIP3    H268178   1.453   1.377  52.049 -2.6787 -3.9090  0.7348
15563TIP3   OH268179   2.168   2.074  90.418 -0.0301 -0.0347 -0.3760
15563TIP3    H168180   2.238   2.129  90.385 -3.0606  3.6951 -1.3800
15563TIP3    H268181   2.149   2.109  90.505 -0.9727 -0.5911 -0.3384
15564TIP3   OH268182   2.128   2.367 104.572  0.3496 -0.3324  0.0517
15564TIP3    H168183   2.150   2.443 104.626  1.3273 -0.5259 -0.0527
15564TIP3    H268184   2.212   2.337 104.538  0.0160 -1.6805  0.3669
15565TIP3   OH268185   2.383   0.563 108.020  0.0559  0.5811 -0.1053
15565TIP3    H168186   2.317   0.506 107.981 -1.3026  1.4907  0.7391
15565TIP3    H268187   2.339   0.648 108.027  0.9371  0.9488  1.4831
15566TIP3   OH268188   0.973   1.654  21.062 -0.3038  0.7334  0.1349
15566TIP3    H168189   0.937   1.720  21.121 -0.5481  0.8299 -0.1186
15566TIP3    H268190   1.012   1.704  20.990 -0.7260  0.5989 -0.1918
15567TIP3   OH268191   0.192   1.269  15.679 -0.1758 -0.2059 -0.6373
15567TIP3    H168192   0.215   1.287  15.588 -1.3320  3.0804 -0.4056
15567TIP3    H268193   0.268   1.299  15.730 -0.9207  1.3561 -0.3922
15568TIP3   OH268194   1.561   2.171 106.466  0.0244 -0.0325 -0.1592
15568TIP3    H168195   1.557   2.260 106.431 -1.5721  0.4061  1.0557
15568TIP3    H268196   1.654   2.150 106.465  0.3056  1.0831 -1.8115
15569TIP3   OH268197   1.357   2.504  98.464 -0.3073  0.6821  0.5588
15569TIP3    H168198   1.405   2.553  98.531 -0.0853  0.0931  0.8274
15569TIP3    H268199   1.419   2.439  98.432 -0.6432  0.4934  0.2850
15570TIP3   OH268200   2.199   0.178  26.496  0.4671 -0.7013 -0.6211
15570TIP3    H168201   2.271   0.121  26.522  1.0579 -0.7814 -2.2819
15570TIP3    H268202   2.149   0.126  26.433  1.4819  0.7768 -2.8026
15571TIP3   OH268203   1.722   2.379  46.510 -0.6396  0.0153 -0.1180
15571TIP3    H168204   1.784   2.306  46.509 -1.3228 -0.5795 -0.6233
15571TIP3    H268205   1.650   2.348  46.565 -1.5472 -0.2300 -1.4038
15572TIP3   OH268206   2.605   0.195  13.734  0.0769  0.1529 -0.3181
15572TIP3    H168207   2.599   0.151  13.819  0.7952  1.2832  0.3508
15572TIP3    H268208   2.691   0.238  13.736  0.3825 -0.3378 -1.8967
15573TIP3   OH268209   0.348   1.214 105.011 -0.0007  0.5557  0.2373
15573TIP3    H168210   0.397   1.257 104.941  0.5573 -0.0033  0.2814
15573TIP3    H268211   0.259   1.209 104.978  0.3429 -0.0898 -0.6095
15574TIP3   OH268212   2.436   1.581  12.811  0.2531  0.2780  0.0721
15574TIP3    H168213   2.399   1.603  12.725 -1.0156 -1.0400  0.2534
15574TIP3    H268214   2.523   1.547  12.791  0.4465  1.1121 -0.5750
15575TIP3   OH268215   1.644   1.730  97.547  0.3650 -0.3036  0.6100
15575TIP3    H168216   1.707   1.713  97.476  0.5854 -1.4300  1.0373
15575TIP3    H268217   1.616   1.642  97.574 -1.9248  0.1883 -0.0180
15576TIP3   OH268218   1.243   0.798  34.273  0.4101 -0.3536  0.3199
15576TIP3    H168219   1.210   0.723  34.322  1.0186  0.1783  1.6117
15576TIP3    H268220   1.212   0.874  34.321 -0.4042  0.2545 -1.1074
15577TIP3   OH268221   1.670   0.403  90.181 -0.0903 -0.2284  0.1028
15577TIP3    H168222   1.669   0.485  90.231  2.1082  0.6225 -1.0982
15577TIP3    H268223   1.755   0.403  90.137 -1.6927 -1.0809 -3.3387
15578TIP3   OH268224   1.108   2.583  26.253 -0.1578  0.2078 -0.0854
15578TIP3    H168225   1.178   2.571  26.189 -1.3209  0.6850 -1.5076
15578TIP3    H268226   1.123   2.671  26.289  0.2260  0.1302 -0.0545
15579TIP3   OH268227   1.538   0.979  30.031 -0.1069 -0.0180  0.3833
15579TIP3    H168228   1.593   1.027  30.092 -0.8957  0.2587  0.8897
15579TIP3    H268229   1.535   0.890  30.066 -1.5439  0.4196  1.4608
15580TIP3   OH268230   2.553   2.227  97.844 -0.2478  0.3872  0.3647
15580TIP3    H168231   2.458   2.234  97.856  0.0653  2.9211  2.0029
15580TIP3    H268232   2.591   2.269  97.921  2.2272 -0.1459 -0.4661
15581TIP3   OH268233   2.285   1.429  91.969  0.8726  0.1227 -0.5174
15581TIP3    H168234   2.201   1.463  91.937  0.6213  0.7954  0.7816
15581TIP3    H268235   2.340   1.423  91.891  0.0470  0.9666 -1.1878
15582TIP3   OH268236   2.562   2.458   6.700  0.3660 -0.0483 -0.2331
15582TIP3    H168237   2.613   2.392   6.653  0.5820 -0.6130  0.7732
15582TIP3    H268238   2.610   2.472   6.782  0.6834  1.8447 -0.6812
15583TIP3   OH268239   1.422   1.781  30.257  0.4307  0.4201  0.3153
15583TIP3    H168240   1.346   1.821  30.215  0.5439  1.2267  0.8516
15583TIP3    H268241   1.486   1.771  30.186 -0.7783 -1.9165 -0.5213
15584TIP3   OH268242   0.962   0.975  96.570 -0.2606 -0.7633  0.1821
15584TIP3    H168243   1.021   0.903  96.593 -1.8898 -1.9532  0.7482
15584TIP3    H268244   0.923   1.002  96.653 -0.4781  0.0712 -0.1810
15585TIP3   OH268245   2.471   1.409  86.441 -0.4054  0.0889  0.1777
15585TIP3    H168246   2.487   1.504  86.443 -1.0251  0.2210 -0.5706
15585TIP3    H268247   2.385   1.401  86.399  0.0454 -0.8477 -0.5924
15586TIP3   OH268248   1.272   1.176   4.815 -0.1067  0.0889 -0.0675
15586TIP3    H168249   1.356   1.130   4.816 -0.2907 -0.3912  2.7690
15586TIP3    H268250   1.208   1.109   4.834 -0.5893  1.0912  2.2273
15587TIP3   OH268251   1.488   1.888  28.533 -0.3256 -0.3946  0.3344
15587TIP3    H168252   1.448   1.955  28.477 -1.1269 -0.3053  0.9872
15587TIP3    H268253   1.436   1.809  28.517 -2.8915  0.4343  3.3959
15588TIP3   OH268254   2.175   2.678   9.942  0.9095  0.2605  0.3202
15588TIP3    H168255   2.179   2.767   9.907 -0.2030  1.2038  2.4667
15588TIP3    H268256   2.265   2.660   9.971  1.1014  0.7165  0.0277
15589TIP3   OH268257   0.217   1.675  16.026 -0.2685  0.6072  0.3426
15589TIP3    H168258   0.212   1.704  15.934  0.0212  0.0205  0.1340
15589TIP3    H268259   0.184   1.749  16.076  0.7485  1.4186 -0.1517
15590TIP3   OH268260   0.811   2.365  37.362  0.8610  0.1895 -0.0027
15590TIP3    H168261   0.724   2.392  37.335 -0.2340 -1.3873  1.7349
15590TIP3    H268262   0.799   2.326  37.449  3.3267  0.1058  0.3746
15591TIP3   OH268263   1.509   0.845  21.785  0.0109 -0.5763 -0.1845
15591TIP3    H168264   1.590   0.895  21.787 -0.4084  0.1184  0.0218
15591TIP3    H268265   1.526   0.772  21.726  1.7588 -2.1489  2.0960
15592TIP3   OH268266   0.216   0.655  78.525 -0.6229 -0.0906  0.0728
15592TIP3    H168267   0.244   0.645  78.616  1.4222  1.3144 -0.3434
15592TIP3    H268268   0.234   0.747  78.505  0.0288 -0.6469 -2.0862
15593TIP3   OH268269   2.126   2.162  78.984 -0.2089  0.2380  0.0760
15593TIP3    H168270   2.140   2.174  79.078  1.7094  2.9435 -0.4272
15593TIP3    H268271   2.205   2.119  78.953 -0.2004  0.6427 -0.4803
15594TIP3   OH268272   2.323   0.855  29.430 -0.1558  0.0298 -0.1229
15594TIP3    H168273   2.375   0.835  29.508  0.3800 -0.5663 -0.6197
15594TIP3    H268274   2.260   0.920  29.460 -0.5283 -0.8202  1.0321
15595TIP3   OH268275   2.002   1.300   6.649 -0.2682  0.6319  0.4857
15595TIP3    H168276   1.974   1.384   6.613  0.6541  0.1591 -1.4574
15595TIP3    H268277   2.036   1.322   6.736  0.7938  2.4340 -0.3217
15596TIP3   OH268278   1.612   2.344  81.071 -0.1976  0.0585 -0.7846
15596TIP3    H168279   1.633   2.437  81.064 -1.3801  0.3879 -0.2347
15596TIP3    H268280   1.668   2.313  81.142 -1.8909  1.0665  1.1062
15597TIP3   OH268281   0.466   1.469  94.949 -0.0023  0.2944 -0.3888
15597TIP3    H168282   0.449   1.510  95.034 -0.7217 -1.2352  0.2376
15597TIP3    H268283   0.442   1.536  94.885 -0.3277  1.1487  0.5875
15598TIP3   OH268284   1.031   0.370   5.040  0.1917 -0.1343 -0.1859
15598TIP3    H168285   1.109   0.330   5.003  0.3752 -0.8327  0.9183
15598TIP3    H268286   1.047   0.373   5.134 -1.0572 -0.1901  0.0499
15599TIP3   OH268287   2.317   1.766  32.718  0.2805 -0.0254  0.0221
15599TIP3    H168288   2.360   1.836  32.768 -0.3521  0.6322 -0.3346
15599TIP3    H268289   2.226   1.769  32.747  0.5258 -1.6961  1.0920
15600TIP3   OH268290   0.536   1.759  86.131 -0.3707 -0.2921  0.7538
15600TIP3    H168291   0.533   1.772  86.225 -2.3956  1.0022  0.5813
15600TIP3    H268292   0.470   1.691  86.114 -1.3217  0.7444  0.1507
15601TIP3   OH268293   2.202   2.438  91.019 -0.5555  0.6996 -0.0010
15601TIP3    H168294   2.248   2.424  90.936  2.5096  1.0140  1.4887
15601TIP3    H268295   2.223   2.529  91.043 -1.9785  0.8470  0.7883
15602TIP3   OH268296   0.560   0.076  80.500 -0.2651  0.3749 -0.1078
15602TIP3    H168297   0.552   0.142  80.569 -1.3134 -1.4623  1.6207
15602TIP3    H268298   0.469   0.058  80.475  0.0585  0.2114 -1.2156
15603TIP3   OH268299   0.134   0.445 102.750  0.5190  0.7344  0.6756
15603TIP3    H168300   0.199   0.382 102.716 -0.3842 -0.4330  1.0433
15603TIP3    H268301   0.066   0.447 102.683 -0.6874 -0.6606  1.8081
15604TIP3   OH268302   1.496   1.627  19.864  0.4630 -0.2207  0.0891
15604TIP3    H168303   1.497   1.716  19.830  1.2126 -0.0069  0.6580
15604TIP3    H268304   1.576   1.619  19.915 -1.0879 -0.1950  2.7089
15605TIP3   OH268305   0.835   0.552 108.298  0.5398 -0.0288  0.1283
15605TIP3    H168306   0.842   0.647 108.283 -2.0177  0.2655  0.3647
15605TIP3    H268307   0.819   0.544 108.392  1.4968 -0.7768  0.2365
15606TIP3   OH268308   0.389   1.180 109.719 -0.5446  0.1719  0.0511
15606TIP3    H168309   0.421   1.161 109.807 -0.7466 -0.6036 -0.0396
15606TIP3    H268310   0.422   1.108 109.665 -1.0383  0.2438 -0.3555
15607TIP3   OH268311   0.598   0.765  35.340  0.3301 -0.3596 -0.4888
15607TIP3    H168312   0.540   0.693  35.315 -0.9713 -0.4784  2.5472
15607TIP3    H268313   0.562   0.842  35.294 -0.8541 -0.8543 -0.4195
15608TIP3   OH268314   1.011   0.963 100.301 -0.3096 -0.4112  0.2289
15608TIP3    H168315   1.105   0.957 100.283 -0.4599 -0.3980 -0.5648
15608TIP3    H268316   0.971   0.901 100.241 -0.9494  0.7574 -0.5810
15609TIP3   OH268317   0.450   0.819  92.215  0.4470  0.3892  0.3476
15609TIP3    H168318   0.374   0.824  92.274  1.0833  2.2515  1.0843
15609TIP3    H268319   0.413   0.831  92.127 -0.4253 -1.6788  0.3767
15610TIP3   OH268320   2.611   2.426  21.296  0.2102  0.0291 -0.3103
15610TIP3    H168321   2.579   2.399  21.211  2.1526 -0.2918 -0.9939
15610TIP3    H268322   2.640   2.517  21.283 -1.7982  0.8704  0.7029
15611TIP3   OH268323   0.163   2.043  36.099  0.1974  0.1422  0.2793
15611TIP3    H168324   0.118   2.124  36.121 -0.0452 -0.1977  1.0520
15611TIP3    H268325   0.212   2.020  36.178  0.4389 -0.3473 -0.0085
15612TIP3   OH268326   0.318   2.216  33.638  0.0091  0.0206  0.6558
15612TIP3    H168327   0.384   2.158  33.600 -1.4296 -1.0179 -0.3492
15612TIP3    H268328   0.235   2.185  33.601 -1.0582  1.2214  1.9618
15613TIP3   OH268329   1.144   1.021  24.551  0.1876 -0.3018  0.3536
15613TIP3    H168330   1.175   1.051  24.636 -0.3532  0.6522  0.2348
15613TIP3    H268331   1.219   1.032  24.493 -0.2794  1.9164  0.0809
15614TIP3   OH268332   2.477   1.416  96.276 -0.2774  0.0591 -0.5176
15614TIP3    H168333   2.559   1.370  96.293  0.3777  1.5959  0.7530
15614TIP3    H268334   2.469   1.417  96.181  1.8062  0.8924 -0.7265
15615TIP3   OH268335   0.009   0.191  57.565 -0.1619  0.2769 -0.0781
15615TIP3    H168336  -0.026   0.272  57.602  1.1844 -0.0385  2.0561
15615TIP3    H268337   0.097   0.214  57.536 -0.3582 -0.0693 -1.0052
15616TIP3   OH268338   1.942   1.149 106.601  0.4680 -0.0133 -0.1702
15616TIP3    H168339   1.988   1.067 106.617  1.3496  0.5876  0.4823
15616TIP3    H268340   1.886   1.132 106.525 -0.2045 -1.5382  0.6299
15617TIP3   OH268341   0.846   1.459  36.545 -0.1172  0.5158  0.0509
15617TIP3    H168342   0.938   1.432  36.543 -0.2551  0.0350 -1.7155
15617TIP3    H268343   0.835   1.500  36.630  1.4697 -0.3294  0.7124
15618TIP3   OH268344   0.391   2.668  90.683  0.0309 -0.0242 -0.2055
15618TIP3    H168345   0.308   2.635  90.717 -0.8573  1.2234 -1.0808
15618TIP3    H268346   0.383   2.659  90.588  0.1416  1.7291 -0.4184
15619TIP3   OH268347   0.678   2.563  28.675  0.0201 -0.4428  0.2135
15619TIP3    H168348   0.770   2.536  28.676  0.2694  0.3764  0.0231
15619TIP3    H268349   0.662   2.591  28.585 -0.6843 -1.4250  0.0101
15620TIP3   OH268350   2.305   0.281  99.007 -0.0295 -0.4686 -0.3420
15620TIP3    H168351   2.331   0.207  99.062  0.3726 -0.9591 -1.1641
15620TIP3    H268352   2.305   0.245  98.918 -1.1083  0.1893 -0.6194
15621TIP3   OH268353   2.341   2.481 106.446  0.1934 -0.3880  0.1442
15621TIP3    H168354   2.247   2.490 106.430  0.2675 -0.5179 -0.3851
15621TIP3    H268355   2.370   2.420 106.378  0.7918  0.2299 -0.1554
15622TIP3   OH268356   0.845   2.082  16.723 -0.1049  0.0904  0.0524
15622TIP3    H168357   0.808   2.075  16.811  1.1637  0.3271  0.6187
15622TIP3    H268358   0.855   2.176  16.708 -0.1023  0.0432 -0.2588
15623TIP3   OH268359   1.948   1.033  36.174  0.0450 -0.1511  0.3249
15623TIP3    H168360   1.907   1.060  36.092 -0.2290 -1.4179  0.0185
15623TIP3    H268361   1.923   1.100  36.237  0.7857  1.1778 -0.7630
15624TIP3   OH268362   1.644   0.605   8.247  0.3969  0.7949 -0.6761
15624TIP3    H168363   1.622   0.514   8.228  0.4552  0.5169  0.5283
15624TIP3    H268364   1.570   0.638   8.298  0.6958  1.2119 -0.5055
15625TIP3   OH268365   1.205   0.349  11.569  0.3036 -0.0090  0.2776
15625TIP3    H168366   1.120   0.386  11.594 -0.1653  1.2313 -2.8292
15625TIP3    H268367   1.188   0.255  11.562 -0.2735 -0.0246  1.4682
15626TIP3   OH268368   0.396   1.725  97.949  0.2434  0.5784 -0.4181
15626TIP3    H168369   0.311   1.714  97.907 -0.3053 -0.2411  0.8255
15626TIP3    H268370   0.381   1.696  98.039  1.2458  2.6731  0.4818
15627TIP3   OH268371   1.440   0.528 106.922 -0.1100 -0.1833 -0.5636
15627TIP3    H168372   1.526   0.525 106.964  0.8430  1.4622 -2.2280
15627TIP3    H268373   1.442   0.458 106.857 -0.1995 -0.4416 -0.2869
15628TIP3   OH268374   2.395   0.935  48.246  0.5864  0.3338  0.9869
15628TIP3    H168375   2.359   1.013  48.203  1.3594  0.5650  0.7327
15628TIP3    H268376   2.394   0.868  48.177  4.0756  1.3484 -0.2534
15629TIP3   OH268377   1.132   1.129   2.601 -0.1963 -0.3623 -0.3710
15629TIP3    H168378   1.191   1.067   2.645 -0.4717 -0.1436  0.3113
15629TIP3    H268379   1.049   1.081   2.594 -0.1983 -0.3381 -0.5103
15630TIP3   OH268380   0.190   2.030  23.291 -0.4249 -0.1901 -0.5324
15630TIP3    H168381   0.162   2.121  23.287 -0.9134 -0.3807 -1.7619
15630TIP3    H268382   0.115   1.980  23.261  0.0982 -0.9491 -0.6176
15631TIP3   OH268383   2.425   1.271  35.382 -0.0105 -0.1628 -0.0614
15631TIP3    H168384   2.348   1.323  35.402 -1.0057 -1.7306  0.3258
15631TIP3    H268385   2.493   1.306  35.439 -0.7433  0.4738  0.4386
15632TIP3   OH268386   0.621   2.136  35.397 -0.1926  0.1437 -0.5158
15632TIP3    H168387   0.670   2.205  35.353  1.7311 -0.2309  0.8911
15632TIP3    H268388   0.638   2.057  35.345  1.8977 -0.2557  0.6817
15633TIP3   OH268389   2.031   0.078   9.489 -0.0871 -0.4836  0.0906
15633TIP3    H168390   1.979  -0.001   9.505 -0.7541 -0.1843 -0.5383
15633TIP3    H268391   2.039   0.082   9.394 -0.3334  0.3732  0.1022
15634TIP3   OH268392   1.003   0.257  19.902 -0.4951  0.4639  0.0535
15634TIP3    H168393   0.988   0.206  19.822 -0.7486 -3.9025  2.5864
15634TIP3    H268394   1.096   0.243  19.922 -0.0445  2.7810 -0.1422
15635TIP3   OH268395   0.356   1.613   8.500  0.7332  0.0174  0.1446
15635TIP3    H168396   0.413   1.687   8.523  0.7757 -0.2481  0.9390
15635TIP3    H268397   0.305   1.597   8.579 -0.0648 -0.1030 -0.3870
15636TIP3   OH268398   0.296   0.121  81.616  0.0735 -0.4594  0.2715
15636TIP3    H168399   0.350   0.055  81.661  1.0768  0.1705  0.0255
15636TIP3    H268400   0.247   0.071  81.551  0.2179 -1.0803  0.6265
15637TIP3   OH268401   0.185   1.165  17.324 -0.4121  0.3141  0.1455
15637TIP3    H168402   0.218   1.230  17.386  0.7587  0.5803 -0.7185
15637TIP3    H268403   0.246   1.092  17.331  0.1556  0.6358 -1.1698
15638TIP3   OH268404   0.067   1.032  25.486 -0.3359  0.0662 -0.0097
15638TIP3    H168405  -0.014   1.037  25.537 -0.1034  0.1967  0.3548
15638TIP3    H268406   0.076   0.939  25.464  0.4998 -0.3168  1.7568
15639TIP3   OH268407   0.418   0.186  76.288 -0.9366 -0.0605  0.3423
15639TIP3    H168408   0.504   0.144  76.300 -1.4406 -1.7540 -1.5186
15639TIP3    H268409   0.374   0.173  76.372  0.2055 -0.1653  0.9595
15640TIP3   OH268410   1.530   1.885   6.490 -0.0787 -0.1489  0.2957
15640TIP3    H168411   1.517   1.854   6.580  0.7790 -0.6194  0.2641
15640TIP3    H268412   1.484   1.969   6.487 -0.2918 -0.2272  1.1159
15641TIP3   OH268413   0.787   1.517 103.311  0.0646  0.2598  0.2142
15641TIP3    H168414   0.843   1.452 103.353  0.7734  0.7139  0.0011
15641TIP3    H268415   0.708   1.519 103.365 -0.3404 -1.3738 -0.2591
15642TIP3   OH268416   1.473   2.192  89.335 -0.0212  0.2814  0.0170
15642TIP3    H168417   1.446   2.278  89.301  0.7311  0.5627  0.1212
15642TIP3    H268418   1.524   2.153  89.264  3.1242  1.6217  1.3534
15643TIP3   OH268419   2.642   2.163  31.893  0.2304 -1.0841  0.1974
15643TIP3    H168420   2.662   2.091  31.953  0.0181 -0.5328  0.9435
15643TIP3    H268421   2.576   2.215  31.939  2.6971  1.4509  1.1891
15644TIP3   OH268422   0.197   2.139  82.559  0.4687  0.2347  0.1056
15644TIP3    H168423   0.260   2.068  82.573 -0.3847 -0.5894 -0.1075
15644TIP3    H268424   0.117   2.108  82.602 -0.0749  0.8221 -0.4766
15645TIP3   OH268425   1.666   0.149  90.236  0.5360  0.0173 -0.5882
15645TIP3    H168426   1.677   0.226  90.181  0.3094  0.2278 -0.3366
15645TIP3    H268427   1.702   0.174  90.321  1.4574 -0.5131 -0.8058
15646TIP3   OH268428   0.218   2.305  89.028 -0.0923  0.0500  0.0154
15646TIP3    H168429   0.137   2.338  89.067  0.4478  1.1429  0.2436
15646TIP3    H268430   0.261   2.257  89.099 -1.6163 -2.6301 -0.7361
15647TIP3   OH268431   2.514   0.867  90.627  0.3506 -0.1648 -0.1705
15647TIP3    H168432   2.524   0.772  90.633  0.3775 -0.3875 -2.6107
15647TIP3    H268433   2.602   0.900  90.613  0.2331  0.1173 -0.2508
15648TIP3   OH268434   2.183   2.316 105.816 -0.2484  0.0906 -0.1902
15648TIP3    H168435   2.160   2.343 105.727  1.8746  0.2922 -0.7494
15648TIP3    H268436   2.129   2.239 105.832 -0.6302  0.0081 -1.6901
15649TIP3   OH268437   1.181   1.978  26.335 -0.6199 -0.2070  0.0243
15649TIP3    H168438   1.193   2.069  26.361 -0.8210  0.3859 -1.8099
15649TIP3    H268439   1.087   1.963  26.345 -0.2436 -1.1901  3.1247
15650TIP3   OH268440   0.015   0.735  12.726  0.0733 -0.3243  0.1490
15650TIP3    H168441  -0.036   0.707  12.651 -1.3556 -0.1514  1.0207
15650TIP3    H268442  -0.047   0.781  12.782  0.4424 -2.5766  2.6395
15651TIP3   OH268443   1.234   0.322  83.067  0.6405  0.4240 -0.2700
15651TIP3    H168444   1.276   0.372  82.998  0.2988 -0.8397 -1.4416
15651TIP3    H268445   1.250   0.372  83.147  0.6973  2.1308 -1.3135
15652TIP3   OH268446   2.537   1.889  91.451  0.1057  0.1221  0.1731
15652TIP3    H168447   2.535   1.796  91.429  0.6057 -0.0385  0.7932
15652TIP3    H268448   2.449   1.908  91.484 -0.6137  0.3335 -1.7581
15653TIP3   OH268449   1.995   0.833  75.647 -0.2643  0.1060  0.3609
15653TIP3    H168450   2.053   0.904  75.618  2.9384 -1.1248  3.1603
15653TIP3    H268451   1.923   0.878  75.691 -0.2369  1.6510 -1.0695
15654TIP3   OH268452   2.263   0.117 104.134 -0.2030 -0.0427 -0.2382
15654TIP3    H168453   2.330   0.185 104.126 -0.9137  0.5816 -1.0505
15654TIP3    H268454   2.304   0.038 104.099  0.2724  0.2187 -0.2726
15655TIP3   OH268455   0.955   0.071 101.451  0.0254 -0.6831  0.1405
15655TIP3    H168456   1.049   0.089 101.451 -0.1510  0.6917  2.4167
15655TIP3    H268457   0.923   0.114 101.372  1.0397  0.6817  0.4284
15656TIP3   OH268458   1.830   1.991   3.256 -0.2019 -0.2901  0.0816
15656TIP3    H168459   1.914   1.946   3.242 -0.3861 -0.4996 -0.3618
15656TIP3    H268460   1.830   2.012   3.350 -0.5817 -2.1903  0.5612
15657TIP3   OH268461   2.054   0.198  67.808 -0.0508 -0.1622  0.4647
15657TIP3    H168462   2.065   0.195  67.903  1.2523  2.2776  0.4662
15657TIP3    H268463   1.969   0.239  67.795  0.7077  1.5511  0.6490
15658TIP3   OH268464   1.762   0.236  57.655  0.0749  0.1844 -0.2144
15658TIP3    H168465   1.808   0.214  57.575  1.5233 -0.7784  0.8406
15658TIP3    H268466   1.811   0.310  57.691 -1.4350  1.5865 -0.9048
15659TIP3   OH268467   1.324   0.571  18.817 -0.6576 -0.0858  0.2945
15659TIP3    H168468   1.331   0.509  18.745  0.1741  1.5109 -1.0903
15659TIP3    H268469   1.378   0.535  18.886 -0.5644 -1.1211 -0.3032
15660TIP3   OH268470   1.155   0.121   7.134 -0.4763  0.8943 -0.1993
15660TIP3    H168471   1.075   0.124   7.186 -0.4597  0.3162 -0.1348
15660TIP3    H268472   1.139   0.181   7.062 -1.0539  0.6238 -0.3017
15661TIP3   OH268473   1.321   1.949  95.202  0.2060  0.1311 -0.1023
15661TIP3    H168474   1.401   1.979  95.158 -0.8797  0.2049 -2.1494
15661TIP3    H268475   1.250   1.976  95.144 -1.2572 -0.8033  1.1749
15662TIP3   OH268476   0.547   1.187  17.649 -0.2134  0.7175  0.1238
15662TIP3    H168477   0.586   1.210  17.733 -1.7157  0.2674  0.9716
15662TIP3    H268478   0.543   1.092  17.650  0.4460  0.6718 -0.7884
15663TIP3   OH268479   2.298   0.098  99.937 -0.0471 -0.8734 -0.5061
15663TIP3    H168480   2.219   0.089  99.992 -0.1415 -0.0429 -0.4946
15663TIP3    H268481   2.297   0.019  99.883 -2.1101  0.1237 -2.0600
15664TIP3   OH268482   2.606   1.854  83.887 -0.0692  0.0678 -0.3806
15664TIP3    H168483   2.566   1.935  83.856 -2.1839 -1.0762 -0.8554
15664TIP3    H268484   2.563   1.836  83.970  2.9100  1.1680  1.5735
15665TIP3   OH268485   1.294   2.045  75.450  0.4559 -0.9157 -0.3098
15665TIP3    H168486   1.258   1.957  75.436 -1.2779 -0.4645  0.9664
15665TIP3    H268487   1.310   2.049  75.544 -0.8575  0.5945 -0.1154
15666TIP3   OH268488   2.032   0.707  92.543  0.2263  0.2319 -0.5391
15666TIP3    H168489   2.120   0.734  92.518  0.1928 -0.1496 -1.0911
15666TIP3    H268490   1.985   0.790  92.556  0.6320  0.4366 -0.3405
15667TIP3   OH268491   0.728   1.417  97.162 -0.6506 -0.1007  0.1445
15667TIP3    H168492   0.772   1.410  97.247 -0.7664 -3.4780  0.0485
15667TIP3    H268493   0.678   1.335  97.154 -1.6059  0.6546 -2.6777
15668TIP3   OH268494   1.724   0.570  19.685  0.3093  0.3701  0.3060
15668TIP3    H168495   1.808   0.550  19.726 -0.5173 -0.4134  1.6988
15668TIP3    H268496   1.741   0.564  19.591  1.6551 -0.4430  0.5701
15669TIP3   OH268497   1.036   1.719   1.058  0.2937  0.1858  0.0991
15669TIP3    H168498   1.035   1.636   1.106  1.6448 -0.4656 -0.9351
15669TIP3    H268499   1.127   1.729   1.030  0.1634  2.0657  0.2552
15670TIP3   OH268500   1.334   2.494  93.251 -0.2307  0.7757 -0.1244
15670TIP3    H168501   1.322   2.569  93.309 -0.4250  0.8744 -0.2890
15670TIP3    H268502   1.245   2.464  93.231 -0.2551  1.8231 -1.7629
15671TIP3   OH268503   1.223   2.212  31.110 -0.0611  0.3740 -0.1759
15671TIP3    H168504   1.289   2.148  31.083  1.0693  0.8835  1.2545
15671TIP3    H268505   1.254   2.296  31.075 -0.0690  0.5836  0.3145
15672TIP3   OH268506   2.469   0.891 101.003 -0.1246  0.0497 -0.0268
15672TIP3    H168507   2.389   0.868 101.050  0.7199 -0.4914  1.1542
15672TIP3    H268508   2.536   0.900 101.070  0.6657  1.2436 -0.9238
15673TIP3   OH268509   1.434   2.167  83.368  0.4195 -0.2708  0.2986
15673TIP3    H168510   1.461   2.154  83.459 -0.2097 -1.4496  0.3281
15673TIP3    H268511   1.339   2.154  83.369  0.4436 -0.5346 -0.5775
15674TIP3   OH268512   0.320   2.373  96.579  0.1863 -0.0701 -0.1917
15674TIP3    H168513   0.341   2.321  96.501 -2.1953 -0.5700 -0.5827
15674TIP3    H268514   0.369   2.455  96.567 -0.2275 -0.0643 -2.3070
15675TIP3   OH268515   1.730   0.255  12.860  0.0529 -0.0070  0.1281
15675TIP3    H168516   1.808   0.287  12.814 -0.3069  1.5901  0.5720
15675TIP3    H268517   1.761   0.233  12.948  0.3418 -1.1566 -0.2394
15676TIP3   OH268518   1.595   0.927  18.671  0.3006  0.1196  0.0663
15676TIP3    H168519   1.513   0.910  18.716  0.5630  1.7667  1.2498
15676TIP3    H268520   1.662   0.890  18.727  0.5166  0.6785  0.1774
15677TIP3   OH268521   2.661   1.597 105.011  0.3819  0.1589 -0.1719
15677TIP3    H168522   2.604   1.635 105.078 -0.7217 -0.6194 -0.6429
15677TIP3    H268523   2.606   1.593 104.932  1.8173  1.5836 -1.3088
15678TIP3   OH268524   2.154   1.730  89.868 -0.1534 -0.3283 -0.1814
15678TIP3    H168525   2.186   1.767  89.786 -0.3539  0.5364  0.1211
15678TIP3    H268526   2.103   1.801  89.908  1.1288 -0.2224  1.3759
15679TIP3   OH268527   0.435   2.283  20.163  0.1693  0.3389  0.4383
15679TIP3    H168528   0.357   2.289  20.217  1.4519  1.6332  2.2602
15679TIP3    H268529   0.449   2.189  20.150 -0.8682  0.0551  1.2917
15680TIP3   OH268530   1.179   2.623  20.117  0.5015 -0.2208  0.1395
15680TIP3    H168531   1.118   2.617  20.043 -0.6561 -2.1891  1.1738
15680TIP3    H268532   1.123   2.628  20.194  1.6722 -0.2369  1.0128
15681TIP3   OH268533   0.941   1.078  25.676 -0.1737 -0.1868 -0.1419
15681TIP3    H168534   0.947   1.002  25.618  0.8633  1.4216 -2.2929
15681TIP3    H268535   0.891   1.143  25.627  0.2150  1.0415  1.0030
15682TIP3   OH268536   0.050   0.355  24.092 -0.2547 -0.2357  0.4476
15682TIP3    H168537   0.052   0.442  24.052  2.0441 -0.0386  0.8621
15682TIP3    H268538  -0.039   0.322  24.074 -0.0186  0.6310 -3.0646
15683TIP3   OH268539   0.650   0.503  74.557 -0.1527  0.4390 -0.6549
15683TIP3    H168540   0.738   0.485  74.590 -1.3195 -0.5714  2.2632
15683TIP3    H268541   0.663   0.522  74.464  3.0377 -0.4312 -0.5257
15684TIP3   OH268542   0.742   0.996 111.816  0.0738  0.6851 -0.0951
15684TIP3    H168543   0.666   0.956 111.858 -0.0464  0.9751 -0.0314
15684TIP3    H268544   0.816   0.971 111.870  0.0524  0.2337 -0.2733
15685TIP3   OH268545   2.106   1.946  86.786  0.3359 -0.3722 -0.1492
15685TIP3    H168546   2.200   1.930  86.790  0.7019  1.4986 -0.6403
15685TIP3    H268547   2.084   1.977  86.874  0.3942  0.1812 -0.3252
15686TIP3   OH268548   1.053   0.760  87.592 -0.1499 -0.6892  0.8027
15686TIP3    H168549   1.000   0.689  87.557 -0.2292  0.4374 -1.5710
15686TIP3    H268550   1.067   0.737  87.684 -3.2404 -1.9141  1.0853
15687TIP3   OH268551   1.203   0.955  81.788 -0.2500  0.0683 -0.0458
15687TIP3    H168552   1.136   0.938  81.854  0.6172  2.0678  1.4489
15687TIP3    H268553   1.224   0.869  81.753 -1.4882 -0.9382  1.5391
15688TIP3   OH268554   1.568   0.635  77.512 -0.3342  0.4111 -0.6140
15688TIP3    H168555   1.599   0.555  77.554  0.8283  0.5703 -1.1453
15688TIP3    H268556   1.554   0.610  77.421 -0.1147  0.7716 -0.7461
15689TIP3   OH268557   2.661   0.335  21.372  0.2458  0.2470  0.3541
15689TIP3    H168558   2.747   0.338  21.414  0.3858 -0.0091  0.0882
15689TIP3    H268559   2.653   0.420  21.327  0.6335  0.0151 -0.1575
15690TIP3   OH268560   2.632   1.156 102.909 -0.3015 -0.3338  0.1516
15690TIP3    H168561   2.718   1.116 102.903 -0.4618 -0.5089 -1.4843
15690TIP3    H268562   2.639   1.238 102.861 -0.9067 -0.1092  0.4278
15691TIP3   OH268563   1.519   0.560  26.936  0.3807 -0.2238 -0.6316
15691TIP3    H168564   1.532   0.644  26.891  0.8591 -0.2708 -0.5889
15691TIP3    H268565   1.434   0.569  26.979  0.7770  0.5467  0.0314
15692TIP3   OH268566   1.985   0.504   8.021 -0.1413 -0.1693 -0.1052
15692TIP3    H168567   1.927   0.436   8.055 -0.8461  0.6696  0.4264
15692TIP3    H268568   2.053   0.514   8.088  0.3672 -0.8316 -0.5132
15693TIP3   OH268569   0.497   2.455  27.942 -0.1542 -0.4238  0.1616
15693TIP3    H168570   0.506   2.530  28.001 -1.0085  1.5013 -2.0048
15693TIP3    H268571   0.578   2.455  27.890 -0.3503 -0.7318 -0.1521
15694TIP3   OH268572   0.159   1.192  76.647  0.0339 -0.2477  0.0447
15694TIP3    H168573   0.071   1.220  76.619 -0.0466 -1.6246 -1.1828
15694TIP3    H268574   0.153   1.097  76.653  1.2437 -0.3042  0.7591
15695TIP3   OH268575   1.741   2.252  76.074 -0.4999 -0.4204  0.0567
15695TIP3    H168576   1.822   2.295  76.046  0.6540 -3.0887 -1.0622
15695TIP3    H268577   1.676   2.277  76.008  0.1322 -0.3504 -0.5537
15696TIP3   OH268578   1.472   1.774  10.502  0.0298  0.0765  0.1868
15696TIP3    H168579   1.447   1.765  10.594  0.0472  2.5058  0.4906
15696TIP3    H268580   1.562   1.742  10.499 -0.6930 -2.1768  0.4916
15697TIP3   OH268581   1.859   0.727  95.186  0.0417  0.2139 -0.4099
15697TIP3    H168582   1.834   0.806  95.233  3.1749  0.8437  0.4268
15697TIP3    H268583   1.881   0.757  95.098  0.3005  0.0866 -0.3895
15698TIP3   OH268584   1.587   2.418  90.341 -0.2291  0.1658  0.3512
15698TIP3    H168585   1.681   2.413  90.320 -0.8034 -1.0784 -2.4156
15698TIP3    H268586   1.579   2.373  90.425  1.9852  3.1273  2.3918
15699TIP3   OH268587   0.580   0.096 107.377  0.5089  0.0631 -0.0227
15699TIP3    H168588   0.555   0.174 107.327 -1.1382 -0.0120  0.6340
15699TIP3    H268589   0.554   0.023 107.322  2.1890 -0.0665 -0.7051
15700TIP3   OH268590   0.461   2.513 100.187  0.0278  0.5016  0.4607
15700TIP3    H168591   0.434   2.605 100.198 -1.3928  0.1085  0.4747
15700TIP3    H268592   0.487   2.485 100.274  0.9767  1.0405  0.3576
15701TIP3   OH268593   0.355   1.068  28.986 -0.0486 -0.3684  0.6596
15701TIP3    H168594   0.378   0.998  28.925 -0.7510 -0.0309 -0.0032
15701TIP3    H268595   0.336   1.024  29.068  0.9906 -0.8245  0.6732
15702TIP3   OH268596   1.937   0.673  94.537 -0.1920 -0.4061  0.2270
15702TIP3    H168597   1.918   0.665  94.443 -0.2789 -0.4421  0.2449
15702TIP3    H268598   2.033   0.669  94.542 -0.1436  0.2909  0.0691
15703TIP3   OH268599   2.682   0.431  34.370  0.1014  0.2017 -0.3597
15703TIP3    H168600   2.750   0.447  34.435  1.0985 -0.7967 -1.1196
15703TIP3    H268601   2.722   0.454  34.286 -0.0779 -1.4262 -0.9366
15704TIP3   OH268602   2.522   0.828  24.718  0.3157  0.2594  0.1724
15704TIP3    H168603   2.550   0.737  24.720  1.4759  0.6107  0.6724
15704TIP3    H268604   2.431   0.826  24.747 -0.5271 -1.0073 -2.2649
15705TIP3   OH268605   2.128   1.579 101.118  0.3893  0.1210 -0.3398
15705TIP3    H168606   2.123   1.491 101.081 -0.2646  0.6779 -1.6166
15705TIP3    H268607   2.219   1.606 101.102  0.8986 -0.6820  0.9904
15706TIP3   OH268608   0.700   0.412  79.493  0.1006  0.6017 -0.2850
15706TIP3    H168609   0.647   0.471  79.440  1.1147  0.1483 -1.8853
15706TIP3    H268610   0.707   0.333  79.440 -0.2202 -0.5130  1.2852
15707TIP3   OH268611   0.053   0.560  23.677  0.0039  0.2468 -0.8585
15707TIP3    H168612  -0.039   0.582  23.693 -0.4565 -2.1503  0.3621
15707TIP3    H268613   0.093   0.561  23.763  0.8282  0.0434 -1.2317
15708TIP3   OH268614   0.163   0.531   4.578 -0.2308  0.5225  0.4129
15708TIP3    H168615   0.076   0.498   4.599  0.2616 -1.1596 -0.0461
15708TIP3    H268616   0.148   0.618   4.541 -1.6378  0.5627  1.0489
15709TIP3   OH268617   1.460   1.729  94.102 -0.1576 -0.4406 -0.3695
15709TIP3    H168618   1.366   1.724  94.090 -0.1664 -0.4983 -0.2856
15709TIP3    H268619   1.473   1.802  94.162 -0.2218 -1.0161  0.3649
15710TIP3   OH268620   1.465   1.560  16.425  0.7700  0.2993 -0.4182
15710TIP3    H168621   1.475   1.467  16.445 -0.2279  0.3552  0.4077
15710TIP3    H268622   1.378   1.567  16.387  1.1750  0.7823 -1.2808
15711TIP3   OH268623   1.651   0.944  15.272  0.4350  0.1452 -0.0878
15711TIP3    H168624   1.641   0.849  15.271  1.0114  0.0572  0.6446
15711TIP3    H268625   1.579   0.977  15.220 -0.6310 -0.6347  0.8402
15712TIP3   OH268626   0.261   2.632  79.754  0.2483  0.2787  0.1685
15712TIP3    H168627   0.173   2.668  79.740 -0.1555  0.2105  2.2494
15712TIP3    H268628   0.297   2.623  79.666 -1.3347  1.5326 -0.6662
15713TIP3   OH268629   2.111   0.070  78.886 -0.8028 -0.2247  0.4900
15713TIP3    H168630   2.046   0.106  78.946 -0.9458 -1.3884  1.0648
15713TIP3    H268631   2.059   0.026  78.818 -0.7411  2.9609 -1.8565
15714TIP3   OH268632   1.048   0.705  77.059  0.4032  0.0277 -0.3449
15714TIP3    H168633   1.060   0.798  77.038 -1.5259 -0.0522 -2.0127
15714TIP3    H268634   1.027   0.705  77.153  0.6521  1.2469 -0.2655
15715TIP3   OH268635   0.787   0.798  33.093  0.2075  0.0474 -0.0721
15715TIP3    H168636   0.840   0.742  33.036 -1.1520 -1.5149  0.1128
15715TIP3    H268637   0.841   0.810  33.172  0.0858 -2.0345  0.3761
15716TIP3   OH268638   0.031   0.443  96.084  0.3426  0.5126  0.0609
15716TIP3    H168639   0.101   0.465  96.022  1.6576  1.0927  1.6515
15716TIP3    H268640   0.046   0.503  96.157 -1.0872 -0.2139  0.9752
15717TIP3   OH268641   2.432   1.249  13.020  0.1015 -0.1751  0.3834
15717TIP3    H168642   2.382   1.330  13.029 -0.9277 -0.6073 -1.1468
15717TIP3    H268643   2.402   1.210  12.938  1.3061 -1.6139  0.5676
15718TIP3   OH268644   0.040   1.276  21.838  0.4446 -0.0734 -0.2127
15718TIP3    H168645  -0.052   1.304  21.835 -0.2597 -2.0613  0.5600
15718TIP3    H268646   0.065   1.265  21.747 -0.3240 -0.1850 -0.4167
15719TIP3   OH268647   2.393   1.166  28.190 -0.0946  0.0494  0.1970
15719TIP3    H168648   2.381   1.118  28.108  0.2688  0.3126 -0.0122
15719TIP3    H268649   2.462   1.117  28.236 -0.3714 -0.1584  0.3929
15720TIP3   OH268650   1.717   2.572  11.711 -0.0815  0.3078  0.5300
15720TIP3    H168651   1.762   2.623  11.643 -1.4715  2.1410  0.9064
15720TIP3    H268652   1.624   2.582  11.691 -0.4394 -0.7943  1.5556
15721TIP3   OH268653   1.364   1.269  35.299 -0.4572 -0.7564  0.4016
15721TIP3    H168654   1.286   1.227  35.335 -1.0074 -1.1281 -1.1593
15721TIP3    H268655   1.344   1.363  35.301 -0.6232 -0.7966  0.6901
15722TIP3   OH268656   1.053   0.130  35.785 -0.5612  0.0628  0.1692
15722TIP3    H168657   1.019   0.080  35.858 -0.7058  1.5014  1.1363
15722TIP3    H268658   1.026   0.081  35.707 -0.2117 -1.6122  1.0613
15723TIP3   OH268659   1.214   0.495  90.732  0.0356  0.6267 -0.1093
15723TIP3    H168660   1.124   0.465  90.750  0.4397 -0.9956 -0.5860
15723TIP3    H268661   1.217   0.584  90.767 -1.8243  0.8022 -0.2765
15724TIP3   OH268662   1.004   0.236  23.340  0.3369  0.3188 -0.7265
15724TIP3    H168663   0.961   0.203  23.418  1.9977  1.9424  0.9701
15724TIP3    H268664   0.932   0.269  23.285 -0.7582  0.6230  0.8372
15725TIP3   OH268665   2.219   2.678  97.611  0.4589 -0.6419 -0.0247
15725TIP3    H168666   2.135   2.636  97.592  0.3157 -0.5806  0.4777
15725TIP3    H268667   2.238   2.655  97.702  2.0048 -2.3968 -0.7296
15726TIP3   OH268668   1.346   0.550   7.522  0.0316  0.1184 -0.1816
15726TIP3    H168669   1.430   0.541   7.566  0.2763  0.7111 -0.5031
15726TIP3    H268670   1.284   0.502   7.577  0.6458 -0.6564 -0.1499
15727TIP3   OH268671   0.401   0.413   2.130 -0.0389 -0.2085 -0.1642
15727TIP3    H168672   0.398   0.397   2.036  0.3362 -1.1336 -0.0235
15727TIP3    H268673   0.472   0.476   2.142  0.7653 -1.0747 -0.3634
15728TIP3   OH268674   1.729   1.735  36.334 -0.7169 -0.0739  0.0295
15728TIP3    H168675   1.776   1.706  36.412 -1.0720  0.3058  0.3923
15728TIP3    H268676   1.639   1.747  36.364 -1.4183 -2.2942 -1.0097
15729TIP3   OH268677   1.432   1.596  76.798  0.6492 -0.4479  0.2576
15729TIP3    H168678   1.501   1.662  76.806 -0.2459  0.5433  0.0060
15729TIP3    H268679   1.444   1.559  76.711  1.8544 -1.4577  0.8126
15730TIP3   OH268680   1.325   1.875 102.658  0.1750  0.4460  0.2859
15730TIP3    H168681   1.274   1.794 102.667  0.3727  0.2928  0.0429
15730TIP3    H268682   1.311   1.902 102.568  1.6368 -0.3653 -0.2277
15731TIP3   OH268683   0.683   2.574   2.671  0.0001 -0.1157  0.1158
15731TIP3    H168684   0.740   2.499   2.653 -1.3856 -1.3288  0.6011
15731TIP3    H268685   0.686   2.626   2.591  2.0653  0.0838  0.2523
15732TIP3   OH268686   0.346   0.239  93.684  0.2424  0.1876  0.2626
15732TIP3    H168687   0.406   0.167  93.666 -0.0481 -0.3749  1.4006
15732TIP3    H268688   0.313   0.221  93.773  1.0309  2.3280  1.0538
15733TIP3   OH268689   1.425   1.970 109.264  0.7586 -0.1721  0.4318
15733TIP3    H168690   1.504   2.023 109.256  0.3308  0.3469 -0.5045
15733TIP3    H268691   1.370   1.997 109.190  0.1101 -1.2156  0.5092
15734TIP3   OH268692   0.853   2.191  67.888  0.3987  0.5339 -0.7591
15734TIP3    H168693   0.919   2.177  67.820 -0.4703 -2.1715 -1.1576
15734TIP3    H268694   0.880   2.134  67.960 -1.2739 -0.3501 -0.7898
15735TIP3   OH268695   0.878   2.213 104.267  0.1511  0.2231 -0.4577
15735TIP3    H168696   0.903   2.130 104.227  2.2429  1.3563 -1.6871
15735TIP3    H268697   0.891   2.279 104.198 -1.6647  1.5837  0.3942
15736TIP3   OH268698   1.222   0.155   8.205 -0.0653 -0.6317  0.5723
15736TIP3    H168699   1.301   0.129   8.252  0.8812  1.2481  0.1597
15736TIP3    H268700   1.227   0.251   8.203 -0.6800 -0.5761 -2.2634
15737TIP3   OH268701   1.292   1.903  80.825 -0.2101  0.1340  0.3499
15737TIP3    H168702   1.259   1.916  80.736  0.5252  1.5563  0.2551
15737TIP3    H268703   1.376   1.949  80.826  1.8805 -3.4023  0.5600
15738TIP3   OH268704   2.127   0.147  94.520  0.1040  0.2214 -0.0896
15738TIP3    H168705   2.201   0.146  94.580  0.2558  0.7707 -0.2570
15738TIP3    H268706   2.167   0.144  94.433 -0.0091  1.4923 -0.2051
15739TIP3   OH268707   0.444   1.385  79.762  0.1542  0.2969 -0.0887
15739TIP3    H168708   0.501   1.455  79.795 -0.8388  1.3726 -0.5865
15739TIP3    H268709   0.412   1.418  79.678  0.0444 -0.9856 -0.5743
15740TIP3   OH268710   2.567   1.079  74.514  0.4547 -0.4207  0.4322
15740TIP3    H168711   2.543   1.125  74.433 -1.1393 -1.8321  0.0595
15740TIP3    H268712   2.508   1.117  74.580  1.1682  0.1231  0.7735
15741TIP3   OH268713   1.896   0.400  74.442  0.4154  0.1833 -0.1118
15741TIP3    H168714   1.887   0.368  74.532  0.9939 -0.0091 -0.1213
15741TIP3    H268715   1.878   0.323  74.387  1.5590 -0.0737 -0.1425
15742TIP3   OH268716   0.440   2.229  63.393  1.2404  0.4767  0.7483
15742TIP3    H168717   0.382   2.179  63.450  1.0756  0.9212  0.9742
15742TIP3    H268718   0.400   2.223  63.307  1.0013  0.5559  0.8531
15743TIP3   OH268719   0.486   1.687  17.171 -0.2300 -0.2102  0.3114
15743TIP3    H168720   0.469   1.596  17.195  2.2078 -0.2589  2.1457
15743TIP3    H268721   0.428   1.738  17.228  0.8956 -0.5390  1.7881
15744TIP3   OH268722   0.245   1.509  83.980  0.1105 -0.1713 -0.2328
15744TIP3    H168723   0.173   1.527  84.041  1.0215  0.2123  0.7620
15744TIP3    H268724   0.220   1.554  83.900 -1.0016 -0.4846 -0.0805
15745TIP3   OH268725   2.453   2.123 108.148 -0.3249  0.0028  0.1087
15745TIP3    H168726   2.474   2.204 108.194  1.1802 -0.6422  0.6392
15745TIP3    H268727   2.409   2.069 108.213 -1.0678  0.2743 -0.1640
15746TIP3   OH268728   0.221   1.162  29.992 -0.1326 -0.2406 -0.2853
15746TIP3    H168729   0.220   1.066  29.996 -1.9224 -0.2903 -0.8648
15746TIP3    H268730   0.233   1.190  30.082  1.5205 -0.9720 -0.2303
15747TIP3   OH268731   0.911   0.273  10.707 -0.3375 -0.1629 -0.6707
15747TIP3    H168732   0.851   0.237  10.773 -0.6862  0.6392 -0.5388
15747TIP3    H268733   0.888   0.366  10.702 -0.8879 -0.3532 -2.5275
15748TIP3   OH268734   0.636   0.840  20.932  0.2847  0.3995 -0.1254
15748TIP3    H168735   0.683   0.901  20.875 -0.5537 -1.0595 -2.5082
15748TIP3    H268736   0.703   0.778  20.961  0.4122  0.1121 -1.0066
15749TIP3   OH268737   0.699   0.835   8.978  0.2833  0.5851  0.2319
15749TIP3    H168738   0.735   0.804   9.061  0.0683 -0.5392 -0.0683
15749TIP3    H268739   0.744   0.782   8.911 -0.8669  0.1561 -0.2343
15750TIP3   OH268740   2.031   1.984   3.596  0.3431 -0.3500 -0.1543
15750TIP3    H168741   2.074   2.070   3.598  1.5286 -0.9178  2.5711
15750TIP3    H268742   1.939   2.004   3.577  0.8205  1.3725 -0.8677
15751TIP3   OH268743   1.916   0.601  80.755  0.0786  0.2107 -0.7939
15751TIP3    H168744   1.943   0.531  80.814  0.5323  0.3644 -0.8154
15751TIP3    H268745   1.957   0.579  80.671  1.0836  1.0353 -0.5427
15752TIP3   OH268746   1.521   1.760  31.564  0.1493  0.2545  0.1542
15752TIP3    H168747   1.525   1.766  31.660 -1.1117 -0.3829  0.2599
15752TIP3    H268748   1.591   1.699  31.541  0.6455  0.6259  0.6378
15753TIP3   OH268749   2.584   2.137  87.308 -0.0099  0.1889 -0.3328
15753TIP3    H168750   2.670   2.180  87.314  0.1251  0.0411 -1.1958
15753TIP3    H268751   2.524   2.200  87.348  0.8223 -0.7580  2.7000
15754TIP3   OH268752   2.503   1.321  23.745  0.1843  0.5858 -0.3217
15754TIP3    H168753   2.583   1.374  23.747  0.3153  0.4078 -0.6850
15754TIP3    H268754   2.440   1.370  23.798  0.3607  1.0120 -0.4977
15755TIP3   OH268755   2.129   1.744  12.413 -0.0793  0.2391 -0.1457
15755TIP3    H168756   2.051   1.777  12.458  0.3690  0.2942  0.6263
15755TIP3    H268757   2.096   1.681  12.349 -0.9309  1.8490 -1.3551
15756TIP3   OH268758   0.366   0.807  23.185  0.6088  0.0120 -0.1245
15756TIP3    H168759   0.287   0.847  23.150 -0.1821  0.6694  2.2757
15756TIP3    H268760   0.368   0.720  23.145 -1.8957 -0.4128  0.4868
15757TIP3   OH268761   1.773   1.982  24.017  0.2907 -0.0624 -0.1661
15757TIP3    H168762   1.730   1.943  24.093  0.0750  0.3448 -0.0729
15757TIP3    H268763   1.736   1.936  23.942  0.0971 -0.0954 -0.0518
15758TIP3   OH268764   1.624   0.313  93.000 -0.0137  0.4059  0.6343
15758TIP3    H168765   1.694   0.377  93.006  0.4787  0.0744 -1.0397
15758TIP3    H268766   1.552   0.351  93.051  0.6604  1.7274  0.6313
15759TIP3   OH268767   0.380   1.731  63.323  0.5097  0.3342 -0.1364
15759TIP3    H168768   0.473   1.741  63.305  0.9413 -0.7680  1.3118
15759TIP3    H268769   0.375   1.709  63.416 -0.9885 -2.0858 -0.6851
15760TIP3   OH268770   0.020   2.249   0.277 -0.0438  0.1253 -0.2743
15760TIP3    H168771   0.045   2.308   0.347 -0.1938 -0.3144  0.1550
15760TIP3    H268772  -0.043   2.299   0.225 -0.5210  0.1936  0.3501
15761TIP3   OH268773   0.639   1.966  14.367  0.3626  0.0946  0.3647
15761TIP3    H168774   0.546   1.981  14.352  0.5356  1.8651  0.7584
15761TIP3    H268775   0.647   1.872  14.381 -1.1416 -0.2985 -1.1069
15762TIP3   OH268776   1.159   1.278  53.736 -0.6665  0.1346 -0.0153
15762TIP3    H168777   1.223   1.349  53.742  0.4848 -0.8272 -0.3958
15762TIP3    H268778   1.210   1.203  53.705 -2.2023 -0.3992 -1.4017
15763TIP3   OH268779   0.527   0.031 108.825  0.5889  0.3762  0.0728
15763TIP3    H168780   0.443   0.009 108.867  1.1667  1.8744  2.1617
15763TIP3    H268781   0.514   0.006 108.734 -1.4542 -1.2133  0.6994
15764TIP3   OH268782   0.298   2.637  89.364  0.1923  0.5757 -0.0075
15764TIP3    H168783   0.250   2.712  89.397  0.4889  0.4049  0.8411
15764TIP3    H268784   0.235   2.591  89.308 -0.8877 -0.0392  1.6474
15765TIP3   OH268785   0.056   1.337 100.208 -0.5827 -0.3047 -0.2669
15765TIP3    H168786   0.150   1.334 100.191 -0.2329  1.1977  1.1118
15765TIP3    H268787   0.016   1.302 100.129  1.1324 -1.5253 -0.6557
15766TIP3   OH268788   0.884   1.423 106.430 -0.1830 -1.0570 -0.2026
15766TIP3    H168789   0.879   1.412 106.335 -0.3525 -0.1937 -0.3111
15766TIP3    H268790   0.923   1.510 106.442 -0.6126 -0.9530  0.5119
15767TIP3   OH268791   0.447   1.533  31.606 -0.7317  0.4088  0.3186
15767TIP3    H168792   0.524   1.495  31.563 -2.1301 -1.6717 -0.5065
15767TIP3    H268793   0.477   1.617  31.640  1.8787 -0.3016 -0.0389
15768TIP3   OH268794   0.307   0.864  11.524  0.2417 -0.0662  0.3664
15768TIP3    H168795   0.351   0.802  11.583  0.3183  0.2391  0.6303
15768TIP3    H268796   0.331   0.834  11.436  0.4220 -0.3073  0.4950
15769TIP3   OH268797   1.259   0.488 108.003 -0.5095  0.5188  0.2179
15769TIP3    H168798   1.251   0.552 107.934  1.1086 -0.4292 -0.9203
15769TIP3    H268799   1.189   0.510 108.065 -1.0895  2.2573 -0.9811
15770TIP3   OH268800   0.236   0.029   3.066 -0.2894  0.2882  0.3971
15770TIP3    H168801   0.201  -0.057   3.044 -2.2285  0.7291  1.4404
15770TIP3    H268802   0.250   0.072   2.982  0.6295 -1.0037 -0.1315
15771TIP3   OH268803   0.757   0.660  88.482 -0.0261 -0.1882  0.3086
15771TIP3    H168804   0.849   0.643  88.503 -0.2896 -1.6476  0.3620
15771TIP3    H268805   0.710   0.640  88.563 -0.4034  0.6142  0.3021
15772TIP3   OH268806   2.551   0.639 102.397  0.2756  0.3931 -0.3994
15772TIP3    H168807   2.472   0.602 102.435 -0.3911  1.1343 -1.0437
15772TIP3    H268808   2.592   0.688 102.469 -0.1433  0.4796 -0.2180
15773TIP3   OH268809   1.017   1.720  36.748  0.6349  0.2650 -0.2766
15773TIP3    H168810   1.049   1.670  36.823 -0.8687 -0.3600 -0.0105
15773TIP3    H268811   1.089   1.718  36.685  0.7986 -1.8678 -0.0936
15774TIP3   OH268812   1.008   2.454  92.407 -0.5408 -0.0706 -0.5721
15774TIP3    H168813   0.972   2.382  92.356 -0.1283  0.3980 -1.5508
15774TIP3    H268814   0.933   2.489  92.455 -0.8580 -0.7528 -0.5576
15775TIP3   OH268815   2.515   1.240  10.935 -0.1396  0.0755 -0.1544
15775TIP3    H168816   2.579   1.169  10.945  0.2951  0.4060 -0.5479
15775TIP3    H268817   2.430   1.197  10.946  0.0975 -0.5975 -0.8649
15776TIP3   OH268818   1.676   0.552  81.852  0.2171  0.2185 -1.0790
15776TIP3    H168819   1.631   0.491  81.794 -2.0307 -2.2477  2.7707
15776TIP3    H268820   1.620   0.630  81.854 -0.0038  0.0774 -1.7294
15777TIP3   OH268821   2.129   0.626 101.751  0.4031 -0.5838  0.0353
15777TIP3    H168822   2.110   0.584 101.834  0.1124  0.2578  0.4053
15777TIP3    H268823   2.092   0.714 101.759  0.2491 -0.5295 -1.0284
15778TIP3   OH268824   2.072   0.853  12.215  0.0165  0.7779  0.1282
15778TIP3    H168825   2.036   0.799  12.285  1.8155  0.4890  0.9001
15778TIP3    H268826   2.123   0.792  12.161 -0.2858  1.2265 -0.6876
15779TIP3   OH268827   1.422   2.406   4.343  0.5072  0.1078 -0.0576
15779TIP3    H168828   1.406   2.499   4.326  0.9973  0.1925 -0.0493
15779TIP3    H268829   1.335   2.371   4.361  0.4726  0.8724  1.4771
15780TIP3   OH268830   1.610   0.201  26.161 -0.2706 -0.0903 -0.0336
15780TIP3    H168831   1.616   0.107  26.146 -0.6335 -0.2455  0.7226
15780TIP3    H268832   1.543   0.231  26.099 -0.0952 -0.3146 -0.3340
15781TIP3   OH268833   2.175   1.169  97.942  0.1533 -0.2981  0.1523
15781TIP3    H168834   2.163   1.075  97.956 -0.5105 -0.3839 -0.8542
15781TIP3    H268835   2.098   1.209  97.983  0.4409 -0.1960  0.5926
15782TIP3   OH268836   0.399   0.532 100.341  0.1169  0.1302  0.3716
15782TIP3    H168837   0.354   0.450 100.360 -0.6020  0.2120 -0.8852
15782TIP3    H268838   0.472   0.534 100.403 -0.3146 -1.0739  0.9463
15783TIP3   OH268839   0.406   0.902  83.808 -0.4028  0.2722  0.3047
15783TIP3    H168840   0.379   0.965  83.741 -1.3588  0.3559  0.7440
15783TIP3    H268841   0.474   0.948  83.857  0.6065  0.0626 -0.8364
15784TIP3   OH268842   1.249   0.755  14.632 -0.0215  0.3573  0.0561
15784TIP3    H168843   1.285   0.833  14.675  2.0823  0.5841 -1.9248
15784TIP3    H268844   1.190   0.790  14.565  0.4666  0.2468 -0.4388
15785TIP3   OH268845   2.652   1.579  96.503 -0.3088 -0.3116 -0.1648
15785TIP3    H168846   2.586   1.579  96.573  0.4249  0.6413  0.5507
15785TIP3    H268847   2.722   1.636  96.536 -0.3682  0.9543 -2.0891
15786TIP3   OH268848   0.645   1.514   2.141 -0.0138  0.0855 -0.2688
15786TIP3    H168849   0.649   1.527   2.236 -0.9952 -2.5774  0.2145
15786TIP3    H268850   0.692   1.590   2.104  0.9372  0.8616  2.3315
15787TIP3   OH268851   0.422   0.854 100.043 -0.2370 -0.2139  0.0464
15787TIP3    H168852   0.510   0.841 100.079 -0.0852 -1.5616 -0.7143
15787TIP3    H268853   0.363   0.837 100.117  0.1119  2.7749  1.1281
15788TIP3   OH268854   0.530   2.068  32.271 -0.0870 -0.0290 -0.5576
15788TIP3    H168855   0.536   2.081  32.176  1.1942 -0.5935 -0.5653
15788TIP3    H268856   0.619   2.079  32.303 -0.5027  0.1164  0.5867
15789TIP3   OH268857   2.016   2.597 105.743 -0.1999 -0.4256  0.4115
15789TIP3    H168858   1.960   2.666 105.708  0.4405  0.2052  0.5989
15789TIP3    H268859   1.968   2.516 105.728 -1.2568  0.1240  0.7567
15790TIP3   OH268860   2.397   1.983  13.914  0.1582  0.5790 -0.2385
15790TIP3    H168861   2.343   1.929  13.971 -0.2326  0.5755 -0.6088
15790TIP3    H268862   2.412   2.064  13.964  0.2942  0.3505  0.0943
15791TIP3   OH268863   2.316   2.150  89.436 -0.5695  0.4462  0.2071
15791TIP3    H168864   2.381   2.216  89.461  0.1202 -0.8336  2.0207
15791TIP3    H268865   2.233   2.183  89.472 -0.2289  0.3607  1.1118
15792TIP3   OH268866   0.225   0.117  43.142  0.9817  0.4738 -0.3485
15792TIP3    H168867   0.284   0.122  43.068  0.2399  4.2981 -0.8787
15792TIP3    H268868   0.138   0.103  43.103  0.8558  0.3832 -0.0408
15793TIP3   OH268869   0.526   0.662   4.396 -0.0638  0.1413  0.0928
15793TIP3    H168870   0.513   0.739   4.452  0.7821 -0.9083  1.8151
15793TIP3    H268871   0.594   0.611   4.441  0.7229 -0.7215 -1.9626
15794TIP3   OH268872   1.312   1.599  92.111  0.0403  0.0538 -0.0808
15794TIP3    H168873   1.371   1.647  92.054 -0.1235  0.9580  0.4981
15794TIP3    H268874   1.359   1.518  92.131 -0.4322 -0.9022 -2.5056
15795TIP3   OH268875   2.396   0.376  91.653  0.2245 -0.2797  0.0946
15795TIP3    H168876   2.451   0.303  91.683 -1.7770 -2.1001 -0.4571
15795TIP3    H268877   2.407   0.443  91.721  1.7184 -1.2775  0.8991
15796TIP3   OH268878   1.153   1.944 105.910  0.1354 -0.0339 -0.3555
15796TIP3    H168879   1.238   1.963 105.951  0.6204 -1.0296 -0.8701
15796TIP3    H268880   1.117   2.031 105.890  0.6208  0.4268  0.6805
15797TIP3   OH268881   0.376   2.029  90.995 -0.2095  0.5608  0.1269
15797TIP3    H168882   0.321   2.059  90.923  1.5722  2.2433 -0.6052
15797TIP3    H268883   0.445   1.978  90.953  0.2870  0.6998  0.7611
15798TIP3   OH268884   0.601   0.627  34.553 -0.0430 -0.0301 -0.1775
15798TIP3    H168885   0.675   0.682  34.576 -1.2236  1.3389  0.4900
15798TIP3    H268886   0.530   0.656  34.610 -1.8574  0.5285 -2.5078
15799TIP3   OH268887   2.139   0.069   2.454 -0.3739 -0.0631  0.1890
15799TIP3    H168888   2.123   0.161   2.434  1.1791  0.4229  0.9694
15799TIP3    H268889   2.224   0.051   2.414  0.9703 -0.1479  2.8582
15800TIP3   OH268890   0.313   0.555 106.247 -0.6107 -0.0279 -0.4114
15800TIP3    H168891   0.391   0.541 106.300  2.3915  0.8287 -4.1834
15800TIP3    H268892   0.274   0.635 106.282  1.4202  0.6961  0.3662
15801TIP3   OH268893   1.527   2.621   5.849  0.0423 -0.1331 -0.8005
15801TIP3    H168894   1.600   2.610   5.787 -0.2910 -0.6924 -1.1025
15801TIP3    H268895   1.564   2.598   5.934  0.2735 -0.1993 -0.9188
15802TIP3   OH268896   0.761   1.386  19.838  0.1410  0.2914  0.5800
15802TIP3    H168897   0.821   1.313  19.848 -1.0891 -0.8991 -0.4619
15802TIP3    H268898   0.789   1.430  19.758 -1.0868 -1.0459 -0.6564
15803TIP3   OH268899   0.796   1.798   4.085 -0.2608 -0.6154 -0.6110
15803TIP3    H168900   0.879   1.831   4.052 -0.5175  0.1750 -0.5016
15803TIP3    H268901   0.730   1.849   4.037 -0.6443 -0.0147  0.5162
15804TIP3   OH268902   0.203   1.948  86.930  0.3827  0.2756 -0.0118
15804TIP3    H168903   0.287   1.986  86.905  0.8591 -1.1386 -0.6325
15804TIP3    H268904   0.140   2.019  86.917  1.2305  0.8346 -1.2270
15805TIP3   OH268905   0.630   2.406 105.498  0.0052 -0.3960 -0.0186
15805TIP3    H168906   0.586   2.324 105.477 -0.5057 -0.4565  1.2259
15805TIP3    H268907   0.559   2.470 105.503  0.4814  0.3454 -1.8564
15806TIP3   OH268908   0.108   0.147  19.291  0.3677 -0.0372 -0.3490
15806TIP3    H168909   0.115   0.052  19.289 -1.1989 -0.2672  1.6655
15806TIP3    H268910   0.043   0.167  19.224  0.3120 -0.4494 -0.4217
15807TIP3   OH268911   0.712   0.280  87.989  0.4082  0.0310 -0.4194
15807TIP3    H168912   0.640   0.232  88.028  0.2077  0.0712 -0.7453
15807TIP3    H268913   0.768   0.304  88.064  0.9609 -1.4277 -0.3360
15808TIP3   OH268914   0.619   2.136 103.343 -0.2955 -0.1470  0.1379
15808TIP3    H168915   0.638   2.078 103.417  3.0964 -2.0365 -1.9210
15808TIP3    H268916   0.687   2.204 103.349 -1.6601  1.2531  0.1846
15809TIP3   OH268917   0.715   1.850  28.031  0.0858  0.2650 -0.5347
15809TIP3    H168918   0.669   1.802  28.100 -1.1356 -0.0244 -1.4999
15809TIP3    H268919   0.675   1.937  28.032  0.2829  0.3575 -0.6668
15810TIP3   OH268920   2.621   1.530  12.189  0.3282  0.3196  0.7624
15810TIP3    H168921   2.581   1.454  12.231 -0.3308  0.9676  1.3423
15810TIP3    H268922   2.679   1.567  12.255  0.6515  0.3198  0.4818
15811TIP3   OH268923   2.139   2.070  83.433  1.0258 -0.0352 -0.0704
15811TIP3    H168924   2.099   2.100  83.515  2.3054  2.2591 -0.1871
15811TIP3    H268925   2.130   1.975  83.435 -1.6866  0.1584  1.2746
15812TIP3   OH268926   0.189   2.386 104.208 -0.4411 -0.3689  0.1180
15812TIP3    H168927   0.135   2.348 104.278 -0.6256  3.3855  2.3028
15812TIP3    H268928   0.260   2.430 104.255 -0.2958  1.9153 -2.0653
15813TIP3   OH268929   0.177   1.507  82.924 -0.1490  0.2774 -0.3488
15813TIP3    H168930   0.204   1.454  82.849 -1.2352  0.0726 -0.6112
15813TIP3    H268931   0.100   1.462  82.959 -1.1805  1.7208 -0.6465
15814TIP3   OH268932   2.325   1.276 109.427 -0.0696 -0.2679  0.3845
15814TIP3    H168933   2.359   1.205 109.372 -2.6232 -0.7465 -0.7137
15814TIP3    H268934   2.247   1.239 109.467 -0.3149  1.3075  1.4050
15815TIP3   OH268935   0.776   2.424   3.041  0.0652 -0.0621  0.1934
15815TIP3    H168936   0.820   2.502   3.009 -0.2136  0.4524  1.0561
15815TIP3    H268937   0.780   2.429   3.136  0.5041 -1.3675  0.2695
15816TIP3   OH268938   1.034   2.191  21.530  0.1918  0.3524 -0.1469
15816TIP3    H168939   0.967   2.127  21.556  0.5717  1.1623  3.3213
15816TIP3    H268940   1.055   2.168  21.440 -1.3887 -2.9157  0.1604
15817TIP3   OH268941   2.073   1.337 101.015  0.1865  0.0206 -1.2029
15817TIP3    H168942   2.043   1.312 101.102  0.4495  1.8398 -0.5539
15817TIP3    H268943   2.138   1.270 100.992  0.3819 -0.2744  0.1443
15818TIP3   OH268944   2.366   1.414 111.530  0.5479 -0.4143 -0.0036
15818TIP3    H168945   2.272   1.403 111.545  0.6923 -1.7146  0.1318
15818TIP3    H268946   2.397   1.325 111.514  1.8696 -0.0742  0.5886
15819TIP3   OH268947   1.763   0.034 105.266  0.5956  0.1725 -0.0639
15819TIP3    H168948   1.821  -0.009 105.204  0.8902  0.3464  0.0912
15819TIP3    H268949   1.776   0.128 105.250 -0.6251  0.2226 -0.9541
15820TIP3   OH268950   1.786   0.211 104.511 -0.2895 -0.0666  0.3746
15820TIP3    H168951   1.712   0.152 104.529  0.0434 -0.5905  0.0627
15820TIP3    H268952   1.822   0.179 104.429 -0.7782  1.2773 -0.3843
15821TIP3   OH268953   1.476   2.617  20.064  0.1981 -0.1083  0.0501
15821TIP3    H168954   1.390   2.621  20.105  0.3560  2.3082  0.3316
15821TIP3    H268955   1.465   2.664  19.981  1.3439  0.7790  0.3686
15822TIP3   OH268956   0.318   1.847 102.814  0.2529  0.5808  0.0770
15822TIP3    H168957   0.301   1.917 102.751 -2.2868  0.2754  0.3399
15822TIP3    H268958   0.280   1.769 102.774  0.8025 -0.1380  0.9151
15823TIP3   OH268959   0.669   2.058  75.103  0.5257  0.0250 -0.1685
15823TIP3    H168960   0.583   2.100  75.104 -0.1590 -1.3102  0.6361
15823TIP3    H268961   0.680   2.024  75.192  1.8389  0.0588 -0.3032
15824TIP3   OH268962   2.015   1.564  93.057 -0.3765  0.5515  0.2159
15824TIP3    H168963   2.001   1.472  93.035  1.1527  0.6455 -1.3204
15824TIP3    H268964   1.964   1.612  92.992  1.2171  0.7958 -0.8905
15825TIP3   OH268965   0.425   0.338  99.822  0.0178 -0.1947 -0.4131
15825TIP3    H168966   0.519   0.333  99.805 -0.0860  1.0036 -1.4853
15825TIP3    H268967   0.389   0.259  99.783  0.6553 -1.0870  0.7395
15826TIP3   OH268968   2.388   1.607  20.398  0.3863 -0.1137 -0.3511
15826TIP3    H168969   2.328   1.579  20.329 -0.0214 -2.4463  0.8364
15826TIP3    H268970   2.475   1.595  20.359  0.1557  0.7407 -1.1757
15827TIP3   OH268971   0.103   2.660  69.266  0.2780 -1.3340  0.1128
15827TIP3    H168972   0.064   2.574  69.255 -3.3956 -0.1796  2.2691
15827TIP3    H268973   0.136   2.660  69.356 -0.5676 -0.2668  0.4418
15828TIP3   OH268974   0.972   0.433 103.684 -0.1817 -0.4854  0.4099
15828TIP3    H168975   0.976   0.393 103.771 -1.5971  1.7739  1.6059
15828TIP3    H268976   1.059   0.472 103.672 -0.1001 -0.4801  0.9716
15829TIP3   OH268977   2.248   0.543  88.405  0.3622 -0.3718  0.2841
15829TIP3    H168978   2.272   0.451  88.418 -1.0515 -1.5793 -4.1150
15829TIP3    H268979   2.317   0.577  88.348  0.4379  1.1507  1.2442
15830TIP3   OH268980   2.500   0.938  84.552 -0.6792 -0.1509  0.4591
15830TIP3    H168981   2.503   0.844  84.567 -0.6119  0.1398  2.4167
15830TIP3    H268982   2.474   0.946  84.460  1.8811 -2.0748 -0.5604
15831TIP3   OH268983   0.765   2.011  76.289  0.3549  0.0245  0.6213
15831TIP3    H168984   0.833   2.044  76.346  1.5647  0.2952 -0.9104
15831TIP3    H268985   0.781   1.917  76.284  0.6147  0.0878  0.2622
15832TIP3   OH268986   1.493   0.268  79.565  0.0225  0.5543  0.2624
15832TIP3    H168987   1.465   0.278  79.474  0.9765 -0.0588 -0.1237
15832TIP3    H268988   1.412   0.251  79.613 -0.3077 -1.2751 -0.8161
15833TIP3   OH268989   2.002   0.679  78.528 -0.7215 -0.1317  0.2340
15833TIP3    H168990   2.061   0.621  78.575 -0.8503  0.3881  1.0617
15833TIP3    H268991   2.014   0.657  78.436  2.0273  1.1163  0.2117
15834TIP3   OH268992   1.640   2.254  91.118  0.1099  0.7679 -0.0612
15834TIP3    H168993   1.634   2.269  91.212  0.7586 -0.0502  0.1160
15834TIP3    H268994   1.560   2.206  91.097  0.5612 -0.1533  0.2989
15835TIP3   OH268995   2.466   0.867  14.908 -0.3222 -0.1090  0.2004
15835TIP3    H168996   2.395   0.851  14.970  0.3621 -1.4472  0.6976
15835TIP3    H268997   2.482   0.781  14.867  0.5588  0.3134 -0.3836
15836TIP3   OH268998   2.411   0.804  16.614  0.2806  0.4435  0.4146
15836TIP3    H168999   2.447   0.716  16.624  1.6192  0.9072 -0.1538
15836TIP3    H269000   2.417   0.843  16.701 -0.7707 -0.1748  0.7811
15837TIP3   OH269001   1.481   1.987  90.773 -0.1925 -0.1374 -0.3343
15837TIP3    H169002   1.532   1.941  90.707  0.8221 -0.1228  0.4231
15837TIP3    H269003   1.413   2.032  90.723  0.8853  0.3258 -1.4222
15838TIP3   OH269004   2.587   0.946   2.994  0.2269 -0.1461 -0.1755
15838TIP3    H169005   2.513   0.886   2.993 -1.0370  1.3003  0.6920
15838TIP3    H269006   2.616   0.950   2.903 -0.7512 -0.7582 -0.5314
15839TIP3   OH269007   0.033   0.021  42.942 -0.1042 -0.1644  0.0453
15839TIP3    H169008  -0.009  -0.045  42.887  1.7958 -0.4542 -1.1480
15839TIP3    H269009   0.125   0.017  42.918  0.4473  1.2275  1.7346
15840TIP3   OH269010   1.314   0.152  76.229  0.4401  0.2902  0.5377
15840TIP3    H169011   1.243   0.140  76.293 -1.2460  1.6461 -0.9609
15840TIP3    H269012   1.297   0.238  76.191  0.5570 -0.9860 -2.6967
15841TIP3   OH269013   0.842   1.519   1.795 -0.3845 -0.1207  0.1508
15841TIP3    H169014   0.893   1.542   1.717  0.5407  0.9915  1.0562
15841TIP3    H269015   0.785   1.594   1.808  0.7731  0.5458  1.5969
15842TIP3   OH269016   1.059   1.345   6.778 -0.0680  0.5708 -0.6625
15842TIP3    H169017   0.976   1.367   6.736 -0.1811 -0.1654 -0.8383
15842TIP3    H269018   1.053   1.251   6.797 -0.3420  1.0202  1.7244
15843TIP3   OH269019   2.330   0.140  83.952  0.2472  0.4006  0.3241
15843TIP3    H169020   2.339   0.210  83.888  0.9682 -0.5218 -0.6099
15843TIP3    H269021   2.270   0.176  84.018 -1.0556  1.1491 -1.1901
15844TIP3   OH269022   0.839   0.637 107.811 -0.0777 -0.2169  0.0891
15844TIP3    H169023   0.831   0.580 107.735 -0.5599 -0.9553  0.6796
15844TIP3    H269024   0.763   0.616 107.865 -0.7909  1.6444 -0.1108
15845TIP3   OH269025   2.199   2.090 110.504 -0.5064  0.8844 -0.1233
15845TIP3    H169026   2.187   2.076 110.598  2.1060  1.7805  0.4081
15845TIP3    H269027   2.153   2.173 110.486 -2.1946  0.0265  0.0118
15846TIP3   OH269028   1.106   2.161 111.162 -0.4544 -0.1428  0.2109
15846TIP3    H169029   1.149   2.159 111.076  0.4270 -3.3235  0.6248
15846TIP3    H269030   1.168   2.206 111.219  0.7372 -1.4404 -0.0130
15847TIP3   OH269031   0.854   1.204 111.246  0.2205 -0.2720  0.1028
15847TIP3    H169032   0.802   1.251 111.181  1.2978  1.4393  0.4138
15847TIP3    H269033   0.828   1.242 111.330 -0.8603 -2.1707  0.6913
15848TIP3   OH269034   1.081   2.455  47.428  0.1034 -0.2969 -0.1795
15848TIP3    H169035   1.032   2.508  47.491 -0.6355 -1.5038  0.3114
15848TIP3    H269036   1.022   2.447  47.353  0.3504 -0.1311 -0.3859
15849TIP3   OH269037   2.282   0.359  22.150 -0.3158 -0.2105 -0.0220
15849TIP3    H169038   2.330   0.341  22.231  0.2432  0.9518 -0.0654
15849TIP3    H269039   2.212   0.418  22.177  0.1865  0.6025 -0.4492
15850TIP3   OH269040   0.659   1.734  13.125 -0.2176 -0.4362  0.1164
15850TIP3    H169041   0.738   1.683  13.140  0.4081  0.6547  0.6263
15850TIP3    H269042   0.605   1.718  13.203 -0.1641 -0.5819  0.1235
15851TIP3   OH269043   1.813   1.015  90.499 -0.0941  0.1096  0.0874
15851TIP3    H169044   1.769   1.075  90.439 -0.8258 -1.0482 -0.5781
15851TIP3    H269045   1.785   1.042  90.586  0.6323  1.5351 -0.0984
15852TIP3   OH269046   0.195   0.259 101.891  0.4423  0.1133 -0.0700
15852TIP3    H169047   0.218   0.242 101.983  0.1829  0.5796  0.0827
15852TIP3    H269048   0.216   0.351 101.878  0.3244  0.0894 -0.4339
15853TIP3   OH269049   1.987   0.840  19.520  0.1807  0.5073  0.2840
15853TIP3    H169050   2.041   0.878  19.590  0.5665 -0.1081  0.3286
15853TIP3    H269051   1.995   0.902  19.448  2.2009 -0.2748 -0.2556
15854TIP3   OH269052   0.294   0.877 104.795 -0.1489 -0.0205  0.3752
15854TIP3    H169053   0.278   0.904 104.885 -1.3297  0.5250  0.0219
15854TIP3    H269054   0.309   0.783 104.800 -0.6905 -0.0737  1.0795
15855TIP3   OH269055   1.271   0.851  13.818 -0.1393 -0.1087  0.1166
15855TIP3    H169056   1.336   0.912  13.783  0.0375 -0.2536  0.1857
15855TIP3    H269057   1.319   0.802  13.886 -0.2592 -0.3617  0.0206
15856TIP3   OH269058   0.658   1.059  18.350 -0.8487  0.1113  0.0146
15856TIP3    H169059   0.705   1.022  18.425 -1.3236  0.3329  0.4242
15856TIP3    H269060   0.616   0.984  18.309  0.4904 -0.2211 -0.8280
15857TIP3   OH269061   1.648   1.957   7.102 -0.1815  0.5000  0.3630
15857TIP3    H169062   1.720   1.921   7.051 -0.7494 -0.5705  0.2701
15857TIP3    H269063   1.643   1.901   7.180  0.2535  1.7047  1.2820
15858TIP3   OH269064   2.297   1.615  74.587  0.3386  0.5416 -0.1130
15858TIP3    H169065   2.239   1.564  74.530 -0.2914  2.0833 -0.8876
15858TIP3    H269066   2.383   1.609  74.546  0.4609 -0.5305  0.2531
15859TIP3   OH269067   2.283   0.994  92.243 -0.3854  0.0085 -0.5128
15859TIP3    H169068   2.378   1.006  92.250 -0.5054  0.7993 -0.0225
15859TIP3    H269069   2.253   0.996  92.334 -0.9339  0.4167 -0.6972
15860TIP3   OH269070   0.030   0.930  97.613  0.2356 -0.2115 -0.2074
15860TIP3    H169071   0.051   0.851  97.661  0.6857 -0.1746 -0.3445
15860TIP3    H269072  -0.059   0.915  97.580 -0.0725 -0.2473  0.6088
15861TIP3   OH269073   2.227   0.470 111.627  0.0763 -0.4016  0.0851
15861TIP3    H169074   2.160   0.439 111.567  1.1058 -1.3394 -0.6315
15861TIP3    H269075   2.188   0.463 111.714 -1.7091  1.6767 -0.4682
15862TIP3   OH269076   1.907   0.302 101.850  0.3677 -0.1491 -0.1058
15862TIP3    H169077   1.918   0.209 101.872  0.7321  0.3386  2.0070
15862TIP3    H269078   1.815   0.320 101.866  0.1192 -0.3025 -1.2807
15863TIP3   OH269079   0.748   2.376   4.020  0.0215 -0.1698  0.1368
15863TIP3    H169080   0.736   2.403   4.111  0.5965 -0.0554  0.1858
15863TIP3    H269081   0.797   2.294   4.025 -0.4661 -0.4769 -0.0544
15864TIP3   OH269082   2.001   2.466  80.495 -0.0366  0.7934  0.3718
15864TIP3    H169083   1.989   2.537  80.432 -0.7334  0.5923  0.2714
15864TIP3    H269084   2.095   2.468  80.516  0.2158  0.7916 -0.7429
15865TIP3   OH269085   1.725   1.839  93.219 -0.2029  0.7628 -0.7459
15865TIP3    H169086   1.788   1.797  93.277 -2.3344 -1.2082  0.3115
15865TIP3    H269087   1.703   1.922  93.262 -0.5857  0.0373  0.5074
15866TIP3   OH269088   2.503   0.999  27.277  0.3591 -0.0323  0.2525
15866TIP3    H169089   2.521   1.079  27.326  0.4424  0.7928 -1.0599
15866TIP3    H269090   2.524   0.928  27.337  1.5896  0.9350  1.0064
15867TIP3   OH269091   0.243   0.817  21.261  0.2800  0.4384 -0.0534
15867TIP3    H169092   0.311   0.749  21.257 -0.9066 -0.7548 -0.6551
15867TIP3    H269093   0.228   0.828  21.355  1.5177  0.9596  0.1054
15868TIP3   OH269094   1.685   0.489  33.362  0.8244 -0.3392  0.0137
15868TIP3    H169095   1.777   0.468  33.376  0.0715 -1.8789  3.9013
15868TIP3    H269096   1.660   0.540  33.439 -1.5675  0.2303 -1.0469
15869TIP3   OH269097   1.590   1.177  26.316 -0.3660 -0.1244 -0.3612
15869TIP3    H169098   1.669   1.156  26.364 -0.2384 -0.9001 -0.8799
15869TIP3    H269099   1.602   1.267  26.286 -0.3878  0.3095  0.9170
15870TIP3   OH269100   0.853   0.833  23.473 -0.4086  0.4338 -0.2482
15870TIP3    H169101   0.811   0.919  23.473  0.6024  0.9483 -0.6242
15870TIP3    H269102   0.941   0.851  23.507 -0.4782 -0.6071  0.5197
15871TIP3   OH269103   1.889   1.511  12.579 -0.3019  0.5760 -0.6733
15871TIP3    H169104   1.920   1.447  12.514 -1.4031  0.5502 -1.1897
15871TIP3    H269105   1.794   1.501  12.579 -0.3257  0.4727  1.0763
15872TIP3   OH269106   1.122   0.432   8.529  0.3818  0.0401  0.2227
15872TIP3    H169107   1.034   0.397   8.520  0.1691  0.7206 -0.3939
15872TIP3    H269108   1.179   0.357   8.512 -0.0699 -0.2830  0.1128
15873TIP3   OH269109   0.338   1.763   3.430 -0.3589  0.1391 -0.1695
15873TIP3    H169110   0.367   1.676   3.405 -0.3078 -0.0910  0.6747
15873TIP3    H269111   0.416   1.818   3.420  0.2593 -0.3656  1.5431
15874TIP3   OH269112   0.855   2.631   6.494  0.5287 -0.1594  0.1494
15874TIP3    H169113   0.793   2.701   6.515  1.0691  0.3871 -0.0595
15874TIP3    H269114   0.882   2.648   6.404  1.0159 -0.3684  0.2526
15875TIP3   OH269115   0.967   0.690  98.136 -0.6368  0.3424 -0.4250
15875TIP3    H169116   0.927   0.668  98.220  0.4686  2.1234  0.6384
15875TIP3    H269117   0.959   0.610  98.084 -1.0886 -0.9095  1.4568
15876TIP3   OH269118   1.904   1.785  13.708 -0.0194 -0.0177  0.2407
15876TIP3    H169119   1.915   1.696  13.674 -2.4157 -1.0988  1.9460
15876TIP3    H269120   1.883   1.837  13.631 -0.5797 -1.3835 -0.5849
15877TIP3   OH269121   1.250   1.042  82.062 -0.4352  0.1563  0.2449
15877TIP3    H169122   1.164   1.009  82.036 -0.6068  0.8171 -0.0362
15877TIP3    H269123   1.252   1.030  82.157 -0.7418 -0.0753  0.2225
15878TIP3   OH269124   1.343   0.242  90.697  0.2312 -0.0806 -0.7488
15878TIP3    H169125   1.270   0.198  90.653 -1.0990  1.5036 -0.2118
15878TIP3    H269126   1.315   0.333  90.706  1.7646  0.3048  0.5980
15879TIP3   OH269127   0.073   1.981  97.026  0.6370  0.0038  0.0818
15879TIP3    H169128   0.036   1.958  96.941 -0.4090  0.3712  0.4138
15879TIP3    H269129  -0.004   1.993  97.082  1.3153 -0.2706  1.0848
15880TIP3   OH269130   0.955   2.211  75.238 -0.4925 -0.0197  0.0608
15880TIP3    H169131   0.953   2.148  75.310  0.7874  1.9004  1.8982
15880TIP3    H269132   0.876   2.264  75.250 -0.7816 -0.3034 -0.5543
15881TIP3   OH269133   0.161   1.069  88.415  0.5084 -0.2919 -0.4410
15881TIP3    H169134   0.151   1.093  88.323 -0.4248  1.0693 -0.0107
15881TIP3    H269135   0.102   0.995  88.427 -0.5166  0.4900 -0.5921
15882TIP3   OH269136   0.171   1.112   3.589 -0.0503 -0.3649  0.1060
15882TIP3    H169137   0.188   1.021   3.615 -0.2154 -0.1768  0.9065
15882TIP3    H269138   0.076   1.117   3.579 -0.0442 -0.2698  0.0931
15883TIP3   OH269139   0.447   0.947 105.079 -0.3339 -0.4041  0.2046
15883TIP3    H169140   0.415   1.037 105.088 -0.1317 -0.3070 -0.0580
15883TIP3    H269141   0.540   0.952 105.101 -0.3287 -0.5538  0.2174
15884TIP3   OH269142   1.110   2.599   6.897 -0.3923  0.6716 -0.1649
15884TIP3    H169143   1.086   2.629   6.985 -0.9728 -1.1777  0.3597
15884TIP3    H269144   1.026   2.581   6.855 -0.0916 -0.9342 -0.1438
15885TIP3   OH269145   1.582   1.115  85.788 -0.3413 -0.8251  0.0815
15885TIP3    H169146   1.658   1.140  85.736  0.1872  1.5343  1.8326
15885TIP3    H269147   1.519   1.187  85.777 -1.3541 -1.6119  0.5046
15886TIP3   OH269148   0.118   0.494   2.825  0.0561  0.3642  0.4639
15886TIP3    H169149   0.082   0.408   2.803  0.8700  0.1073  0.0906
15886TIP3    H269150   0.127   0.492   2.921 -2.8337  1.2249  0.8592
15887TIP3   OH269151   2.636   1.205  36.623 -0.1009  0.2374  0.2854
15887TIP3    H169152   2.596   1.290  36.604 -1.3325 -0.3025  0.3685
15887TIP3    H269153   2.565   1.142  36.611  0.8606 -0.8120 -0.0345
15888TIP3   OH269154   0.118   1.664  78.224  0.7644 -0.1692  0.4568
15888TIP3    H169155   0.165   1.748  78.220 -0.5394  0.6527  1.3383
15888TIP3    H269156   0.173   1.608  78.279  1.3721  0.3035  0.3422
15889TIP3   OH269157   2.568   1.692  75.116  0.3520  0.4325 -0.2093
15889TIP3    H169158   2.574   1.605  75.075 -0.1230  0.1902  0.2347
15889TIP3    H269159   2.510   1.742  75.059  1.8719  0.9836 -1.3695
15890TIP3   OH269160   0.709   0.498  81.236  0.3388 -0.0407 -0.7810
15890TIP3    H169161   0.664   0.525  81.155 -1.4989  0.3626  0.3124
15890TIP3    H269162   0.738   0.579  81.275  3.0501 -0.3477 -1.9482
15891TIP3   OH269163   2.296   2.216  80.540 -0.1666  0.4311  0.4223
15891TIP3    H169164   2.322   2.124  80.549 -0.0766  0.1614 -2.0704
15891TIP3    H269165   2.204   2.212  80.514 -0.0385  1.0126 -0.1330
15892TIP3   OH269166   0.003   2.453  93.374 -0.0978  0.0376  0.0339
15892TIP3    H169167   0.080   2.396  93.384 -0.1143  0.0899  0.5082
15892TIP3    H269168  -0.047   2.413  93.303  1.8167  1.6526 -2.3899
15893TIP3   OH269169   0.387   1.546   2.027 -0.5007  0.4159 -0.0400
15893TIP3    H169170   0.321   1.486   2.063 -0.9286  0.6589 -0.3950
15893TIP3    H269171   0.469   1.521   2.070 -0.7786 -0.0536  0.2301
15894TIP3   OH269172   1.382   2.283  37.851 -0.0285 -0.0886  0.0851
15894TIP3    H169173   1.431   2.201  37.849  3.0950  1.6462 -0.7758
15894TIP3    H269174   1.370   2.302  37.944  0.9491 -0.6045  0.3292
15895TIP3   OH269175   1.923   2.222 102.258 -0.1164 -0.2277  0.2884
15895TIP3    H169176   1.879   2.143 102.226  0.1908 -0.0080 -0.7031
15895TIP3    H269177   1.950   2.199 102.347 -1.1138 -0.8060  0.4702
15896TIP3   OH269178   2.014   1.726   8.856  0.4274  0.3144  0.2576
15896TIP3    H169179   2.057   1.643   8.837  0.2216  0.2004  0.2777
15896TIP3    H269180   1.923   1.702   8.874  0.7889  0.3287  2.2347
15897TIP3   OH269181   1.977   0.391   6.126 -0.2769 -0.6115  0.1307
15897TIP3    H169182   2.066   0.362   6.105 -0.4623 -1.1586  0.0801
15897TIP3    H269183   1.952   0.447   6.052  0.4316  0.4660  0.6746
15898TIP3   OH269184   0.445   0.787  94.305  0.1985  0.3215 -0.3298
15898TIP3    H169185   0.512   0.720  94.320 -2.2505 -2.1299  0.6681
15898TIP3    H269186   0.424   0.821  94.392  0.9072  1.9403 -0.7589
15899TIP3   OH269187   0.990   0.558  24.421  0.6234  0.1793 -0.2290
15899TIP3    H169188   1.023   0.550  24.331  0.5383 -0.3377 -0.2159
15899TIP3    H269189   0.983   0.652  24.435  1.7653  0.3064 -0.3598
15900TIP3   OH269190   0.002   0.572  76.365  0.8718  0.8816 -0.1861
15900TIP3    H169191  -0.085   0.562  76.326  0.1931  0.7714  1.2655
15900TIP3    H269192   0.013   0.494  76.419  0.2111  2.6142  2.6517
15901TIP3   OH269193   2.341   0.343  35.678  0.1125  0.0196 -0.2921
15901TIP3    H169194   2.294   0.339  35.595  0.9065 -0.7654 -0.7311
15901TIP3    H269195   2.408   0.410  35.664 -0.7698  1.0302  0.2766
15902TIP3   OH269196   1.987   1.759  83.931  0.5613  0.1862 -0.2010
15902TIP3    H169197   1.939   1.683  83.962  1.6476 -0.1605  0.7154
15902TIP3    H269198   1.984   1.821  84.004  0.2626  0.7541 -0.6825
15903TIP3   OH269199   1.484   1.880  33.370  0.6150 -0.4566 -0.1803
15903TIP3    H169200   1.406   1.839  33.406  0.4076 -0.4238 -0.5969
15903TIP3    H269201   1.551   1.811  33.372  0.2783 -0.8096 -0.8402
15904TIP3   OH269202   1.590   2.552   3.312  0.2489 -0.3227  0.2911
15904TIP3    H169203   1.584   2.569   3.406  0.8001 -1.1490  0.4939
15904TIP3    H269204   1.650   2.619   3.279 -1.0215  0.8380  0.2631
15905TIP3   OH269205   1.625   0.078 109.824 -0.4553  0.0908 -0.8308
15905TIP3    H169206   1.698   0.121 109.867 -1.3921  0.9678 -0.0830
15905TIP3    H269207   1.627   0.111 109.734 -0.9549  1.4672 -0.3594
15906TIP3   OH269208   2.579   0.514  37.114 -0.6893  0.1995 -0.0375
15906TIP3    H169209   2.584   0.481  37.024 -1.4659  0.3576 -0.1466
15906TIP3    H269210   2.626   0.449  37.166 -0.9874 -0.3508 -0.4385
15907TIP3   OH269211   2.523   1.167  74.268  0.8730  0.3237 -0.5693
15907TIP3    H169212   2.469   1.113  74.211  1.0112 -1.1482  0.6340
15907TIP3    H269213   2.609   1.168  74.226  1.1972 -1.4259 -0.0560
15908TIP3   OH269214   1.348   2.391  75.025  0.5177 -0.6568  0.7835
15908TIP3    H169215   1.426   2.380  75.078  1.9663  0.4286 -1.0264
15908TIP3    H269216   1.277   2.404  75.089  1.2832 -4.0638  2.5566
15909TIP3   OH269217   2.561   1.745 109.844 -0.4544 -0.1410  0.0374
15909TIP3    H169218   2.634   1.788 109.888  1.0643 -1.7629 -0.7810
15909TIP3    H269219   2.503   1.717 109.915  1.3008 -1.5685  0.9521
15910TIP3   OH269220   1.792   2.536  86.322  0.1417 -0.2861 -0.0306
15910TIP3    H169221   1.776   2.487  86.403  0.4040 -0.1405  0.1123
15910TIP3    H269222   1.859   2.486  86.277  0.3055 -0.1382  0.0443
15911TIP3   OH269223   2.139   1.077 110.579 -0.1122  0.3879 -0.0965
15911TIP3    H169224   2.123   1.160 110.623 -0.5770 -0.4794  1.4211
15911TIP3    H269225   2.097   1.011 110.634  0.5521 -0.9100 -1.0738
15912TIP3   OH269226   1.458   1.248  29.055  0.0021 -0.4374 -0.1896
15912TIP3    H169227   1.469   1.318  28.991  2.7698 -0.5729  0.0056
15912TIP3    H269228   1.389   1.279  29.114 -0.4556  1.0449 -1.4435
15913TIP3   OH269229   0.788   1.425  11.252  0.2501  0.2263 -0.3029
15913TIP3    H169230   0.694   1.430  11.270 -0.0307 -0.4954 -1.4727
15913TIP3    H269231   0.829   1.421  11.339 -0.7663  0.8265  0.2278
15914TIP3   OH269232   2.542   2.636   0.399 -0.2057 -0.0165  0.4224
15914TIP3    H169233   2.542   2.731   0.408 -1.0713  0.0471 -0.0610
15914TIP3    H269234   2.451   2.611   0.418  0.1537 -0.8194  1.1679
15915TIP3   OH269235   1.952   1.016   4.015  0.3302  0.8331  0.0130
15915TIP3    H169236   1.937   0.926   4.045  1.0130  0.7909  0.2416
15915TIP3    H269237   2.046   1.021   4.002  0.4332  1.8549  1.0760
15916TIP3   OH269238   1.119   1.585  85.509 -0.1522  0.2261  0.1235
15916TIP3    H169239   1.078   1.556  85.428 -0.0496 -0.1476  0.2040
15916TIP3    H269240   1.054   1.566  85.577  0.3634 -0.8983  0.3213
15917TIP3   OH269241   2.278   1.956  88.279  0.0551  0.0873  0.1943
15917TIP3    H169242   2.212   2.018  88.246  0.6900  0.6021 -0.1367
15917TIP3    H269243   2.350   2.012  88.308  1.0192 -0.5327 -0.9361
15918TIP3   OH269244   2.674   2.607 104.580 -0.0880 -0.0392 -0.0833
15918TIP3    H169245   2.585   2.630 104.552 -0.3866 -1.3399 -0.2745
15918TIP3    H269246   2.714   2.570 104.501  1.1785  1.9712 -0.4373
15919TIP3   OH269247   0.768   0.551  83.152  0.1722  0.7356  0.1928
15919TIP3    H169248   0.737   0.625  83.100 -1.8311 -0.9981 -1.2524
15919TIP3    H269249   0.690   0.515  83.193  0.9279 -1.1520  0.0812
15920TIP3   OH269250   0.741   0.958  85.810 -0.0108  0.0668 -0.2437
15920TIP3    H169251   0.768   1.049  85.819  0.0194 -0.0205  0.6482
15920TIP3    H269252   0.763   0.935  85.720  0.8007  0.6751 -0.2059
15921TIP3   OH269253   1.087   1.033 101.165 -0.2720 -0.0320 -0.2217
15921TIP3    H169254   1.131   1.118 101.168  0.6832 -0.4360 -1.8537
15921TIP3    H269255   1.107   0.993 101.250  0.0870  0.9658  0.1774
15922TIP3   OH269256   2.429   2.278 105.905  0.1507  0.4223 -0.0909
15922TIP3    H169257   2.340   2.273 105.868  0.4613 -0.3183 -0.7555
15922TIP3    H269258   2.415   2.297 105.998 -0.7149 -0.0341 -0.1196
15923TIP3   OH269259   1.740   2.330  99.537  0.0268 -0.2075  0.6450
15923TIP3    H169260   1.782   2.376  99.610  0.3438  0.2456  0.1836
15923TIP3    H269261   1.657   2.300  99.573 -0.1018  0.5481  1.0153
15924TIP3   OH269262   0.856   1.108   9.088 -0.0827  0.0661  0.8834
15924TIP3    H169263   0.872   1.032   9.031 -0.4972  0.1826  0.6084
15924TIP3    H269264   0.902   1.180   9.045  0.3996 -0.0486  1.2001
15925TIP3   OH269265   0.865   2.413 101.683  0.3103 -0.3049 -0.3101
15925TIP3    H169266   0.945   2.459 101.656  1.5642 -2.5731 -0.7248
15925TIP3    H269267   0.884   2.321 101.666 -1.8443 -1.0718  1.0622
15926TIP3   OH269268   0.354   1.520 102.858 -0.4493  0.0180 -0.2697
15926TIP3    H169269   0.353   1.424 102.857 -0.2423  0.0191 -0.8198
15926TIP3    H269270   0.292   1.546 102.790  0.2519  0.2622 -0.8364
15927TIP3   OH269271   0.304   2.607  76.069 -0.0734 -0.2974  0.3079
15927TIP3    H169272   0.294   2.643  75.981  1.1807 -2.5248 -0.8446
15927TIP3    H269273   0.215   2.603  76.104 -0.4752  1.7746 -0.3050
15928TIP3   OH269274   1.400   0.729  85.736  0.5693 -0.2753 -0.4001
15928TIP3    H169275   1.361   0.781  85.806 -2.5327 -0.6314 -1.6936
15928TIP3    H269276   1.446   0.794  85.681  0.4287  0.4461  0.3140
15929TIP3   OH269277   1.119   1.965  13.059 -0.3032  0.0678  0.1613
15929TIP3    H169278   1.060   2.027  13.016  0.6339  0.3822 -0.7178
15929TIP3    H269279   1.203   1.977  13.014 -0.0080 -1.5916  0.2127
15930TIP3   OH269280   0.637   1.051 109.099  0.2927  0.1051 -0.1098
15930TIP3    H169281   0.634   1.027 109.007  1.1324 -1.5206  0.2428
15930TIP3    H269282   0.567   0.999 109.140 -0.6025  1.4128  0.0617
15931TIP3   OH269283   0.571   0.923  91.220 -0.2209  0.2257 -0.1178
15931TIP3    H169284   0.651   0.889  91.181  0.5844  1.2186  0.6005
15931TIP3    H269285   0.580   1.019  91.213 -1.1866  0.3527  0.2769
15932TIP3   OH269286   1.418   0.203  26.925  0.1537  0.2930  0.1839
15932TIP3    H169287   1.393   0.262  26.996 -0.2765  1.4006 -0.8568
15932TIP3    H269288   1.343   0.143  26.916  0.5487 -0.3740  1.1716
15933TIP3   OH269289   0.242   2.097  30.615  0.0468  0.0641 -0.3999
15933TIP3    H169290   0.210   2.187  30.628  0.9922  0.3496  0.0423
15933TIP3    H269291   0.333   2.100  30.642 -0.6669 -1.7663  2.8017
15934TIP3   OH269292   0.833   0.026   1.326  0.2130 -0.1110  0.4362
15934TIP3    H169293   0.916  -0.014   1.302  0.0522 -0.7678  0.9197
15934TIP3    H269294   0.822   0.004   1.419 -0.3139  0.2929  0.4743
15935TIP3   OH269295   0.082   2.397 102.232 -0.3722 -0.1830 -0.5283
15935TIP3    H169296   0.076   2.346 102.151  0.4038 -1.4025  0.1490
15935TIP3    H269297   0.056   2.486 102.207 -0.5270 -0.6243 -2.0177
15936TIP3   OH269298   2.373   1.560 105.899  0.0546 -0.1014 -0.5027
15936TIP3    H169299   2.454   1.610 105.885  0.9204 -1.6615 -1.3624
15936TIP3    H269300   2.310   1.625 105.931  1.4568  1.2821 -0.4204
15937TIP3   OH269301   0.632   1.826   1.031 -0.5457  0.0870  0.6159
15937TIP3    H169302   0.629   1.920   1.046 -1.5631  0.1114  0.3305
15937TIP3    H269303   0.541   1.800   1.021 -0.2453 -0.8385  0.1140
15938TIP3   OH269304   2.520   0.896 111.501  0.1894 -0.2725  0.0691
15938TIP3    H169305   2.509   0.842 111.579  1.5159 -0.6079  0.0516
15938TIP3    H269306   2.604   0.868 111.464 -0.1130  0.3250 -1.1256
15939TIP3   OH269307   1.957   0.733 109.380  0.0885  0.5538  0.4179
15939TIP3    H169308   1.966   0.670 109.309 -2.0409  1.8045 -1.0642
15939TIP3    H269309   1.913   0.684 109.450  1.7512 -0.5508  0.7412
15940TIP3   OH269310   1.825   2.385  18.591 -0.1815 -0.0279  0.0578
15940TIP3    H169311   1.897   2.446  18.577  1.4087 -2.0409 -0.9273
15940TIP3    H269312   1.773   2.391  18.511  0.5871 -0.7278 -0.5073
15941TIP3   OH269313   1.222   0.184  15.254 -0.8020 -0.5123  0.6600
15941TIP3    H169314   1.168   0.261  15.274  1.8910  1.6445  0.1357
15941TIP3    H269315   1.272   0.169  15.334 -0.4457 -0.9827  0.3496
15942TIP3   OH269316   1.572   0.611 102.852 -0.4252 -0.0297 -0.0629
15942TIP3    H169317   1.508   0.590 102.784 -0.3299  0.0203 -0.1735
15942TIP3    H269318   1.531   0.682 102.902 -0.4427  0.0215 -0.1462
15943TIP3   OH269319   0.246   2.449  37.528 -0.1284  0.5485  0.2666
15943TIP3    H169320   0.172   2.486  37.480  0.0575 -1.6594 -1.8990
15943TIP3    H269321   0.208   2.378  37.580  0.0382  1.5072  1.7835
15944TIP3   OH269322   1.727   1.536  81.707  0.6005 -0.2265 -0.0266
15944TIP3    H169323   1.774   1.528  81.790  1.5348 -2.6183 -0.7200
15944TIP3    H269324   1.678   1.455  81.699 -1.3693  0.9769 -0.7428
15945TIP3   OH269325   2.292   2.112  62.720  0.3681  0.0579 -0.3732
15945TIP3    H169326   2.317   2.045  62.656  3.0015  0.2647  0.3542
15945TIP3    H269327   2.307   2.072  62.805 -1.0337  0.5437  0.1436
15946TIP3   OH269328   1.545   2.538   9.126 -0.0868 -0.2517  0.1253
15946TIP3    H169329   1.568   2.456   9.171  0.2986 -0.8325 -1.0961
15946TIP3    H269330   1.452   2.530   9.108 -0.2016 -0.1014  0.6231
15947TIP3   OH269331   0.410   2.559  30.602 -0.3015  0.1944 -0.6418
15947TIP3    H169332   0.340   2.494  30.609 -1.9082  1.9405  0.1764
15947TIP3    H269333   0.366   2.643  30.613  1.7107  1.4563 -1.6616
15948TIP3   OH269334   1.261   0.324  92.179 -0.3118 -0.1023 -0.4935
15948TIP3    H169335   1.167   0.344  92.172 -0.3608 -0.4701 -0.9335
15948TIP3    H269336   1.305   0.404  92.148 -0.4568  0.4353  0.6339
15949TIP3   OH269337   1.148   0.493 108.750  0.4224 -0.1567  0.2846
15949TIP3    H169338   1.185   0.420 108.701  2.0292  0.1911  0.9057
15949TIP3    H269339   1.212   0.511 108.819 -0.4317  1.1718  0.7828
15950TIP3   OH269340   2.307   1.024  74.973  0.3757  0.6394 -0.5974
15950TIP3    H169341   2.342   1.084  74.907  2.9661  1.0693  1.0106
15950TIP3    H269342   2.383   0.976  75.004 -1.2677 -1.7694 -0.0781
15951TIP3   OH269343   2.042   0.297  35.127 -0.0165 -0.1028 -0.5159
15951TIP3    H169344   1.976   0.327  35.065 -0.5809  0.2078  0.2251
15951TIP3    H269345   2.013   0.331  35.212  0.3141 -1.2001  0.0552
15952TIP3   OH269346   1.186   1.986  75.191  0.2262  0.8662 -0.7029
15952TIP3    H169347   1.109   2.031  75.226  0.3197 -0.1528  0.9524
15952TIP3    H269348   1.254   2.001  75.257  0.2408 -1.6517 -0.0269
15953TIP3   OH269349   1.104   0.919 102.690  0.2616 -0.2133 -0.2734
15953TIP3    H169350   1.163   0.951 102.758  2.4469 -0.8602 -1.7398
15953TIP3    H269351   1.134   0.962 102.610 -1.5963 -0.2040 -1.0151
15954TIP3   OH269352   1.382   1.802  88.365 -0.9393  0.4774 -0.0295
15954TIP3    H169353   1.346   1.822  88.279 -1.2618 -0.5807 -0.1503
15954TIP3    H269354   1.323   1.737  88.401  0.7713 -1.2616 -0.2116
15955TIP3   OH269355   0.998   1.550   5.759 -0.0542 -0.2403 -0.4968
15955TIP3    H169356   1.059   1.545   5.686  0.0897 -2.1455 -0.3021
15955TIP3    H269357   1.018   1.473   5.813 -0.3523  0.9585  1.4030
15956TIP3   OH269358   0.030   0.996  90.073 -0.2858  0.4905 -0.4778
15956TIP3    H169359  -0.061   1.027  90.067 -0.6820 -0.5236  0.1042
15956TIP3    H269360   0.030   0.913  90.025  0.0046 -0.2048  0.6917
15957TIP3   OH269361   1.570   0.532 108.425 -0.2421  0.7674 -0.1932
15957TIP3    H169362   1.503   0.469 108.399  0.3958 -0.1042  0.2528
15957TIP3    H269363   1.635   0.527 108.356  0.0297  0.6100  0.0759
15958TIP3   OH269364   1.894   0.581  93.978  0.3863 -0.5491 -0.2338
15958TIP3    H169365   1.807   0.587  93.938  0.0672 -1.7944  0.2206
15958TIP3    H269366   1.947   0.643  93.929 -0.6145 -0.2090 -0.9220
15959TIP3   OH269367   2.359   0.832  93.511 -0.5118  0.2771 -0.3941
15959TIP3    H169368   2.270   0.832  93.476 -0.3488  0.2905 -0.8189
15959TIP3    H269369   2.368   0.747  93.556 -0.3913 -0.1724 -1.2564
15960TIP3   OH269370   0.571   0.931  78.533  0.1081 -0.5004  0.0090
15960TIP3    H169371   0.541   0.920  78.623  0.0126  0.1503  0.0588
15960TIP3    H269372   0.586   0.842  78.502 -1.7430 -0.8544  0.0256
15961TIP3   OH269373   1.080   1.159  99.461 -0.2623 -0.7198  0.5683
15961TIP3    H169374   1.125   1.129  99.381 -1.5277  2.5376 -1.5795
15961TIP3    H269375   0.990   1.127  99.450 -0.4291 -0.2917  0.6761
15962TIP3   OH269376   1.747   2.093  83.292 -0.1554 -0.0312  0.4400
15962TIP3    H169377   1.717   2.014  83.336  0.5957 -0.5811 -0.0137
15962TIP3    H269378   1.776   2.151  83.362  1.8832 -1.2467  0.6757
15963TIP3   OH269379   1.925   1.335  80.417 -0.3293 -0.4040  0.4524
15963TIP3    H169380   1.867   1.384  80.475 -1.2706 -3.5717  2.4266
15963TIP3    H269381   1.876   1.256  80.394  1.6970 -1.3025 -1.1425
15964TIP3   OH269382   0.577   2.273 105.031  0.1928 -0.0466  0.6676
15964TIP3    H169383   0.577   2.341 104.964 -0.2967 -0.4412  0.2634
15964TIP3    H269384   0.512   2.301 105.096 -0.0577 -0.1610  0.4639
15965TIP3   OH269385   1.408   1.392  90.441  0.1178 -0.0012  0.1151
15965TIP3    H169386   1.319   1.390  90.478 -0.1426  1.2171 -0.4037
15965TIP3    H269387   1.395   1.373  90.348  0.4419 -0.1579  0.1036
15966TIP3   OH269388   2.013   2.586  88.367  0.3119 -0.5199 -0.3181
15966TIP3    H169389   2.078   2.605  88.298  1.5079  1.8386  1.2944
15966TIP3    H269390   1.992   2.672  88.403 -0.0342 -1.6602  2.4337
15967TIP3   OH269391   1.501   1.800  93.053  0.2190 -0.1725 -0.1673
15967TIP3    H169392   1.510   1.725  92.995  1.6896 -0.1907  0.0534
15967TIP3    H269393   1.588   1.811  93.092 -0.0707  1.3987  0.0998
15968TIP3   OH269394   0.835   1.001  37.338 -0.3964 -0.2389 -0.0783
15968TIP3    H169395   0.820   0.907  37.347 -0.8460 -0.0543  1.4212
15968TIP3    H269396   0.783   1.026  37.262  0.9367 -1.4291 -1.4538
15969TIP3   OH269397   1.409   2.293  38.139  0.2573 -0.0135 -0.6062
15969TIP3    H169398   1.495   2.266  38.172  0.3381  1.0399  0.0791
15969TIP3    H269399   1.349   2.227  38.173  0.5958  0.0635  0.1517
15970TIP3   OH269400   1.442   1.222  91.751 -0.5262  0.0424 -0.0740
15970TIP3    H169401   1.375   1.270  91.704  0.0989 -0.8438 -1.9549
15970TIP3    H269402   1.516   1.282  91.757 -0.9636  0.5214  0.7593
15971TIP3   OH269403   0.088   1.419   7.321  0.0948 -0.0854 -0.0379
15971TIP3    H169404   0.025   1.450   7.256  1.4429 -0.1109 -1.4252
15971TIP3    H269405   0.171   1.413   7.273  0.5620 -2.8535  0.9307
15972TIP3   OH269406   1.512   0.193  11.390  0.8500 -0.2773  0.3417
15972TIP3    H169407   1.573   0.148  11.448  1.0212 -0.0611  0.3340
15972TIP3    H269408   1.562   0.210  11.310  0.4712 -0.9968 -0.0576
15973TIP3   OH269409   0.016   0.618  94.196 -0.9719  0.0375 -0.1444
15973TIP3    H169410  -0.042   0.693  94.209 -0.2723  0.6817 -0.7019
15973TIP3    H269411  -0.024   0.569  94.124 -1.4327 -0.1390  0.2224
15974TIP3   OH269412   2.623   0.531  19.925 -0.6952  0.0470 -0.3407
15974TIP3    H169413   2.685   0.598  19.955 -0.6578  0.1365 -0.6122
15974TIP3    H269414   2.672   0.481  19.859 -0.9727  0.2417 -0.7005
15975TIP3   OH269415   1.560   2.003  35.433  0.5089 -0.2218 -0.1601
15975TIP3    H169416   1.481   1.980  35.483  0.0251 -0.1901 -0.8883
15975TIP3    H269417   1.629   1.950  35.471  0.1617 -0.1476  0.5885
15976TIP3   OH269418   2.296   0.119  97.240  0.5727 -0.1094  0.7343
15976TIP3    H169419   2.275   0.164  97.159 -0.2891  0.5563  1.3146
15976TIP3    H269420   2.220   0.062  97.257  1.1991 -1.0352  0.5423
15977TIP3   OH269421   2.249   2.309  74.908  0.2296 -0.0081  0.1324
15977TIP3    H169422   2.231   2.373  74.977 -0.5293 -1.4414  1.3067
15977TIP3    H269423   2.287   2.234  74.954  1.1109 -0.4335 -1.2207
15978TIP3   OH269424   1.398   2.198  15.765  0.1245  0.5859  0.2131
15978TIP3    H169425   1.414   2.284  15.725  0.9406 -0.1518 -1.1073
15978TIP3    H269426   1.478   2.148  15.749  0.0161 -0.1408  1.7852
15979TIP3   OH269427   1.372   0.108   0.919  0.0127 -0.3199  0.2856
15979TIP3    H169428   1.300   0.047   0.902  0.5324 -0.6940 -0.6153
15979TIP3    H269429   1.402   0.084   1.007 -0.0170 -1.1382  0.0831
15980TIP3   OH269430   1.602   1.464  34.044 -0.2014 -0.5341  0.3694
15980TIP3    H169431   1.562   1.379  34.023  0.6548 -0.9717  0.4326
15980TIP3    H269432   1.684   1.441  34.088  0.0426  0.3299  0.3801
15981TIP3   OH269433   1.807   0.208 100.087 -0.0240  0.1511  0.0437
15981TIP3    H169434   1.802   0.285 100.030  1.4840  0.4746  0.3064
15981TIP3    H269435   1.900   0.201 100.110 -0.2006 -1.4949  0.3863
15982TIP3   OH269436   1.022   2.593  85.549  0.1246  0.0878 -0.2769
15982TIP3    H169437   1.076   2.530  85.598 -1.5361 -1.9346 -0.9227
15982TIP3    H269438   0.941   2.598  85.599 -0.8688 -0.5461 -1.7786
15983TIP3   OH269439   0.413   0.177  31.218 -0.3479  0.3457 -0.4760
15983TIP3    H169440   0.393   0.086  31.239 -2.3164  0.5588 -1.2633
15983TIP3    H269441   0.473   0.205  31.288  0.3245 -1.5382 -0.2529
15984TIP3   OH269442   0.908   1.659  86.280 -0.2937 -0.3255 -0.5525
15984TIP3    H169443   0.837   1.599  86.259 -0.5510  0.2863 -1.4961
15984TIP3    H269444   0.977   1.638  86.217 -0.5328  0.6072 -1.1466
15985TIP3   OH269445   1.526   2.634  10.775 -0.2842  0.0358 -0.2661
15985TIP3    H169446   1.453   2.580  10.743  0.7349 -1.0023 -0.8866
15985TIP3    H269447   1.604   2.581  10.761  0.6056  1.0948  0.4750
15986TIP3   OH269448   1.764   1.672  18.963 -0.5003 -0.0819 -0.1788
15986TIP3    H169449   1.687   1.624  18.996 -0.5686 -0.3788 -0.7599
15986TIP3    H269450   1.742   1.692  18.872  0.5075 -1.0154 -0.6412
15987TIP3   OH269451   2.459   1.289  24.409 -0.1557  0.5584 -0.2853
15987TIP3    H169452   2.375   1.323  24.440  0.2313  1.5774 -0.3152
15987TIP3    H269453   2.503   1.257  24.487 -0.8428 -0.6439 -0.3589
15988TIP3   OH269454   0.934   2.089 101.683  0.4542 -0.7910  0.1766
15988TIP3    H169455   0.987   2.098 101.605  0.3696 -0.6863  0.1279
15988TIP3    H269456   0.860   2.034 101.656  0.1852 -0.3824  0.0574
15989TIP3   OH269457   2.124   0.057  16.426 -0.3243 -0.5182 -0.1282
15989TIP3    H169458   2.176  -0.017  16.458  1.6950  0.3363 -1.2904
15989TIP3    H269459   2.126   0.121  16.497 -0.4506 -0.7806  0.1168
15990TIP3   OH269460   2.292   0.646  96.653 -0.5234 -0.1025 -0.0211
15990TIP3    H169461   2.218   0.684  96.605 -0.8366 -1.8436 -1.0143
15990TIP3    H269462   2.364   0.648  96.590 -0.8700 -2.1876 -0.5517
15991TIP3   OH269463   0.530   1.918  97.518 -0.0507  0.7521 -0.6856
15991TIP3    H169464   0.564   1.919  97.608 -0.1025 -0.4901 -0.6385
15991TIP3    H269465   0.441   1.884  97.526 -0.7749  2.4710 -1.0053
15992TIP3   OH269466   1.591   1.180  31.876 -0.2945  0.6372  0.7074
15992TIP3    H169467   1.683   1.195  31.900 -0.2327  1.7853 -0.1151
15992TIP3    H269468   1.591   1.185  31.780 -0.8407 -1.8076  0.5168
15993TIP3   OH269469   0.195   0.980  87.393  0.0518  0.6339  0.0365
15993TIP3    H169470   0.141   1.029  87.455 -1.3228  2.1945 -2.2538
15993TIP3    H269471   0.216   1.043  87.324  1.4612 -1.0316 -1.1497
15994TIP3   OH269472   1.997   1.981  36.074  0.3916 -0.0631  0.1623
15994TIP3    H169473   2.024   2.066  36.040 -0.6753  0.2215  0.0189
15994TIP3    H269474   1.993   1.925  35.997  0.7519 -0.1628  0.2133
15995TIP3   OH269475   1.562   0.698   0.465 -0.1801 -0.3898 -0.1391
15995TIP3    H169476   1.617   0.646   0.524  0.4515  0.8553  0.3973
15995TIP3    H269477   1.479   0.708   0.510 -0.1216 -0.4854 -0.0109
15996TIP3   OH269478   2.330   0.879  93.160 -0.3127  0.2720 -0.0905
15996TIP3    H169479   2.409   0.931  93.177 -0.5748  0.3871  0.8217
15996TIP3    H269480   2.259   0.930  93.200 -0.5375 -0.9307  1.0955
15997TIP3   OH269481   2.358   0.310   5.535 -0.2444  0.3311  0.2996
15997TIP3    H169482   2.353   0.282   5.626  0.7586  0.8538  0.5263
15997TIP3    H269483   2.289   0.375   5.525 -0.8140 -0.2303  0.4872
15998TIP3   OH269484   1.877   0.731 107.907 -0.4957  0.0574 -0.7092
15998TIP3    H169485   1.906   0.681 107.983 -0.3494  0.3035 -0.6032
15998TIP3    H269486   1.906   0.820 107.924  0.0162  0.0130 -1.3018
15999TIP3   OH269487   0.624   0.532  10.004  0.0625 -0.3940 -0.1221
15999TIP3    H169488   0.634   0.534   9.909  0.8660  0.4213 -0.0330
15999TIP3    H269489   0.557   0.597  10.023  0.5505  0.0964 -0.0638
16000TIP3   OH269490   0.306   0.207  13.945  0.3799 -0.3835  0.2550
16000TIP3    H169491   0.273   0.288  13.908 -0.5853 -0.2951  1.2580
16000TIP3    H269492   0.326   0.228  14.036 -0.1210 -1.3238  0.5987
16001TIP3   OH269493   1.453   2.636   1.544 -0.2360 -0.2347  0.5702
16001TIP3    H169494   1.543   2.605   1.553  0.3550  0.2810 -2.5299
16001TIP3    H269495   1.461   2.722   1.504 -2.1045  0.2912  1.2308
16002TIP3   OH269496   2.436   2.029  95.832 -0.1755 -0.0544 -0.3847
16002TIP3    H169497   2.475   1.941  95.839  0.6627  0.2900 -0.5471
16002TIP3    H269498   2.512   2.088  95.833 -0.7764  0.7384  0.8045
16003TIP3   OH269499   2.399   2.521  91.204  0.1745  0.1145  0.0363
16003TIP3    H169500   2.430   2.537  91.293  2.2416 -0.1462 -0.5774
16003TIP3    H269501   2.407   2.606  91.160 -1.1001  0.3092  0.1435
16004TIP3   OH269502   1.337   2.406  29.832 -0.5812  0.5882 -0.1342
16004TIP3    H169503   1.355   2.490  29.790  0.3583  0.6035  0.2895
16004TIP3    H269504   1.421   2.360  29.832 -1.3838 -1.0403 -1.8567
16005TIP3   OH269505   1.133   1.817   2.468 -0.1863 -0.0817 -0.0951
16005TIP3    H169506   1.117   1.894   2.522  1.9918  1.7395 -1.8252
16005TIP3    H269507   1.065   1.822   2.400 -1.1082 -0.7123  0.7518
16006TIP3   OH269508   1.474   2.091 109.610 -0.2399 -0.0201 -0.2800
16006TIP3    H169509   1.415   2.102 109.685 -0.2840  0.3174 -0.3623
16006TIP3    H269510   1.427   2.130 109.537  0.3732  0.8664 -0.2109
16007TIP3   OH269511   1.030   1.610  52.789  0.4075  0.0011 -0.3657
16007TIP3    H169512   1.069   1.637  52.872 -0.1451  0.3879 -0.2263
16007TIP3    H269513   1.090   1.645  52.722 -0.5659  2.1436 -0.2086
16008TIP3   OH269514   0.515   1.230 107.634 -0.1588  0.1425 -0.2370
16008TIP3    H169515   0.455   1.255 107.565 -0.0322 -0.0539 -0.4201
16008TIP3    H269516   0.508   1.299 107.699 -2.1311 -0.8819  0.7322
16009TIP3   OH269517   0.632   0.625  17.527  0.1587  0.4459 -0.4624
16009TIP3    H169518   0.556   0.621  17.469 -0.7068 -0.3424  0.6827
16009TIP3    H269519   0.697   0.569  17.486 -0.5749 -0.3920 -0.5077
16010TIP3   OH269520   0.779   1.880  84.885 -0.4882 -0.1020 -0.0934
16010TIP3    H169521   0.740   1.894  84.971 -0.0278 -1.0603  0.2835
16010TIP3    H269522   0.746   1.953  84.832 -1.4441  0.0408  0.6561
16011TIP3   OH269523   1.670   1.171   4.639  0.2986 -0.1077 -0.0605
16011TIP3    H169524   1.698   1.216   4.560 -0.0409 -1.0025 -0.7021
16011TIP3    H269525   1.680   1.236   4.709  0.2231  0.8106 -0.8959
16012TIP3   OH269526   1.409   1.567  30.696  0.7041 -0.5259 -0.2829
16012TIP3    H169527   1.462   1.595  30.621  1.5466 -0.9073  0.1600
16012TIP3    H269528   1.345   1.637  30.708  0.1978 -0.7025 -1.6903
16013TIP3   OH269529   2.016   0.390  23.192 -0.4325 -0.5119  0.4177
16013TIP3    H169530   1.989   0.439  23.269 -0.8706 -0.4618  0.2326
16013TIP3    H269531   1.935   0.356  23.155 -0.2820 -0.1206 -0.3022
16014TIP3   OH269532   0.762   2.574 101.253 -0.0346  0.1005 -0.0713
16014TIP3    H169533   0.750   2.636 101.181  1.4939  0.4110 -0.1037
16014TIP3    H269534   0.748   2.488 101.213  0.8910  0.2625 -0.8018
16015TIP3   OH269535   2.239   1.310   0.085 -0.1777  0.3624  0.1737
16015TIP3    H169536   2.306   1.281   0.023 -0.8494  0.1402 -0.4599
16015TIP3    H269537   2.283   1.309   0.171  0.2009 -1.2081 -0.0241
16016TIP3   OH269538   1.867   1.798  98.512 -0.4505  0.1103  0.5645
16016TIP3    H169539   1.905   1.834  98.432 -1.3294 -0.9659 -0.3718
16016TIP3    H269540   1.934   1.811  98.579 -0.1403  2.0551 -0.0757
16017TIP3   OH269541   2.174   1.651  20.628 -0.4769  0.3563 -0.0735
16017TIP3    H169542   2.080   1.636  20.640 -0.6229  1.1499 -0.1870
16017TIP3    H269543   2.185   1.658  20.533  0.0260 -1.7258 -0.2267
16018TIP3   OH269544   0.892   1.536  98.041 -0.3965 -0.0287 -0.2574
16018TIP3    H169545   0.880   1.509  97.950  0.7603 -0.8665 -0.1833
16018TIP3    H269546   0.965   1.598  98.038 -0.7286  0.3909  0.0449
16019TIP3   OH269547   0.962   2.153  12.929 -0.8069  0.2023 -0.2597
16019TIP3    H169548   0.977   2.180  12.838 -1.2400  0.6356 -0.2069
16019TIP3    H269549   0.878   2.193  12.952 -0.3617  0.6743  0.5605
16020TIP3   OH269550   0.892   0.067  28.351 -0.3307 -0.3461 -0.3602
16020TIP3    H169551   0.946  -0.009  28.376 -1.4215 -1.0536 -0.1061
16020TIP3    H269552   0.939   0.142  28.388  0.2971 -0.9733  0.1617
16021TIP3   OH269553   2.500   1.593  11.774  0.3782  0.1016 -0.0321
16021TIP3    H169554   2.497   1.687  11.793  1.1882  0.0163  0.5994
16021TIP3    H269555   2.586   1.565  11.807 -0.4565 -1.1596  1.2143
16022TIP3   OH269556   0.461   1.320 110.120  0.4205 -0.4117 -0.7003
16022TIP3    H169557   0.425   1.266 110.190 -0.5995  0.2549 -0.6760
16022TIP3    H269558   0.447   1.269 110.040 -0.1765 -0.3667 -0.6296
16023TIP3   OH269559   2.312   1.909  24.347 -0.2065  0.2763  0.3421
16023TIP3    H169560   2.245   1.864  24.294 -1.1866  0.3309  1.4749
16023TIP3    H269561   2.262   1.972  24.399  0.7651  0.4318  1.1040
16024TIP3   OH269562   2.338   0.989  85.441 -0.4053  0.4331  0.2926
16024TIP3    H169563   2.319   0.896  85.432  1.5320  0.0392 -0.2802
16024TIP3    H269564   2.259   1.033  85.411 -1.2236 -1.0097  0.2381
16025TIP3   OH269565   1.201   1.666  10.147 -0.4484  0.0166  0.0232
16025TIP3    H169566   1.194   1.581  10.104  0.4510  0.7376 -1.6437
16025TIP3    H269567   1.198   1.730  10.076 -0.3565  1.3547  1.1630
16026TIP3   OH269568   1.749   2.085 110.336 -0.2795  0.3735 -0.2783
16026TIP3    H169569   1.678   2.066 110.274 -0.7366  1.0244  0.0338
16026TIP3    H269570   1.800   2.154 110.293  0.8380 -0.8429 -1.0019
16027TIP3   OH269571   0.609   2.286 111.460 -0.0731 -0.4346 -0.2808
16027TIP3    H169572   0.575   2.373 111.439  1.0652  0.7895  2.4905
16027TIP3    H269573   0.535   2.240 111.500  0.1731  0.5360  1.3786
16028TIP3   OH269574   1.064   2.044  83.728 -0.0947  0.3642  0.0729
16028TIP3    H169575   1.102   2.038  83.815 -0.5321  1.3408  0.3421
16028TIP3    H269576   1.013   1.964  83.719  1.8000 -0.8669 -0.2141
16029TIP3   OH269577   2.127   1.206 103.583  0.3394  0.0997 -0.4729
16029TIP3    H169578   2.143   1.162 103.499  1.4895  0.5844 -0.5324
16029TIP3    H269579   2.214   1.232 103.613 -0.1326  0.5835  0.5151
16030TIP3   OH269580   2.580   0.187  89.686 -0.2681 -0.4245 -0.0843
16030TIP3    H169581   2.609   0.278  89.680 -0.0793 -0.4469  0.4549
16030TIP3    H269582   2.485   0.194  89.702 -0.2083 -0.3174  0.2302
16031TIP3   OH269583   2.007   0.869 101.789 -0.3632 -0.7046  0.1685
16031TIP3    H169584   2.020   0.873 101.883  0.5981 -1.9199  0.1159
16031TIP3    H269585   1.915   0.889 101.776 -0.3556  0.1781  1.2920
16032TIP3   OH269586   1.534   1.984   0.662  0.0062 -0.1605  0.1798
16032TIP3    H169587   1.598   1.967   0.593  1.9915  0.3499  1.7972
16032TIP3    H269588   1.504   1.897   0.688  1.0464 -0.5126  0.2625
16033TIP3   OH269589   1.259   2.618  32.441  0.0898  0.2844  0.2929
16033TIP3    H169590   1.257   2.663  32.357  1.8814 -0.9719 -0.4688
16033TIP3    H269591   1.175   2.570  32.445 -0.5082  1.2646 -0.2255
16034TIP3   OH269592   0.339   0.282 104.609 -0.0426 -0.0725  0.0724
16034TIP3    H169593   0.365   0.208 104.665  0.5596  0.5263  0.6034
16034TIP3    H269594   0.418   0.335 104.601 -0.7705  1.1568  0.7136
16035TIP3   OH269595   1.486   0.367  14.932  0.5758 -0.4791 -0.1369
16035TIP3    H169596   1.487   0.396  15.023 -1.7116 -0.9606  0.1031
16035TIP3    H269597   1.416   0.419  14.891  0.4753 -1.4049 -1.1902
16036TIP3   OH269598   1.619   0.893  89.589  0.6982  0.4368  0.2369
16036TIP3    H169599   1.547   0.898  89.527  0.2838 -2.8703  0.2431
16036TIP3    H269600   1.582   0.922  89.672 -0.0659  0.6150 -0.1617
16037TIP3   OH269601   2.370   2.424  86.030  0.1312  0.5879  0.2380
16037TIP3    H169602   2.324   2.367  86.092 -0.6818  2.0920  1.0933
16037TIP3    H269603   2.382   2.370  85.952 -0.0649 -0.9236  1.2105
16038TIP3   OH269604   2.011   1.790  93.545 -0.1040  0.2831 -0.2535
16038TIP3    H169605   1.938   1.773  93.603 -0.0158  2.0907  0.4260
16038TIP3    H269606   1.985   1.751  93.461 -1.4518  0.1422  0.2112
16039TIP3   OH269607   2.168   1.279  80.721 -0.4517  0.1937  0.3655
16039TIP3    H169608   2.170   1.186  80.699 -2.3362  0.3959 -0.8944
16039TIP3    H269609   2.217   1.322  80.651  0.4260  0.1716  0.9524
16040TIP3   OH269610   0.889   0.426 104.480 -0.6739 -0.2999  0.1738
16040TIP3    H169611   0.890   0.494 104.547 -0.8347  0.0222 -0.1446
16040TIP3    H269612   0.950   0.458 104.413 -1.2548 -0.1381 -0.2909
16041TIP3   OH269613   0.352   0.038  93.243  0.1898 -0.4865 -0.0103
16041TIP3    H169614   0.307  -0.044  93.264 -0.7081 -0.1187 -0.4443
16041TIP3    H269615   0.417   0.014  93.177  0.8873 -1.0827  0.8626
16042TIP3   OH269616   1.302   0.065  92.137  0.6206 -0.0466  0.0778
16042TIP3    H169617   1.294   0.160  92.140  1.6832  0.0253  0.8980
16042TIP3    H269618   1.225   0.033  92.185 -1.0235  0.3024 -2.1722
16043TIP3   OH269619   0.605   0.176  94.703 -0.2405 -0.8438  0.1415
16043TIP3    H169620   0.635   0.085  94.706 -1.9977 -1.4419  1.0349
16043TIP3    H269621   0.509   0.170  94.707 -0.3921  1.0562  0.2680
16044TIP3   OH269622   0.010   1.013  14.928 -0.2308 -0.0611  0.8951
16044TIP3    H169623   0.028   1.058  14.845 -0.9865  2.0573  1.7946
16044TIP3    H269624  -0.072   0.966  14.912  0.9560 -1.8437 -0.2965
16045TIP3   OH269625   1.764   1.565 111.579 -0.5583 -0.1204  0.4294
16045TIP3    H169626   1.761   1.523 111.494  0.4288 -0.0606  0.3558
16045TIP3    H269627   1.818   1.508 111.633  1.5183  1.3913  0.0974
16046TIP3   OH269628   1.882   1.040 100.029 -0.1420 -0.5713 -0.1615
16046TIP3    H169629   1.851   1.128 100.048  1.1597  0.0121 -0.6232
16046TIP3    H269630   1.977   1.048 100.025  0.1054 -2.2509  1.0446
16047TIP3   OH269631   1.672   0.295  82.436  0.0813 -0.2323  0.5250
16047TIP3    H169632   1.736   0.225  82.420 -0.0502 -0.7582  2.0732
16047TIP3    H269633   1.595   0.249  82.469 -0.4546  0.5445  0.3559
16048TIP3   OH269634   1.738   2.565  31.513 -0.0277 -0.2801 -0.0460
16048TIP3    H169635   1.701   2.618  31.443  0.4586 -0.8833 -0.7749
16048TIP3    H269636   1.666   2.553  31.575 -0.5572 -0.0184 -0.6014
16049TIP3   OH269637   1.369   2.575  92.343  0.0684 -0.1004 -0.2333
16049TIP3    H169638   1.459   2.548  92.362  0.6257  1.1215 -1.0143
16049TIP3    H269639   1.361   2.566  92.248  0.2948  2.4268 -0.5418
16050TIP3   OH269640   1.792   0.076  20.031  0.1234 -0.0368  0.5624
16050TIP3    H169641   1.881   0.112  20.038  0.7581 -1.6124  0.9792
16050TIP3    H269642   1.785   0.017  20.106 -1.3871  0.2702  0.6811
16051TIP3   OH269643   1.185   0.631  29.540 -0.2919 -0.3738  0.0988
16051TIP3    H169644   1.219   0.720  29.545  1.1440 -0.9605  1.5606
16051TIP3    H269645   1.141   0.616  29.624 -1.3220 -0.7641 -0.4837
16052TIP3   OH269646   1.616   1.455  25.866 -0.3570 -0.3149  0.4302
16052TIP3    H169647   1.621   1.462  25.961 -1.3676 -0.7714  0.5338
16052TIP3    H269648   1.647   1.539  25.834  1.5655 -0.7183  1.0942
16053TIP3   OH269649   1.371   2.496 106.573  0.5546  0.1420 -0.7862
16053TIP3    H169650   1.436   2.555 106.534 -0.7699  1.2195 -1.4556
16053TIP3    H269651   1.366   2.523 106.664  0.9320  0.1612 -0.7672
16054TIP3   OH269652   1.152   2.270  85.137 -0.2267  0.4923  0.9764
16054TIP3    H169653   1.166   2.354  85.180  2.2631  0.5885  0.1030
16054TIP3    H269654   1.071   2.283  85.086 -0.3521  2.0551  1.5214
16055TIP3   OH269655   1.382   0.964 108.972  0.5377  0.3313 -0.4355
16055TIP3    H169656   1.379   0.962 109.068  0.6117  0.9870 -0.4160
16055TIP3    H269657   1.417   1.050 108.951  0.2059  0.3211 -1.0620
16056TIP3   OH269658   1.913   1.307  93.014 -0.1270 -0.3482  0.2401
16056TIP3    H169659   1.821   1.334  93.003 -0.1535  0.1540  1.5002
16056TIP3    H269660   1.946   1.299  92.925 -1.4312 -0.6606 -0.2431
16057TIP3   OH269661   1.368   2.248  78.396  0.0014  0.3726  0.3748
16057TIP3    H169662   1.323   2.317  78.446 -1.5753 -0.8958  0.7868
16057TIP3    H269663   1.297   2.198  78.356  1.1790  1.2694 -3.1474
16058TIP3   OH269664   1.108   0.261  75.217 -0.3184 -0.0573  0.1558
16058TIP3    H169665   1.037   0.309  75.259 -0.1138 -1.0565  1.7312
16058TIP3    H269666   1.106   0.289  75.126 -1.5631  1.2926  0.5744
16059TIP3   OH269667   0.213   0.409  90.253 -0.3651 -0.2413  0.0715
16059TIP3    H169668   0.250   0.457  90.327 -0.4622  0.6483 -0.4335
16059TIP3    H269669   0.119   0.408  90.270 -0.4423  0.4225 -0.2912
16060TIP3   OH269670   1.405   0.114 112.053 -0.1190 -0.2637  0.0010
16060TIP3    H169671   1.412   0.054 112.127 -0.2950  0.6244  0.7556
16060TIP3    H269672   1.472   0.180 112.069  0.0153 -0.2063 -0.7730
16061TIP3   OH269673   0.731   2.536  14.000 -0.3135 -0.0763 -0.3312
16061TIP3    H169674   0.654   2.553  13.946 -1.7236 -0.0703  1.5839
16061TIP3    H269675   0.758   2.447  13.977 -1.4996 -0.4422 -0.3679
16062TIP3   OH269676   0.015   1.077  90.348 -0.2562 -0.0530 -0.6881
16062TIP3    H169677   0.038   1.034  90.265 -1.5850 -0.8724 -0.6616
16062TIP3    H269678   0.034   1.011  90.414  0.0098  0.2950 -0.4169
16063TIP3   OH269679   0.042   0.520  37.640 -0.2823 -0.1190 -0.0291
16063TIP3    H169680   0.122   0.520  37.586  0.0739  0.1012  0.4833
16063TIP3    H269681  -0.026   0.488  37.582 -0.0656  0.8468 -0.8516
16064TIP3   OH269682   0.931   2.548  75.422 -0.0657  0.0735  0.3222
16064TIP3    H169683   1.020   2.513  75.430 -0.8019 -1.9792  0.2317
16064TIP3    H269684   0.915   2.552  75.327 -0.0542  0.4364  0.3354
16065TIP3   OH269685   0.912   0.068  35.192 -0.1227 -0.2736 -0.3072
16065TIP3    H169686   0.923   0.150  35.240 -1.0643  0.6164 -1.5630
16065TIP3    H269687   0.993   0.020  35.209 -0.4017 -0.0105  2.1428
16066TIP3   OH269688   2.166   1.068  92.774 -0.0530  0.2155 -0.4555
16066TIP3    H169689   2.227   1.096  92.705  0.7584  0.6010  0.4091
16066TIP3    H269690   2.213   1.001  92.823 -0.7807 -0.3498 -0.5043
16067TIP3   OH269691   0.882   1.203  90.590  0.4800 -0.3755 -0.3075
16067TIP3    H169692   0.917   1.114  90.595  1.2048 -0.1264 -0.7828
16067TIP3    H269693   0.952   1.258  90.626 -0.6160 -0.1298  1.6139
16068TIP3   OH269694   1.366   2.256  35.709  0.0456 -0.3150  0.1653
16068TIP3    H169695   1.371   2.291  35.799  0.4503  0.1308 -0.0243
16068TIP3    H269696   1.429   2.184  35.708  2.5687  1.7299 -0.6451
16069TIP3   OH269697   0.920   1.924   3.165 -0.3290 -0.1402  0.0777
16069TIP3    H169698   0.908   1.914   3.260 -1.8233  1.2424  0.0805
16069TIP3    H269699   0.942   2.017   3.154 -0.0489 -0.3212 -0.9186
16070TIP3   OH269700   1.177   1.703  14.445  0.2659  0.1331  0.0289
16070TIP3    H169701   1.131   1.784  14.425  2.1704  0.7718 -2.1850
16070TIP3    H269702   1.204   1.712  14.536 -0.0714  1.7196 -0.0007
16071TIP3   OH269703   1.933   2.587  83.373 -0.0752  0.2373  0.1188
16071TIP3    H169704   2.025   2.576  83.394 -0.2698 -0.6383  0.5656
16071TIP3    H269705   1.902   2.498  83.353 -0.7312  0.5690 -0.4072
16072TIP3   OH269706   1.808   2.529  12.491 -0.5405  0.5013  0.4223
16072TIP3    H169707   1.758   2.589  12.547  0.8015  1.6181  0.4881
16072TIP3    H269708   1.894   2.524  12.533 -0.2702 -0.5647 -0.2368
16073TIP3   OH269709   2.215   0.682  85.022 -0.0384 -0.1726 -0.3654
16073TIP3    H169710   2.234   0.589  85.018  1.3040  0.0781 -0.4445
16073TIP3    H269711   2.297   0.722  85.053 -0.8681  0.8884  0.5547
16074TIP3   OH269712   2.056   2.462  36.243  0.0118 -0.4558 -0.3523
16074TIP3    H169713   2.144   2.490  36.218 -0.7836  0.3589 -2.4674
16074TIP3    H269714   2.069   2.411  36.323  2.6224 -1.8722 -1.5420
16075TIP3   OH269715   2.071   0.827  36.689 -0.0291  0.2737 -0.0849
16075TIP3    H169716   2.066   0.763  36.617  1.7730 -0.1771  0.1375
16075TIP3    H269717   2.073   0.773  36.768  0.4841  0.6561  0.1636
16076TIP3   OH269718   0.148   0.709 102.523  0.1310 -0.2585  0.2953
16076TIP3    H169719   0.138   0.800 102.551  0.7422 -0.2164  0.4047
16076TIP3    H269720   0.228   0.680 102.567  0.0402 -0.7875  0.1145
16077TIP3   OH269721   1.644   2.050  48.652 -0.5228 -0.2194 -1.1501
16077TIP3    H169722   1.667   2.029  48.562 -2.9972 -0.8848 -1.6927
16077TIP3    H269723   1.647   2.145  48.657  1.2707 -0.2267 -1.4115
16078TIP3   OH269724   1.598   1.549   0.134  0.1060  0.7820 -0.1834
16078TIP3    H169725   1.605   1.454   0.135 -1.4326  0.6170  1.6819
16078TIP3    H269726   1.544   1.569   0.058  1.2512  0.2701 -1.1530
16079TIP3   OH269727   0.469   1.655  82.050  0.3986 -0.3679 -0.5360
16079TIP3    H169728   0.415   1.580  82.074 -0.6025 -0.2769 -2.3160
16079TIP3    H269729   0.509   1.684  82.132 -2.3407 -0.3638  0.8862
16080TIP3   OH269730   1.981   1.208 112.197 -0.1723 -0.0451 -0.0397
16080TIP3    H169731   1.928   1.270 112.246 -0.7872  0.1976 -0.9771
16080TIP3    H269732   2.071   1.224 112.227 -0.4897  0.3503  0.7115
16081TIP3   OH269733   0.585   1.088  99.762  0.5109  0.8241  0.2796
16081TIP3    H169734   0.584   1.074  99.668  1.0416  1.0609  0.2349
16081TIP3    H269735   0.493   1.083  99.788  0.5473 -2.4048  0.2165
16082TIP3   OH269736   2.681   1.626 100.617 -0.1172 -0.3471  0.5514
16082TIP3    H169737   2.682   1.543 100.570  1.2024  0.6433 -1.3029
16082TIP3    H269738   2.753   1.620 100.680 -0.7937 -1.0170  1.2943
16083TIP3   OH269739   2.312   1.051  22.485 -0.0227  0.0850  0.0512
16083TIP3    H169740   2.388   1.091  22.526 -0.1557  2.2236 -1.5815
16083TIP3    H269741   2.347   1.005  22.408 -0.1669 -0.8118  0.5067
16084TIP3   OH269742   0.525   0.019 109.795 -0.0308 -0.2801 -0.3413
16084TIP3    H169743   0.460   0.070 109.843 -0.5539 -0.8045 -0.4776
16084TIP3    H269744   0.544  -0.056 109.852 -0.3709 -0.7057 -0.7858
16085TIP3   OH269745   1.973   1.724  63.300 -0.1708  0.4111  0.6429
16085TIP3    H169746   1.954   1.633  63.278  0.8070  0.9746 -3.3676
16085TIP3    H269747   1.955   1.772  63.219  1.0055  3.5091  2.0802
16086TIP3   OH269748   0.949   1.633   8.653 -0.0301 -0.5661  0.3427
16086TIP3    H169749   1.036   1.629   8.694 -1.2489 -0.5433  3.1403
16086TIP3    H269750   0.894   1.578   8.709 -2.0822  0.3791 -0.6573
16087TIP3   OH269751   1.725   2.613  21.884  0.4100  0.3814  0.0450
16087TIP3    H169752   1.712   2.708  21.886  0.9953  0.4741 -0.1804
16087TIP3    H269753   1.644   2.576  21.919  0.0893  0.9572 -0.0855
16088TIP3   OH269754   1.272   2.553  26.005  0.2006 -0.2145  0.5759
16088TIP3    H169755   1.256   2.644  25.981  1.5873 -0.2989 -0.8375
16088TIP3    H269756   1.197   2.505  25.970 -0.5950  0.3584  1.4301
16089TIP3   OH269757   2.644   0.829   4.826 -0.7122 -0.6470 -0.1597
16089TIP3    H169758   2.646   0.798   4.736  0.4245 -0.8329 -0.0851
16089TIP3    H269759   2.665   0.922   4.820 -1.0909 -0.5579 -0.1223
16090TIP3   OH269760   1.213   1.193  28.262 -0.1189  0.1358 -0.3927
16090TIP3    H169761   1.207   1.270  28.205  0.2017 -0.1821 -0.8707
16090TIP3    H269762   1.132   1.145  28.247 -0.4141  0.4859  0.0678
16091TIP3   OH269763   1.200   0.443  26.691 -0.0032  0.0358  0.1791
16091TIP3    H169764   1.143   0.388  26.744  1.6643 -1.7549  0.2504
16091TIP3    H269765   1.280   0.452  26.744  1.0331 -0.3311 -1.2608
16092TIP3   OH269766   0.243   0.201  96.199  0.3686  0.2803  0.1189
16092TIP3    H169767   0.242   0.105  96.195  1.0778  0.2812 -0.5028
16092TIP3    H269768   0.204   0.228  96.116 -0.7288  0.5497  0.7154
16093TIP3   OH269769   0.221   1.272  19.989 -0.1404  0.1833 -0.0371
16093TIP3    H169770   0.242   1.283  20.082  0.2326 -0.9549  0.0240
16093TIP3    H269771   0.307   1.263  19.946 -0.3625 -1.4814 -0.1868
16094TIP3   OH269772   0.972   0.787  22.045 -0.3006  0.1906 -0.4016
16094TIP3    H169773   0.922   0.729  21.988 -1.0924  0.1789  0.2872
16094TIP3    H269774   0.990   0.864  21.991 -0.0015 -0.3143 -1.0385
16095TIP3   OH269775   0.103   1.716 108.473  0.4531 -0.0478  0.1134
16095TIP3    H169776   0.135   1.678 108.554  1.7509 -0.9023 -0.7510
16095TIP3    H269777   0.100   1.643 108.411 -1.5427  0.3630 -0.3493
16096TIP3   OH269778   0.841   0.811 106.865  0.2338 -0.3750  0.3313
16096TIP3    H169779   0.872   0.900 106.849  0.4965 -0.5568 -0.1884
16096TIP3    H269780   0.875   0.790 106.952 -0.2199  0.1958  0.6525
16097TIP3   OH269781   1.369   0.436  25.508  0.2691  0.2019 -0.3189
16097TIP3    H169782   1.444   0.430  25.567  0.8831 -2.4650 -1.2301
16097TIP3    H269783   1.403   0.484  25.432  0.0465  1.8621  0.5741
16098TIP3   OH269784   0.777   0.821  25.829 -0.2492 -0.2073  0.2915
16098TIP3    H169785   0.811   0.853  25.745  1.4277 -0.4872  0.8362
16098TIP3    H269786   0.762   0.900  25.880  0.8033 -0.1317  0.4897
16099TIP3   OH269787   0.447   1.037  94.850 -0.2784  0.2963  0.2787
16099TIP3    H169788   0.492   1.101  94.907 -0.5083 -0.5740  1.4704
16099TIP3    H269789   0.435   1.084  94.768 -0.7108  1.9175  1.2014
16100TIP3   OH269790   2.174   1.912  85.526  0.1684  0.2342  0.1824
16100TIP3    H169791   2.147   1.900  85.435  0.4246 -0.7195  0.2181
16100TIP3    H269792   2.108   1.866  85.578  0.5358 -0.0242  0.4235
16101TIP3   OH269793   2.021   1.773  33.080 -0.2924 -0.0805 -0.1103
16101TIP3    H169794   1.979   1.836  33.138 -0.3875 -0.9884  0.8415
16101TIP3    H269795   1.957   1.758  33.010 -0.3067  0.7863 -0.2840
16102TIP3   OH269796   2.390   1.506  31.538 -0.0355  0.2846 -0.6311
16102TIP3    H169797   2.317   1.512  31.600  0.7261 -0.4804  0.3681
16102TIP3    H269798   2.376   1.422  31.493  0.6389 -0.2521  0.1291
16103TIP3   OH269799   0.278   0.705 102.264 -0.5402  0.6032  0.3099
16103TIP3    H169800   0.195   0.692 102.309 -0.0047  0.0888  1.1927
16103TIP3    H269801   0.329   0.626 102.284 -0.4564  0.1096 -1.6445
16104TIP3   OH269802   0.954   2.467  95.769  0.4121 -0.6736 -0.0947
16104TIP3    H169803   0.986   2.521  95.842  0.2992 -0.6437 -0.0670
16104TIP3    H269804   0.997   2.504  95.692 -1.8760  1.3506 -0.5182
16105TIP3   OH269805   0.814   1.354  80.033 -0.8807 -0.0407  0.7308
16105TIP3    H169806   0.744   1.292  80.056 -0.3776 -0.5493  0.9170
16105TIP3    H269807   0.772   1.440  80.038 -2.0078 -0.4405 -1.0303
16106TIP3   OH269808   1.133   2.226  26.725 -0.3423  0.0919  0.8558
16106TIP3    H169809   1.106   2.177  26.648 -0.9002 -1.7972  2.1836
16106TIP3    H269810   1.075   2.196  26.795  0.2353  1.6324  2.0692
16107TIP3   OH269811   2.684   0.762  35.395  0.0578 -0.2888 -0.0944
16107TIP3    H169812   2.777   0.743  35.405 -0.2365 -2.2722 -0.7958
16107TIP3    H269813   2.680   0.829  35.327  0.9524 -0.3241 -0.1916
16108TIP3   OH269814   0.442   1.301  29.248 -0.3409 -0.4786  0.7598
16108TIP3    H169815   0.403   1.267  29.168  0.6418  0.5231 -0.1795
16108TIP3    H269816   0.419   1.394  29.249  0.1870 -0.3440  1.3034
16109TIP3   OH269817   0.154   2.293  83.611 -0.2831 -0.2532 -0.3190
16109TIP3    H169818   0.112   2.225  83.558 -1.9453  0.8765 -0.5378
16109TIP3    H269819   0.233   2.251  83.646 -0.7746 -1.9874 -1.1790
16110TIP3   OH269820   0.277   1.450 106.040 -0.1450  0.3305  0.7684
16110TIP3    H169821   0.305   1.540 106.025 -1.2726  0.6763  0.6587
16110TIP3    H269822   0.196   1.458 106.091 -1.6184 -0.4869 -1.2635
16111TIP3   OH269823   0.777   0.722  15.583  0.4815 -0.0516 -0.4114
16111TIP3    H169824   0.714   0.781  15.624  0.0095 -1.1455  0.4919
16111TIP3    H269825   0.726   0.645  15.559  1.4614 -0.9969  0.4039
16112TIP3   OH269826   0.046   2.472 103.010 -0.2312 -0.0727 -0.1372
16112TIP3    H169827   0.126   2.477 102.958  0.4723  0.5167  0.9764
16112TIP3    H269828   0.056   2.539 103.077 -0.7565 -1.3337  1.2551
16113TIP3   OH269829   2.185   0.366  36.376 -0.1666  0.1764 -0.5440
16113TIP3    H169830   2.099   0.371  36.419  0.2283  2.6262  0.1237
16113TIP3    H269831   2.173   0.302  36.306 -2.0799 -0.6997  0.5089
16114TIP3   OH269832   0.370   1.964 110.363  0.0720 -0.3400 -0.3381
16114TIP3    H169833   0.402   1.878 110.389  1.2199  0.1240 -0.1532
16114TIP3    H269834   0.394   2.021 110.436 -1.9749 -0.1035  0.2154
16115TIP3   OH269835   2.165   2.490  45.788 -0.1440  0.1842 -0.0827
16115TIP3    H169836   2.096   2.474  45.723 -0.0950  0.7826 -0.2926
16115TIP3    H269837   2.129   2.559  45.844  0.0613  0.1028  0.1464
16116TIP3   OH269838   0.872   0.902  12.961  0.0359  0.3122 -0.3348
16116TIP3    H169839   0.856   0.981  13.012  0.8597 -0.0827  0.5674
16116TIP3    H269840   0.967   0.889  12.966  0.2430  0.5721 -2.4489
16117TIP3   OH269841   2.200   0.487  48.085 -0.5008  0.1039  0.4157
16117TIP3    H169842   2.254   0.428  48.032  2.0937  0.3759  2.5797
16117TIP3    H269843   2.165   0.549  48.022  0.9597 -0.6566 -1.2422
16118TIP3   OH269844   1.757   2.355  11.859 -0.1483 -0.4388  0.2583
16118TIP3    H169845   1.729   2.436  11.817 -2.2001 -0.4650  1.4680
16118TIP3    H269846   1.850   2.368  11.877 -0.1408  1.1028 -0.7272
16119TIP3   OH269847   2.610   0.996  11.642  0.4486  0.1971  0.1049
16119TIP3    H169848   2.562   1.021  11.721  2.1607  1.6492  0.7458
16119TIP3    H269849   2.542   0.970  11.580 -1.0052 -0.0217  1.6981
16120TIP3   OH269850   1.132   1.485  20.428  0.5861 -0.6743  0.0883
16120TIP3    H169851   1.135   1.415  20.493 -0.5878 -0.9805 -0.1668
16120TIP3    H269852   1.216   1.477  20.381  0.6344 -1.6681  0.3098
16121TIP3   OH269853   0.796   2.583  32.738  0.4129 -0.0205  0.0422
16121TIP3    H169854   0.885   2.580  32.772 -0.0696 -2.5859  1.3655
16121TIP3    H269855   0.743   2.539  32.805 -1.3606 -1.1718 -1.9625
16122TIP3   OH269856   2.068   2.071 110.753 -0.4905 -0.4295  0.4044
16122TIP3    H169857   1.998   2.081 110.688  0.1563 -0.1506 -0.2539
16122TIP3    H269858   2.098   2.160 110.770  1.2838 -0.6808 -1.0805
16123TIP3   OH269859   0.809   1.132   6.644  0.5200  0.0398 -0.4385
16123TIP3    H169860   0.777   1.123   6.734  1.0746  0.2456 -0.2169
16123TIP3    H269861   0.730   1.123   6.590  0.1048  0.4182  0.0875
16124TIP3   OH269862   1.493   1.198  30.537 -0.2842 -0.2943 -0.4115
16124TIP3    H169863   1.566   1.259  30.540 -0.2331 -0.2719 -1.6473
16124TIP3    H269864   1.510   1.136  30.608  0.6494  0.0253 -0.3534
16125TIP3   OH269865   1.113   0.967  76.279  0.5675  0.0296 -0.4776
16125TIP3    H169866   1.175   0.990  76.349  0.6263  0.4537 -0.6629
16125TIP3    H269867   1.112   0.871  76.279  1.0613  0.0211 -0.3265
16126TIP3   OH269868   1.877   2.417  86.588 -0.1433  0.2390  0.2205
16126TIP3    H169869   1.790   2.433  86.626 -0.3052 -0.6116  0.2279
16126TIP3    H269870   1.874   2.325  86.561  1.3527 -0.3046  1.7785
16127TIP3   OH269871   1.416   1.450  95.151  0.0581  0.0101 -0.5249
16127TIP3    H169872   1.436   1.544  95.143  0.5696 -0.0230  0.2534
16127TIP3    H269873   1.336   1.438  95.099 -1.4807  1.3778  1.3729
16128TIP3   OH269874   0.175   1.268  84.608  0.1319 -0.7027  0.5247
16128TIP3    H169875   0.222   1.239  84.529  0.7228  0.0472  0.5902
16128TIP3    H269876   0.083   1.257  84.585  0.1524  1.9615 -1.3007
16129TIP3   OH269877   2.628   0.730 112.180 -0.0085  0.2969  0.1841
16129TIP3    H169878   2.676   0.680 112.247  0.9497 -0.1791 -0.8394
16129TIP3    H269879   2.693   0.789 112.144 -0.8320  1.4164  0.4906
16130TIP3   OH269880   2.262   0.169  28.208 -0.2851  0.1912 -0.4367
16130TIP3    H169881   2.194   0.124  28.258  0.2544  0.0847  0.2188
16130TIP3    H269882   2.332   0.186  28.272  0.1579  0.6078 -1.0165
16131TIP3   OH269883   1.066   0.493  34.674  0.3139 -0.0264 -0.0762
16131TIP3    H169884   1.121   0.428  34.717  0.6603  0.9260  0.9819
16131TIP3    H269885   1.016   0.533  34.745 -1.8832 -0.9525 -1.0361
16132TIP3   OH269886   1.501   1.823  96.674  0.1038 -0.0797  0.4180
16132TIP3    H169887   1.555   1.751  96.706 -0.1503 -0.3483  0.2478
16132TIP3    H269888   1.555   1.864  96.606  1.2588  1.3867  2.1145
16133TIP3   OH269889   1.635   2.671  88.217  0.0456 -0.1256 -0.2284
16133TIP3    H169890   1.709   2.619  88.251  0.5704 -0.0265 -1.1951
16133TIP3    H269891   1.640   2.661  88.122 -0.5450  0.7616 -0.3656
16134TIP3   OH269892   0.338   0.792   6.938  0.3368 -0.0946 -0.1504
16134TIP3    H169893   0.247   0.802   6.966  0.5647  0.1649  0.5325
16134TIP3    H269894   0.333   0.749   6.853 -0.3813 -1.1079  0.3888
16135TIP3   OH269895   2.466   0.762  83.629 -0.3921  0.3660 -0.7418
16135TIP3    H169896   2.462   0.666  83.635 -0.1217  0.3677 -0.5026
16135TIP3    H269897   2.554   0.784  83.661 -0.4624  0.6935 -0.7729
16136TIP3   OH269898   0.973   0.136 108.041  0.0696 -0.2923 -0.1144
16136TIP3    H169899   0.908   0.068 108.023 -0.8508  0.1012  1.5551
16136TIP3    H269900   0.964   0.198 107.968 -0.3769 -0.9910 -0.6680
16137TIP3   OH269901   0.565   1.112  82.669 -0.7657  0.1020 -0.1195
16137TIP3    H169902   0.476   1.120  82.636 -0.0740  1.5071 -1.8254
16137TIP3    H269903   0.595   1.027  82.638 -1.1872  0.0633 -0.4273
16138TIP3   OH269904   0.006   1.357  66.997 -0.3684 -0.0324  0.6888
16138TIP3    H169905   0.099   1.332  67.003  0.1109  1.8317  1.8869
16138TIP3    H269906   0.007   1.444  66.957 -1.4336  0.8206  2.4090
16139TIP3   OH269907   0.752   2.550 110.879 -0.0674 -0.6225  0.9445
16139TIP3    H169908   0.741   2.492 110.955 -0.5977 -1.1442  0.4833
16139TIP3    H269909   0.669   2.543 110.831 -1.7315  3.3131  2.7525
16140TIP3   OH269910   1.449   0.332   7.969 -0.4646 -0.2562 -0.4118
16140TIP3    H169911   1.369   0.342   7.918  0.3879  1.3569 -1.4710
16140TIP3    H269912   1.520   0.348   7.908  0.6923 -1.2469  0.6052
16141TIP3   OH269913   0.872   1.665  97.486 -0.3512 -0.3953 -0.1376
16141TIP3    H169914   0.920   1.740  97.520  0.2346 -0.7517 -0.1709
16141TIP3    H269915   0.785   1.699  97.465  0.2864  0.5794 -1.3379
16142TIP3   OH269916   0.993   1.334  96.681 -0.2031  0.2059 -0.3780
16142TIP3    H169917   0.931   1.303  96.747 -0.3260  2.9781  0.9213
16142TIP3    H269918   0.955   1.305  96.598 -1.8933 -0.3697  0.5391
16143TIP3   OH269919   0.009   2.382  19.554 -0.1292 -0.3336 -0.3480
16143TIP3    H169920   0.028   2.310  19.495 -0.2022  1.1943 -2.3452
16143TIP3    H269921  -0.073   2.419  19.521 -0.2899  0.4344  0.8515
16144TIP3   OH269922   0.291   2.483  14.370  0.2675 -0.4687 -0.2190
16144TIP3    H169923   0.374   2.520  14.338  0.0090 -2.1278 -3.1175
16144TIP3    H269924   0.224   2.536  14.329 -0.1200 -0.5917  0.2490
16145TIP3   OH269925   1.480   0.730  26.322  0.6194  0.0033 -0.3475
16145TIP3    H169926   1.385   0.725  26.307  0.5732 -0.2741  0.0516
16145TIP3    H269927   1.511   0.789  26.253 -0.0102  1.0417  0.2294
16146TIP3   OH269928   2.323   1.250  85.942  0.0719 -1.0552 -0.5065
16146TIP3    H169929   2.310   1.206  85.858  1.7479  1.5386 -2.2696
16146TIP3    H269930   2.275   1.332  85.934  2.1022  0.2592  0.1342
16147TIP3   OH269931   0.717   1.229   9.484 -0.6803  0.1286  0.0820
16147TIP3    H169932   0.713   1.275   9.400 -1.4947 -0.5365 -0.2480
16147TIP3    H269933   0.762   1.147   9.465 -2.2262 -0.7158 -0.0394
16148TIP3   OH269934   1.040   2.423 109.560  0.1856  0.6063  0.1070
16148TIP3    H169935   1.015   2.417 109.467  0.2284 -0.8895  0.1615
16148TIP3    H269936   1.030   2.333 109.592 -0.3839  1.2218  1.7087
16149TIP3   OH269937   2.237   0.165  81.026  0.0588 -0.0781 -0.0742
16149TIP3    H169938   2.220   0.098  81.093  1.8203 -1.3574 -0.8483
16149TIP3    H269939   2.280   0.236  81.074  1.0980 -0.8867  0.2283
16150TIP3   OH269940   0.288   1.082  69.253  0.0557 -0.6649 -0.1948
16150TIP3    H169941   0.240   1.134  69.188 -0.4397 -1.4087 -0.4446
16150TIP3    H269942   0.381   1.095  69.230 -0.1063 -0.7882 -0.9599
16151TIP3   OH269943   0.895   2.243 101.334  0.2384  0.4706  0.1674
16151TIP3    H169944   0.945   2.210 101.260  1.2809  1.6783  0.3072
16151TIP3    H269945   0.939   2.324 101.359  0.7665 -0.5601  2.9565
16152TIP3   OH269946   2.020   1.966  24.880 -0.5142  0.8213  0.1947
16152TIP3    H169947   2.014   1.888  24.934 -1.3447  1.3526  0.8931
16152TIP3    H269948   1.949   1.957  24.816  0.5627  0.1187 -0.9404
16153TIP3   OH269949   2.655   0.285  92.716 -0.5674 -0.3697  0.6668
16153TIP3    H169950   2.664   0.239  92.632  2.8037  0.2767  0.5278
16153TIP3    H269951   2.604   0.225  92.770  1.6841 -3.3627 -0.2367
16154TIP3   OH269952   0.716   1.892  17.233 -0.3562  0.2959  0.1432
16154TIP3    H169953   0.726   1.924  17.323  1.3649 -0.0042  0.0958
16154TIP3    H269954   0.665   1.812  17.242  0.1706  0.0298  0.9242
16155TIP3   OH269955   2.357   1.501  91.066  0.4386  0.1728  0.0901
16155TIP3    H169956   2.359   1.558  90.988 -0.9803 -0.4808 -0.4627
16155TIP3    H269957   2.437   1.523  91.114  1.6891  0.1521 -1.8698
16156TIP3   OH269958   2.525   0.847  94.124 -0.4820 -0.5541 -0.3522
16156TIP3    H169959   2.509   0.774  94.064 -0.3973 -1.0116  0.1702
16156TIP3    H269960   2.549   0.920  94.068  0.7794 -1.2944 -0.8287
16157TIP3   OH269961   1.440   1.023  13.685  0.3836  0.6030 -0.3066
16157TIP3    H169962   1.432   1.105  13.636  1.6367  0.9213 -0.0354
16157TIP3    H269963   1.476   0.961  13.622  0.7449  0.6558 -0.1609
16158TIP3   OH269964   1.692   0.454  92.009  0.1850  0.5234  0.4404
16158TIP3    H169965   1.648   0.384  91.961  0.3519 -0.1035  1.1843
16158TIP3    H269966   1.655   0.449  92.097  0.4103  1.1940  0.5768
16159TIP3   OH269967   0.411   0.034  67.845  0.3629 -0.9437 -0.8132
16159TIP3    H169968   0.338   0.052  67.904  0.4755 -1.5134 -0.4901
16159TIP3    H269969   0.473   0.104  67.861 -1.6343  1.7582 -3.7313
16160TIP3   OH269970   1.053   0.983  21.110 -0.2548 -0.0496 -0.0669
16160TIP3    H169971   1.089   0.895  21.118  0.0712  0.0464 -0.4688
16160TIP3    H269972   1.120   1.040  21.150  0.0185  0.1228 -0.7652
16161TIP3   OH269973   1.109   0.571  85.964 -0.0978  0.0301 -0.3574
16161TIP3    H169974   1.040   0.626  85.926 -0.3103 -0.1363 -0.2145
16161TIP3    H269975   1.187   0.627  85.964 -0.1291  0.0844 -0.8948
16162TIP3   OH269976   2.323   1.119  36.317  0.5940  0.1630  0.0144
16162TIP3    H169977   2.268   1.099  36.241  1.0300 -0.4152 -0.1473
16162TIP3    H269978   2.263   1.113  36.391 -0.2887  2.5867 -0.4166
16163TIP3   OH269979   2.495   0.532  87.300  0.8047 -0.5840  0.2935
16163TIP3    H169980   2.580   0.517  87.259  0.1497  0.0831 -1.4085
16163TIP3    H269981   2.435   0.545  87.226 -0.1309  2.5463  1.4190
16164TIP3   OH269982   0.696   2.139 111.230 -0.4714  0.4600  0.3410
16164TIP3    H169983   0.706   2.046 111.246  1.5359  0.8863  2.0061
16164TIP3    H269984   0.671   2.176 111.315 -2.9966  1.2839 -0.6676
16165TIP3   OH269985   0.938   2.495  82.773  0.7923  0.0877  0.8122
16165TIP3    H169986   0.851   2.504  82.736  0.2005  0.0284  2.1433
16165TIP3    H269987   0.924   2.490  82.867  2.2097 -0.2446  1.0294
16166TIP3   OH269988   2.003   2.648  73.517 -0.0793 -0.1479 -0.2586
16166TIP3    H169989   1.943   2.581  73.484 -0.3893  0.5936 -1.2502
16166TIP3    H269990   1.954   2.691  73.588 -0.0247 -0.7076  0.1190
16167TIP3   OH269991   0.356   0.153  35.536 -0.0806  0.1064  0.1440
16167TIP3    H169992   0.293   0.128  35.468  0.7909 -1.1429 -0.2456
16167TIP3    H269993   0.419   0.209  35.490  0.2972 -0.4312 -0.0093
16168TIP3   OH269994   1.422   1.872  16.426 -0.3834  0.0111 -0.5792
16168TIP3    H169995   1.348   1.876  16.486  0.8042 -0.2124  0.9696
16168TIP3    H269996   1.443   1.779  16.419  0.0122  0.1038 -0.6718
16169TIP3   OH269997   2.613   0.518  33.239 -0.3607  0.5064 -0.5170
16169TIP3    H169998   2.611   0.614  33.228 -1.5610  0.4908 -0.5824
16169TIP3    H269999   2.560   0.502  33.317 -2.1024 -0.2518 -1.8097
16170TIP3   OH270000   1.337   0.306  92.864  0.3338 -0.2653 -0.0565
16170TIP3    H170001   1.253   0.340  92.895 -0.1852 -0.5488 -1.0851
16170TIP3    H270002   1.401   0.339  92.926 -0.3266  1.3569 -0.1826
16171TIP3   OH270003   2.310   0.464  76.962 -0.5788 -0.0643 -0.5454
16171TIP3    H170004   2.403   0.457  76.985  0.2649 -1.9209 -3.8370
16171TIP3    H270005   2.275   0.376  76.976 -1.2808  0.0878 -1.2733
16172TIP3   OH270006   1.503   1.320 106.873 -0.0413 -0.0604  0.2170
16172TIP3    H170007   1.431   1.365 106.830  0.9614 -0.2684 -1.7954
16172TIP3    H270008   1.465   1.239 106.907 -1.1061  0.6606  0.8061
16173TIP3   OH270009   1.669   2.048 102.746  0.0799  0.2906 -0.2983
16173TIP3    H170010   1.685   2.106 102.671  1.8815 -0.2405 -0.3583
16173TIP3    H270011   1.575   2.056 102.762 -0.0745  1.6237 -1.6162
16174TIP3   OH270012   0.162   2.275  95.613  0.6130  0.5797 -0.0003
16174TIP3    H170013   0.081   2.273  95.561 -0.4143 -1.7551  1.5109
16174TIP3    H270014   0.222   2.217  95.567  0.8087  0.9163 -0.1738
16175TIP3   OH270015   1.110   1.814  22.854 -0.2895  0.2371  0.1184
16175TIP3    H170016   1.175   1.835  22.921  1.1660  0.4488 -1.3075
16175TIP3    H270017   1.123   1.721  22.837  0.0189  0.3999 -0.5527
16176TIP3   OH270018   1.895   1.785  17.382  0.0036 -0.2520  0.1878
16176TIP3    H170019   1.811   1.831  17.381  0.7044  1.1358 -1.9001
16176TIP3    H270020   1.946   1.830  17.449 -0.0300  0.7051 -0.4065
16177TIP3   OH270021   1.184   1.136  95.269  0.1933 -0.5187  0.3192
16177TIP3    H170022   1.144   1.065  95.317 -1.5314  0.5166  0.4817
16177TIP3    H270023   1.209   1.097  95.185  1.8248 -1.9438  1.3770
16178TIP3   OH270024   1.838   2.228  24.234 -0.0196 -0.0694 -0.2250
16178TIP3    H170025   1.783   2.253  24.309 -0.5984  0.2895 -0.7612
16178TIP3    H270026   1.810   2.139  24.212  1.0428 -0.6876  0.7755
16179TIP3   OH270027   0.839   1.206  13.401 -0.4564  0.3130  0.2130
16179TIP3    H170028   0.910   1.142  13.414  1.0571  1.9961  0.6143
16179TIP3    H270029   0.776   1.186  13.470 -0.9328 -1.8562 -0.7501
16180TIP3   OH270030   2.100   2.112  80.301 -0.2224 -0.3159  0.2611
16180TIP3    H170031   2.149   2.066  80.232  0.3334  0.7853 -0.0952
16180TIP3    H270032   2.019   2.062  80.310 -0.6630 -0.0387 -1.7614
16181TIP3   OH270033   1.158   1.130  99.723  0.0569 -0.2234 -0.0209
16181TIP3    H170034   1.092   1.103  99.659 -0.5330  0.2100  0.3945
16181TIP3    H270035   1.220   1.058  99.725 -0.6365 -0.8403 -0.0970
16182TIP3   OH270036   1.283   1.875   3.105  0.0554 -0.6134 -0.3919
16182TIP3    H170037   1.207   1.867   3.049 -0.5440 -0.9513  0.4573
16182TIP3    H270038   1.248   1.894   3.192  0.9218 -1.0312  0.0683
16183TIP3   OH270039   0.266   0.013 108.963 -0.4944 -0.2679 -0.1583
16183TIP3    H170040   0.183   0.028 108.917 -1.0526 -1.4523  0.4123
16183TIP3    H270041   0.242   0.015 109.056  0.2622  0.1498  0.0279
16184TIP3   OH270042   1.328   0.751  86.735  0.1147 -0.6649 -0.2212
16184TIP3    H170043   1.397   0.771  86.671 -0.2394  1.1877 -0.0741
16184TIP3    H270044   1.316   0.833  86.783  0.2359 -1.9346  2.1331
16185TIP3   OH270045   0.627   1.318  26.722 -0.0414 -0.5370  0.4786
16185TIP3    H170046   0.567   1.262  26.772 -0.5799 -0.8047 -0.4221
16185TIP3    H270047   0.581   1.402  26.715 -0.0579 -0.5588  0.2964
16186TIP3   OH270048   1.420   1.895  14.359 -0.4630 -0.0509 -0.6250
16186TIP3    H170049   1.372   1.812  14.358  0.7438 -0.7802 -1.5456
16186TIP3    H270050   1.432   1.914  14.452 -0.0552 -1.3580 -0.3805
16187TIP3   OH270051   0.940   0.873  95.848  0.2626  0.0986 -0.2614
16187TIP3    H170052   0.954   0.829  95.764 -2.6963 -1.6846  0.0765
16187TIP3    H270053   1.023   0.919  95.864  2.0154 -1.9156 -2.6825
16188TIP3   OH270054   2.539   0.468  48.746  0.0198 -0.5634 -0.5832
16188TIP3    H170055   2.477   0.396  48.731 -1.4619  0.5754 -0.2256
16188TIP3    H270056   2.484   0.540  48.777  1.4409  0.7633 -1.0355
16189TIP3   OH270057   0.364   0.578  31.399 -0.0808  0.2188 -0.1534
16189TIP3    H170058   0.283   0.594  31.350 -0.8036  0.1621  0.9810
16189TIP3    H270059   0.382   0.485  31.387 -0.8219 -0.0205  0.4890
16190TIP3   OH270060   2.074   1.815  18.766  0.0055  0.2081 -0.3311
16190TIP3    H170061   2.079   1.748  18.697  0.1148 -2.4636  2.0631
16190TIP3    H270062   1.984   1.811  18.797  0.6797 -0.9659  1.6873
16191TIP3   OH270063   0.846   1.411 106.173 -0.0990 -0.3526  0.3036
16191TIP3    H170064   0.779   1.402 106.105 -0.0437 -0.8969  0.3201
16191TIP3    H270065   0.906   1.338 106.158  0.2402 -0.1357  0.5753
16192TIP3   OH270066   1.322   1.546  99.307 -0.2760  0.1937 -0.3265
16192TIP3    H170067   1.316   1.590  99.222 -0.4182 -0.9523 -0.9356
16192TIP3    H270068   1.230   1.532  99.333 -0.3478 -2.3096 -1.5715
16193TIP3   OH270069   0.036   2.024  90.608  0.2298  0.4513  0.0962
16193TIP3    H170070   0.059   1.951  90.550 -0.0493 -0.5581  1.1918
16193TIP3    H270071  -0.059   2.018  90.617  0.3409  0.1358  1.1995
16194TIP3   OH270072   0.273   0.684  94.113 -0.0471 -0.6876 -0.3047
16194TIP3    H170073   0.322   0.733  94.179  1.0888  0.1271 -1.6968
16194TIP3    H270074   0.188   0.669  94.154 -0.1183  1.6101  0.5920
16195TIP3   OH270075   1.397   1.232  29.674  0.2074  0.0973 -0.2626
16195TIP3    H170076   1.383   1.158  29.734  0.7489  1.0869  1.1551
16195TIP3    H270077   1.462   1.286  29.719  0.6015  0.9022 -1.7627
16196TIP3   OH270078   1.137   1.336  92.826 -0.0990 -0.1830 -0.1679
16196TIP3    H170079   1.087   1.336  92.908 -0.5342  0.7442 -0.4281
16196TIP3    H270080   1.075   1.309  92.759 -0.4732  1.5989 -0.5923
16197TIP3   OH270081   2.082   2.475  87.916 -0.1607 -0.0310 -0.0281
16197TIP3    H170082   2.121   2.530  87.848  1.1704  2.2393  2.3611
16197TIP3    H270083   2.003   2.522  87.943 -1.0556 -1.2649 -0.4425
16198TIP3   OH270084   2.041   0.693  83.440  0.0841  0.2842 -0.5663
16198TIP3    H170085   2.077   0.758  83.500  1.1233 -0.4128 -0.4079
16198TIP3    H270086   2.063   0.726  83.353  1.5039 -0.3112 -0.4649
16199TIP3   OH270087   2.343   2.524  15.913 -0.0968  0.4048  0.3371
16199TIP3    H170088   2.357   2.429  15.922 -2.1831  0.1227  1.1294
16199TIP3    H270089   2.400   2.549  15.840  0.0949 -1.5681 -0.2623
16200TIP3   OH270090   1.337   1.919  27.651 -0.1340  0.0976 -0.3950
16200TIP3    H170091   1.271   1.894  27.715  0.2939  0.6402  0.2678
16200TIP3    H270092   1.420   1.891  27.690  0.2117  1.2489 -0.2906
16201TIP3   OH270093   2.684   2.074  15.427 -0.2405  0.0406 -0.0661
16201TIP3    H170094   2.617   2.104  15.365 -1.7132 -0.8380  1.0385
16201TIP3    H270095   2.762   2.125  15.404 -1.0124  0.4446 -1.9845
16202TIP3   OH270096   2.242   2.018  75.653  0.0480  0.4556 -0.1442
16202TIP3    H170097   2.216   1.926  75.647 -0.4958  0.5064  1.2378
16202TIP3    H270098   2.337   2.015  75.666 -0.2993 -0.0837  2.9495
16203TIP3   OH270099   2.535   0.243  97.040  0.1590  0.3836 -0.4260
16203TIP3    H170100   2.550   0.173  97.103  2.0642 -0.7283 -1.9989
16203TIP3    H270101   2.442   0.236  97.018  0.0807 -0.9764  0.2423
16204TIP3   OH270102   0.147   0.719  11.721  0.2246 -0.5813  0.6857
16204TIP3    H170103   0.176   0.628  11.717  0.4955 -0.4648 -0.1612
16204TIP3    H270104   0.058   0.717  11.686  0.8992 -0.2602 -1.1487
16205TIP3   OH270105   0.910   0.344  30.024 -0.0423 -0.3856 -0.8543
16205TIP3    H170106   0.815   0.332  30.017  0.0617 -1.3012 -0.8263
16205TIP3    H270107   0.937   0.281  30.091  0.4095  0.8273  0.1353
16206TIP3   OH270108   0.703   1.765   4.661 -0.4761  0.5414 -0.1355
16206TIP3    H170109   0.671   1.723   4.740  0.1096  0.7354  0.2108
16206TIP3    H270110   0.673   1.709   4.590  0.1401 -0.3620  0.3083
16207TIP3   OH270111   0.331   2.402  78.788 -0.0414  0.1458 -0.5676
16207TIP3    H170112   0.404   2.411  78.727  1.4439 -0.2292  1.0797
16207TIP3    H270113   0.307   2.492  78.809  1.0621  0.3008  0.1195
16208TIP3   OH270114   2.319   1.004   1.830  0.0840 -0.1189 -0.5847
16208TIP3    H170115   2.394   1.063   1.838  0.2617 -0.1437 -1.8607
16208TIP3    H270116   2.356   0.922   1.798 -0.1326 -1.0363  1.3627
16209TIP3   OH270117   1.468   1.516  99.952  0.0694  0.0285 -0.1660
16209TIP3    H170118   1.532   1.515  99.881  1.5118  0.7626  1.0709
16209TIP3    H270119   1.427   1.430  99.949  1.0952 -0.4481 -1.0241
16210TIP3   OH270120   0.652   2.555  91.184 -0.7242 -0.2801  0.1286
16210TIP3    H170121   0.596   2.535  91.259 -0.1029 -0.3023  0.5906
16210TIP3    H270122   0.651   2.474  91.132  0.7868 -1.1275  1.3628
16211TIP3   OH270123   2.018   0.513  34.768 -0.1574  0.2270 -0.6443
16211TIP3    H170124   2.101   0.512  34.720  1.3831  0.1848  1.8518
16211TIP3    H270125   2.015   0.428  34.812  0.5891  1.7131  2.5439
16212TIP3   OH270126   0.812   0.721  31.208  0.3734 -0.5807 -0.1948
16212TIP3    H170127   0.884   0.744  31.266 -0.2359 -1.0910  0.8053
16212TIP3    H270128   0.847   0.650  31.153  0.6381 -0.8289  0.2884
16213TIP3   OH270129   2.569   1.687 110.379  0.0993  0.0397 -0.1894
16213TIP3    H170130   2.526   1.761 110.422  0.4006 -0.7477  1.5865
16213TIP3    H270131   2.658   1.687 110.414 -0.4048 -2.2188  1.3894
16214TIP3   OH270132   0.690   0.365  58.138 -0.2299 -0.6496  0.2112
16214TIP3    H170133   0.766   0.382  58.193 -0.7396  1.0358  0.4582
16214TIP3    H270134   0.646   0.291  58.181 -1.6209  1.7263  3.2965
16215TIP3   OH270135   1.715   1.815 100.079  0.2492  0.3240 -0.5128
16215TIP3    H170136   1.724   1.780  99.991  2.9694  0.1096 -0.2275
16215TIP3    H270137   1.682   1.742 100.131  0.0460  0.0246 -1.0602
16216TIP3   OH270138   0.361   2.622  79.155 -0.7548 -0.0372 -0.2847
16216TIP3    H170139   0.349   2.537  79.111  0.5006 -1.2142  1.4937
16216TIP3    H270140   0.454   2.624  79.177 -0.4328  2.5245 -1.5784
16217TIP3   OH270141   1.171   2.510  37.718  0.1215 -0.2737  0.1279
16217TIP3    H170142   1.161   2.427  37.764  0.0794  0.3874  1.3378
16217TIP3    H270143   1.119   2.499  37.638  2.8248 -2.6401 -1.4863
16218TIP3   OH270144   0.395   2.617  84.219  0.2276 -0.0487  0.4602
16218TIP3    H170145   0.474   2.626  84.272  0.5719 -3.1522  0.6840
16218TIP3    H270146   0.324   2.604  84.282 -0.4900  2.3152  0.2443
16219TIP3   OH270147   2.004   2.162  15.565 -0.2720 -1.2493 -0.0690
16219TIP3    H170148   1.927   2.153  15.508 -0.8639  1.2159  0.2247
16219TIP3    H270149   1.976   2.127  15.649 -1.1320 -0.3483  0.0409
16220TIP3   OH270150   0.397   1.638  32.436 -0.0722  0.1384  0.1901
16220TIP3    H170151   0.342   1.646  32.514  0.8138  0.5536  0.7838
16220TIP3    H270152   0.373   1.554  32.398 -0.5070 -0.0686  0.9141
16221TIP3   OH270153   2.660   1.374  16.801  0.6136 -0.6638 -0.5771
16221TIP3    H170154   2.616   1.307  16.748  0.2939 -1.0395  0.1399
16221TIP3    H270155   2.631   1.356  16.890  0.0200  0.8263 -0.4424
16222TIP3   OH270156   2.326   1.266  36.677 -0.2591  0.0972  0.5609
16222TIP3    H170157   2.246   1.228  36.640 -1.6474  1.0715  2.4081
16222TIP3    H270158   2.326   1.356  36.644  0.1239  0.0851  0.5233
16223TIP3   OH270159   1.282   2.429   1.437 -0.5922  0.3360  0.0615
16223TIP3    H170160   1.193   2.428   1.471 -0.5809 -1.3682  0.1426
16223TIP3    H270161   1.322   2.508   1.474 -2.3895  1.7619 -0.8998
16224TIP3   OH270162   1.139   1.902 103.658  0.0040  0.0740 -0.1045
16224TIP3    H170163   1.047   1.916 103.637  0.1852  1.4865 -0.0560
16224TIP3    H270164   1.151   1.807 103.652 -1.4400 -0.1301 -0.1223
16225TIP3   OH270165   1.435   1.183  24.846 -0.0885  0.4128 -0.3041
16225TIP3    H170166   1.527   1.159  24.861 -0.1101  1.1240  1.2018
16225TIP3    H270167   1.438   1.276  24.822 -0.4742  0.8279  1.1361
16226TIP3   OH270168   1.507   2.084  98.141 -0.7283 -0.0784 -0.2297
16226TIP3    H170169   1.419   2.060  98.113 -1.5928  1.2399  1.1534
16226TIP3    H270170   1.535   2.012  98.198 -0.6257 -0.8020 -1.1716
16227TIP3   OH270171   0.573   0.937   5.497 -0.1600 -0.3296  0.0647
16227TIP3    H170172   0.557   0.858   5.447 -0.3630 -0.6062  0.5577
16227TIP3    H270173   0.613   0.906   5.579  0.9342  0.1756 -0.2546
16228TIP3   OH270174   0.446   0.582  98.437 -0.3823 -0.7762 -0.8432
16228TIP3    H170175   0.380   0.598  98.505  0.5449  0.8441 -0.2827
16228TIP3    H270176   0.396   0.551  98.362 -1.5754 -1.3285  0.1466
16229TIP3   OH270177   0.885   1.875  12.439 -0.5239  0.5706 -0.1736
16229TIP3    H170178   0.965   1.824  12.430 -1.0040 -0.2465  0.0792
16229TIP3    H270179   0.914   1.966  12.437  0.0404  0.4494 -3.9279
16230TIP3   OH270180   0.472   0.181  25.004  0.4959  0.1253  0.2606
16230TIP3    H170181   0.464   0.085  25.000 -2.2059  0.2478  0.4954
16230TIP3    H270182   0.450   0.211  24.915 -1.1440  0.5608  0.7691
16231TIP3   OH270183   1.628   1.868  79.337 -0.3317  0.0256  0.5332
16231TIP3    H170184   1.621   1.807  79.263  1.1741  0.7911 -0.2790
16231TIP3    H270185   1.660   1.813  79.410 -1.1210 -0.5848  0.4316
16232TIP3   OH270186   0.510   0.410 102.977  0.2227  0.6295  0.6042
16232TIP3    H170187   0.589   0.358 102.962  0.8941  1.4465  1.1923
16232TIP3    H270188   0.442   0.345 102.994  0.8949 -0.0787  0.6748
16233TIP3   OH270189   0.997   0.682  77.342  0.0174  0.2815  0.0732
16233TIP3    H170190   1.070   0.676  77.403  0.3045 -1.5230 -0.3992
16233TIP3    H270191   0.923   0.642  77.388 -0.3683  0.9669  0.0747
16234TIP3   OH270192   1.662   0.177  29.190  0.0002  0.1436 -0.0738
16234TIP3    H170193   1.686   0.088  29.163 -4.3243 -1.1748 -0.2484
16234TIP3    H270194   1.652   0.172  29.285  0.6603  0.7359  0.0336
16235TIP3   OH270195   2.378   0.922  18.730  0.4823 -0.0377  0.3278
16235TIP3    H170196   2.333   0.951  18.809  1.4090 -0.4654  1.0332
16235TIP3    H270197   2.440   0.992  18.711 -1.3320  1.2056 -1.4316
16236TIP3   OH270198   2.595   1.445  49.077 -0.1480  0.0723 -0.2595
16236TIP3    H170199   2.599   1.466  48.984 -0.5932  0.7473 -0.1313
16236TIP3    H270200   2.624   1.354  49.082  1.1657  0.4214 -0.9164
16237TIP3   OH270201   1.699   0.316 105.198 -0.1577 -0.5900  0.2040
16237TIP3    H170202   1.739   0.380 105.257 -0.8803  1.4632 -1.3665
16237TIP3    H270203   1.605   0.327 105.211 -0.2916 -1.6133  0.1529
16238TIP3   OH270204   0.911   1.802 111.322  0.1600  0.1277  0.6523
16238TIP3    H170205   0.991   1.849 111.298  0.2900  0.1641  1.1406
16238TIP3    H270206   0.939   1.711 111.332 -0.2118 -0.1900 -0.9049
16239TIP3   OH270207   0.531   2.411  37.329  0.1780  0.1031 -0.0774
16239TIP3    H170208   0.460   2.354  37.299  0.3982 -0.2393  0.0447
16239TIP3    H270209   0.494   2.460  37.401  0.7022 -1.7034  1.5083
16240TIP3   OH270210   1.201   1.156  73.991  0.4975  0.5214 -0.1699
16240TIP3    H170211   1.211   1.091  73.922  1.7508  0.3467  0.1557
16240TIP3    H270212   1.165   1.107  74.065  1.4119  0.1915  0.0657
16241TIP3   OH270213   1.307   1.993  27.969 -0.2379 -0.1865 -0.1057
16241TIP3    H170214   1.278   2.031  28.052  0.2769 -2.2774  1.0947
16241TIP3    H270215   1.230   1.949  27.934  0.0284 -0.9963  0.2935
16242TIP3   OH270216   1.741   2.536  80.402  0.3759 -0.7026 -0.4529
16242TIP3    H170217   1.772   2.570  80.486 -2.6677  0.6255  0.2624
16242TIP3    H270218   1.746   2.611  80.343  0.9012 -1.1809 -1.0334
16243TIP3   OH270219   0.159   1.347  82.408 -0.8727 -0.5755  0.0509
16243TIP3    H170220   0.192   1.429  82.370  2.5334 -0.9093  1.8595
16243TIP3    H270221   0.159   1.286  82.335  0.1090  0.1576 -0.6058
16244TIP3   OH270222   0.034   1.762  95.760 -0.1193  0.3555 -0.3713
16244TIP3    H170223   0.086   1.839  95.781 -0.2946 -0.0208  1.6803
16244TIP3    H270224   0.061   1.696  95.825 -1.5481 -0.5639 -0.6539
16245TIP3   OH270225   2.115   2.277  91.231  0.4249  0.2292  0.1196
16245TIP3    H170226   2.066   2.341  91.283  0.9946  0.8588 -0.0954
16245TIP3    H270227   2.133   2.323  91.148  0.4704 -0.3664 -0.2022
16246TIP3   OH270228   2.062   0.408  57.541  1.0862 -0.9751  0.5138
16246TIP3    H170229   2.008   0.448  57.609 -0.8838  0.8033 -1.9795
16246TIP3    H270230   2.022   0.322  57.526  0.2805 -0.5572  0.2256
16247TIP3   OH270231   0.426   0.085  17.761  0.1388 -0.0885 -0.2134
16247TIP3    H170232   0.510   0.131  17.755 -0.0703  0.4933  1.0151
16247TIP3    H270233   0.363   0.145  17.722  0.1247 -0.0498 -0.1311
16248TIP3   OH270234   1.331   0.267  35.577  0.1191 -0.2795  0.5984
16248TIP3    H170235   1.425   0.248  35.567 -0.1351 -1.3041  0.0586
16248TIP3    H270236   1.325   0.317  35.659  1.0792 -0.5946  0.8699
16249TIP3   OH270237   0.809   1.042 102.902 -0.0053  0.0752  0.0586
16249TIP3    H170238   0.792   1.064 102.810 -1.2742  0.6743  0.4225
16249TIP3    H270239   0.755   1.104 102.951 -1.0184 -1.6433  1.1888
16250TIP3   OH270240   1.919   2.603  36.681  0.2299 -0.1385 -0.3041
16250TIP3    H170241   1.837   2.651  36.669 -0.4402 -1.0458  0.5034
16250TIP3    H270242   1.917   2.574  36.772  0.1821 -2.4510 -0.9692
16251TIP3   OH270243   2.305   0.020  27.541 -0.3123 -0.3017  0.1171
16251TIP3    H170244   2.213  -0.000  27.557 -0.2108 -1.0229 -0.1568
16251TIP3    H270245   2.307   0.050  27.450 -0.0730 -1.7553 -0.3823
16252TIP3   OH270246   2.133   1.466  15.229 -0.8292 -0.3283 -0.0179
16252TIP3    H170247   2.183   1.385  15.228  0.4512  0.3963  1.5578
16252TIP3    H270248   2.071   1.455  15.302 -1.0559 -0.1094 -0.1747
16253TIP3   OH270249   0.505   0.369  85.953  0.0215 -0.0900  0.0477
16253TIP3    H170250   0.441   0.439  85.945 -1.0131 -1.0659 -0.4803
16253TIP3    H270251   0.455   0.288  85.940  1.2826 -0.9043  0.0266
16254TIP3   OH270252   1.983   2.603  29.343 -0.2321 -0.0539 -0.4187
16254TIP3    H170253   2.018   2.680  29.388 -0.0577 -0.6967  0.5733
16254TIP3    H270254   1.888   2.609  29.358 -0.1924 -0.1715 -0.1096
16255TIP3   OH270255   0.906   0.410  89.413  0.0821 -0.7260 -0.4782
16255TIP3    H170256   0.935   0.321  89.437 -0.6050 -0.7891  0.1533
16255TIP3    H270257   0.834   0.397  89.353 -2.0837 -0.7017  1.9439
16256TIP3   OH270258   1.344   0.020   4.019 -0.0335  0.3078  0.5578
16256TIP3    H170259   1.385  -0.027   3.947 -0.4869 -0.2815  0.6736
16256TIP3    H270260   1.308   0.099   3.979  0.8178  0.6190  0.3772
16257TIP3   OH270261   0.835   0.378  94.657  0.4285  0.1183  0.3629
16257TIP3    H170262   0.810   0.341  94.742 -0.9213  2.2573  0.9772
16257TIP3    H270263   0.791   0.322  94.593  1.7723 -1.7523  0.9843
16258TIP3   OH270264   0.479   0.447  16.270  0.0623  0.0170  0.1417
16258TIP3    H170265   0.543   0.506  16.232 -0.6298  0.6474 -0.0593
16258TIP3    H270266   0.532   0.381  16.316  0.8586  0.1909 -0.5060
16259TIP3   OH270267   1.956   0.587  88.712 -0.2455 -0.0299 -0.4570
16259TIP3    H170268   1.977   0.499  88.681 -0.9716 -0.1687 -0.5683
16259TIP3    H270269   1.924   0.633  88.634  0.9533  0.6154 -0.5982
16260TIP3   OH270270   1.386   2.217  52.619 -0.3687 -0.0842  0.2625
16260TIP3    H170271   1.315   2.158  52.594 -0.2306 -0.2419  0.2354
16260TIP3    H270272   1.405   2.194  52.710  0.9886 -1.4470 -0.3038
16261TIP3   OH270273   1.564   2.394  17.038  0.2982 -0.3871  0.4476
16261TIP3    H170274   1.648   2.360  17.070 -0.0798 -0.7143  1.1219
16261TIP3    H270275   1.511   2.315  17.024  1.0411 -0.4539 -2.8706
16262TIP3   OH270276   2.681   0.859  68.214 -0.3371  0.0058 -0.8630
16262TIP3    H170277   2.651   0.928  68.274  1.5282 -0.7153  1.0382
16262TIP3    H270278   2.701   0.905  68.133 -1.0037  1.3808 -0.2848
16263TIP3   OH270279   1.829   0.910  92.482  0.1693  0.0040  0.8018
16263TIP3    H170280   1.759   0.867  92.432  0.6311 -0.1336  0.2701
16263TIP3    H270281   1.783   0.980  92.530 -0.4647 -0.6097  1.1138
16264TIP3   OH270282   0.016   0.873   1.477 -0.3523 -0.2494 -0.7837
16264TIP3    H170283  -0.038   0.934   1.427 -0.2564  0.9066  0.4695
16264TIP3    H270284  -0.043   0.836   1.543 -0.4616 -1.7178 -1.6454
16265TIP3   OH270285   0.202   2.146  63.879  0.1268  0.3577 -0.3015
16265TIP3    H170286   0.163   2.107  63.958 -1.9073  0.0880 -1.3641
16265TIP3    H270287   0.126   2.175  63.828  1.4580  1.7906 -1.5281
16266TIP3   OH270288   2.528   0.897  79.896  0.5556 -0.2514 -0.5610
16266TIP3    H170289   2.598   0.838  79.923  2.1661  1.0342 -1.7037
16266TIP3    H270290   2.472   0.843  79.841  0.5066 -1.3618  0.5224
16267TIP3   OH270291   1.689   0.362  85.617  0.2105  0.3115  0.2203
16267TIP3    H170292   1.605   0.333  85.653 -0.2195  0.7550 -0.4036
16267TIP3    H270293   1.680   0.348  85.522  0.6701  0.7854  0.1046
16268TIP3   OH270294   2.272   2.032  87.446  0.1101 -0.1533  0.0879
16268TIP3    H170295   2.232   1.987  87.520 -1.3280  1.0607  0.0917
16268TIP3    H270296   2.347   1.977  87.423 -1.5428 -2.5646  0.0586
16269TIP3   OH270297   0.920   1.117 104.157 -0.9253 -0.0116  0.1590
16269TIP3    H170298   0.863   1.194 104.157  0.1770  0.8364  0.8805
16269TIP3    H270299   1.008   1.152 104.143 -0.4244 -1.1583  0.3354
16270TIP3   OH270300   0.314   1.660  98.945  0.3047  0.1856 -0.2608
16270TIP3    H170301   0.233   1.612  98.963 -1.7624  2.9234 -1.4822
16270TIP3    H270302   0.339   1.632  98.857  0.1235  0.0589 -0.2777
16271TIP3   OH270303   2.619   0.169  28.728  0.1505 -0.1134  0.1104
16271TIP3    H170304   2.607   0.161  28.633 -1.7545 -2.6904  0.4378
16271TIP3    H270305   2.703   0.127  28.745  0.6684  0.6787 -0.4672
16272TIP3   OH270306   0.558   2.058  35.760  0.0263 -0.3543  0.0870
16272TIP3    H170307   0.531   2.150  35.755  0.9930 -0.0837 -0.5467
16272TIP3    H270308   0.502   2.020  35.827 -2.0773  0.1090 -1.2958
16273TIP3   OH270309   0.720   2.303  18.791 -0.1376 -0.1763 -0.0917
16273TIP3    H170310   0.654   2.361  18.829 -0.3848 -0.3700 -0.2247
16273TIP3    H270311   0.744   2.345  18.709  0.7147  0.4717  0.4691
16274TIP3   OH270312   2.414   2.355   7.811 -0.2800  0.1138  0.3853
16274TIP3    H170313   2.351   2.404   7.863 -0.0101 -0.0373  0.8563
16274TIP3    H270314   2.398   2.263   7.834  0.3564  0.0956  0.7909
16275TIP3   OH270315   0.002   2.392  24.887 -0.2381  0.3519 -0.2733
16275TIP3    H170316   0.043   2.416  24.804  0.2384  0.2046 -0.0872
16275TIP3    H270317  -0.084   2.357  24.863  0.4464 -1.0213 -0.8352
16276TIP3   OH270318   1.997   1.154  15.672  0.0200 -0.4734 -0.0980
16276TIP3    H170319   1.922   1.108  15.634 -0.3474 -0.4415  0.5882
16276TIP3    H270320   2.065   1.086  15.677 -0.1591 -0.6588 -0.1422
16277TIP3   OH270321   2.460   1.593 111.352 -0.2392 -0.0414 -0.6254
16277TIP3    H170322   2.390   1.658 111.358 -1.2344 -1.0940 -0.3818
16277TIP3    H270323   2.445   1.536 111.428  0.7792 -0.3914 -0.6742
16278TIP3   OH270324   0.282   1.514   6.348  0.2277  0.1755 -0.4278
16278TIP3    H170325   0.266   1.603   6.317  1.0049  0.1585 -0.8934
16278TIP3    H270326   0.376   1.501   6.337  0.1671 -0.6066 -0.0971
16279TIP3   OH270327   1.869   1.825  29.270 -0.3590  0.1776  0.1423
16279TIP3    H170328   1.890   1.912  29.237  0.6651  0.3578  1.2063
16279TIP3    H270329   1.949   1.774  29.258 -0.2532 -0.0030  1.4646
16280TIP3   OH270330   0.505   0.875  21.948  0.0770  0.0918  0.1785
16280TIP3    H170331   0.566   0.889  21.876 -0.8003 -0.3012 -0.6608
16280TIP3    H270332   0.559   0.839  22.019  0.7459 -0.6927 -0.7054
16281TIP3   OH270333   0.912   1.876  95.570  0.0189  0.5021  0.1759
16281TIP3    H170334   0.983   1.895  95.508 -0.4243 -1.0436 -0.8740
16281TIP3    H270335   0.958   1.844  95.648  0.5174 -1.0887 -0.7184
16282TIP3   OH270336   2.349   0.010  43.096 -0.5461 -0.0867  0.0635
16282TIP3    H170337   2.273   0.059  43.128  0.4097  0.7591  1.1066
16282TIP3    H270338   2.398   0.074  43.044 -0.0167 -0.3396  0.2445
16283TIP3   OH270339   2.330   1.974  98.010  0.2022 -0.0292 -0.3868
16283TIP3    H170340   2.256   2.017  97.967 -0.7992 -0.8407  0.4745
16283TIP3    H270341   2.348   1.897  97.955 -0.9481 -0.9558  0.4692
16284TIP3   OH270342   0.368   0.201  83.253  0.1004  0.2271  0.0939
16284TIP3    H170343   0.317   0.171  83.329  3.0411 -0.3222  2.0351
16284TIP3    H270344   0.348   0.138  83.184 -2.1773  0.3597  0.5779
16285TIP3   OH270345   0.250   2.042  34.728 -0.2092  0.0953  0.4957
16285TIP3    H170346   0.342   2.018  34.724 -0.2947 -0.0961 -0.7409
16285TIP3    H270347   0.247   2.115  34.790  0.7562  0.0765  0.5810
16286TIP3   OH270348   2.184   2.198  85.542  0.2117 -0.5012 -0.2157
16286TIP3    H170349   2.277   2.196  85.522  0.9504  1.0801  2.4401
16286TIP3    H270350   2.166   2.113  85.581  1.3413  0.1053  1.8209
16287TIP3   OH270351   2.036   0.116  10.641  0.1357  0.1049  0.6847
16287TIP3    H170352   1.993   0.193  10.606  0.6154  0.7619  1.4962
16287TIP3    H270353   1.989   0.097  10.723  0.4064 -0.0935  0.7968
16288TIP3   OH270354   0.761   2.200  15.934 -0.2679  0.2450 -0.1388
16288TIP3    H170355   0.715   2.198  15.850 -0.5876 -0.2525  0.0467
16288TIP3    H270356   0.737   2.284  15.972 -1.3028 -0.1584  0.1122
16289TIP3   OH270357   0.199   2.264  93.436 -0.0637 -0.0928 -0.0980
16289TIP3    H170358   0.249   2.274  93.517  0.6508  0.8646 -0.6297
16289TIP3    H270359   0.171   2.172  93.436  1.0438 -0.4457  0.5952
16290TIP3   OH270360   2.216   0.495  98.322 -0.2071 -0.4741 -0.3270
16290TIP3    H170361   2.163   0.416  98.310  0.6562 -1.1922  0.4019
16290TIP3    H270362   2.222   0.505  98.417 -1.0359  0.9986 -0.4002
16291TIP3   OH270363   0.347   2.073  80.751 -0.3005  0.0603  0.2113
16291TIP3    H170364   0.282   2.003  80.750  1.3893 -1.6072 -1.7122
16291TIP3    H270365   0.428   2.030  80.777  0.4783  1.6468  0.5245
16292TIP3   OH270366   0.350   1.063  83.551  0.4740  0.4887  0.2000
16292TIP3    H170367   0.275   1.088  83.496  1.0044  0.1456 -0.7039
16292TIP3    H270368   0.426   1.092  83.502  0.9914 -0.5510  0.3581
16293TIP3   OH270369   0.724   1.557  77.396  0.1108  0.0266  0.6988
16293TIP3    H170370   0.647   1.613  77.398  0.9423  1.2183  0.3916
16293TIP3    H270371   0.719   1.512  77.312  0.0813  0.5871  0.3961
16294TIP3   OH270372   2.498   1.690  31.726  0.1692  0.1702 -0.1699
16294TIP3    H170373   2.486   1.629  31.654 -1.0895 -0.4175  0.5000
16294TIP3    H270374   2.441   1.764  31.706  0.2122  0.2433 -0.0300
16295TIP3   OH270375   1.037   1.474  79.890 -0.6137 -0.4899  0.5441
16295TIP3    H170376   1.084   1.398  79.856  0.3600 -0.4260  1.6673
16295TIP3    H270377   0.955   1.438  79.925  0.2081 -1.1989  1.8419
16296TIP3   OH270378   0.443   1.806 103.423 -0.1607  0.1833  0.0462
16296TIP3    H170379   0.352   1.834 103.413 -0.1329 -0.1917 -1.4906
16296TIP3    H270380   0.439   1.711 103.420  0.3617  0.1833 -0.9927
16297TIP3   OH270381   1.160   1.539   5.543 -0.4809 -0.4525  0.1857
16297TIP3    H170382   1.105   1.588   5.483  0.3493  1.9804  1.2830
16297TIP3    H270383   1.211   1.480   5.487 -0.1912  1.2770 -1.4388
16298TIP3   OH270384   0.159   0.969  30.579 -0.4482 -0.3957 -0.2307
16298TIP3    H170385   0.071   1.007  30.575  0.2966  1.4494  0.1897
16298TIP3    H270386   0.202   0.999  30.499  0.4769  0.5010  0.5828
16299TIP3   OH270387   1.848   2.214   2.351  0.2401 -0.3300 -0.4124
16299TIP3    H170388   1.798   2.142   2.392  0.3255 -0.0205  0.2518
16299TIP3    H270389   1.925   2.224   2.407  0.3754  0.0884 -0.6693
16300TIP3   OH270390   0.067   2.170  79.174 -0.0941  0.9503 -0.0272
16300TIP3    H170391   0.074   2.098  79.237 -1.3737  0.7221 -0.1272
16300TIP3    H270392   0.056   2.126  79.089  2.1186  1.2414 -0.5287
16301TIP3   OH270393   0.905   0.300  32.059  0.2670 -0.1365  0.0274
16301TIP3    H170394   0.999   0.286  32.072  0.1519  0.0451  1.2427
16301TIP3    H270395   0.877   0.347  32.138 -0.8661 -0.3088 -0.2513
16302TIP3   OH270396   1.705   1.980  90.359 -0.0798  0.5981  0.8370
16302TIP3    H170397   1.707   1.893  90.319 -1.6067  1.3234 -0.9312
16302TIP3    H270398   1.693   1.963  90.453  0.2349 -1.0867  0.6050
16303TIP3   OH270399   0.424   1.201  24.662 -0.2444  0.7755  0.6595
16303TIP3    H170400   0.383   1.141  24.724  1.5275  1.2242  2.3779
16303TIP3    H270401   0.493   1.150  24.621 -0.3058  0.9576  0.3255
16304TIP3   OH270402   1.952   2.194  79.833  0.6821  0.2595  0.1366
16304TIP3    H170403   1.909   2.111  79.852 -0.1810  0.7182  0.2555
16304TIP3    H270404   2.002   2.178  79.752  0.1779 -0.2504 -0.0742
16305TIP3   OH270405   1.989   0.006  42.907 -1.1334  0.0733  0.6531
16305TIP3    H170406   2.015  -0.076  42.947  0.8960  0.4516  0.1917
16305TIP3    H270407   2.007   0.072  42.974  0.2978  0.4698 -0.0860
16306TIP3   OH270408   2.296   1.479  88.414 -0.5458 -0.6162 -0.0786
16306TIP3    H170409   2.227   1.414  88.428 -0.2705 -0.8246  0.3380
16306TIP3    H270410   2.303   1.486  88.318 -1.7757  0.0992 -0.1242
16307TIP3   OH270411   2.599   0.631  94.974 -0.3361  0.0073 -0.5374
16307TIP3    H170412   2.527   0.620  95.036 -0.7861  1.2792 -0.8078
16307TIP3    H270413   2.678   0.622  95.028 -0.7203  0.2977  0.0803
16308TIP3   OH270414   2.243   0.321  80.104 -0.2783 -0.1083 -0.5810
16308TIP3    H170415   2.179   0.261  80.065 -0.7034  0.5565 -0.9215
16308TIP3    H270416   2.327   0.275  80.095 -0.8012 -1.3454  0.6114
16309TIP3   OH270417   1.133   1.448 109.945  0.3462 -0.2468  0.5812
16309TIP3    H170418   1.099   1.537 109.957 -0.4060 -0.6172  1.2408
16309TIP3    H270419   1.086   1.395 110.010 -1.8881 -1.8240 -2.1003
16310TIP3   OH270420   2.558   0.609  42.461 -0.2232  0.3641 -0.1392
16310TIP3    H170421   2.528   0.519  42.449 -0.6352  0.3481  0.8417
16310TIP3    H270422   2.528   0.632  42.549  0.0746  1.3866 -0.2942
16311TIP3   OH270423   2.288   0.026  21.182 -0.3261  0.1280 -0.0629
16311TIP3    H170424   2.371   0.054  21.143 -0.7228  0.4158 -0.7020
16311TIP3    H270425   2.311  -0.053  21.232  0.4304  0.5059  0.1973
16312TIP3   OH270426   1.018   1.112  51.159 -0.4934  0.2503  0.3240
16312TIP3    H170427   0.949   1.168  51.123  0.9116  1.4207 -0.6779
16312TIP3    H270428   1.099   1.162  51.146  0.8089 -1.9126 -0.4535
16313TIP3   OH270429   0.405   1.570  63.562  0.7614 -0.8574 -0.4437
16313TIP3    H170430   0.461   1.515  63.616  2.4858 -0.7706 -2.0523
16313TIP3    H270431   0.380   1.515  63.488  0.4994 -0.2255 -0.8403
16314TIP3   OH270432   1.204   0.069  90.505 -0.3332 -0.2724  0.1626
16314TIP3    H170433   1.207   0.026  90.420 -0.2114 -1.9918  0.9888
16314TIP3    H270434   1.126   0.126  90.501 -0.3752 -0.4052 -1.0404
16315TIP3   OH270435   1.513   0.757   6.883 -0.0931 -0.2023  0.2347
16315TIP3    H170436   1.522   0.826   6.949  0.2653 -0.9655  1.0034
16315TIP3    H270437   1.461   0.689   6.925 -0.5098 -0.3796 -0.5416
16316TIP3   OH270438   0.493   0.227 104.167  0.1084  0.3742  0.0069
16316TIP3    H170439   0.523   0.264 104.084 -1.3155  1.4202 -0.0780
16316TIP3    H270440   0.495   0.300 104.229 -0.2357 -0.0389  0.5187
16317TIP3   OH270441   0.772   1.168  98.791  0.1193 -0.2798 -0.0010
16317TIP3    H170442   0.825   1.232  98.838  1.2894 -0.2609 -1.2591
16317TIP3    H270443   0.725   1.219  98.725 -1.5578 -0.2942  1.1235
16318TIP3   OH270444   0.183   0.709  93.682  0.5550  0.1353  0.6623
16318TIP3    H170445   0.158   0.799  93.662  0.3053 -0.0554  0.1043
16318TIP3    H270446   0.101   0.665  93.702  0.5031 -0.3201 -0.4906
16319TIP3   OH270447   1.600   0.383  18.314  0.3997 -0.2766  0.0268
16319TIP3    H170448   1.670   0.343  18.365 -0.0006 -1.5212 -0.3469
16319TIP3    H270449   1.524   0.326  18.330  0.0129 -0.1237 -1.1470
16320TIP3   OH270450   2.594   2.393 107.055  0.2624 -0.1401  0.4256
16320TIP3    H170451   2.633   2.353 107.133  1.2899 -2.9259 -1.3837
16320TIP3    H270452   2.670   2.415 107.000 -0.4896  0.9242 -0.2224
16321TIP3   OH270453   0.434   0.034  15.329  0.8099 -0.2777 -0.3113
16321TIP3    H170454   0.382   0.051  15.250 -1.7259 -2.1194  0.7964
16321TIP3    H270455   0.487  -0.042  15.306 -0.2726 -1.1102 -0.1815
16322TIP3   OH270456   2.040   1.051  25.753  0.1595 -0.5039 -0.2287
16322TIP3    H170457   1.982   0.975  25.751 -0.2731 -0.1912  0.2081
16322TIP3    H270458   2.005   1.110  25.686  0.0369 -0.3650 -0.0447
16323TIP3   OH270459   2.044   2.013  24.031  0.1256  0.0065 -0.4076
16323TIP3    H170460   2.071   1.927  24.064 -0.9227 -0.4021 -0.5661
16323TIP3    H270461   1.949   2.005  24.017 -0.0114  1.2186 -0.3350
16324TIP3   OH270462   0.738   2.105  94.667  0.0154 -0.5797  0.5459
16324TIP3    H170463   0.719   2.077  94.578 -1.8060 -0.9347  1.0036
16324TIP3    H270464   0.831   2.084  94.679  0.6842  0.7703 -1.6873
16325TIP3   OH270465   0.548   0.702   5.363  0.0354 -0.2881 -0.5993
16325TIP3    H170466   0.642   0.690   5.347 -0.0021 -0.8090 -0.4399
16325TIP3    H270467   0.506   0.628   5.319 -0.2861 -0.1825 -0.4744
16326TIP3   OH270468   0.996   1.286  88.676 -0.1212  0.3328  0.5412
16326TIP3    H170469   1.006   1.379  88.655  0.2384  0.4432  1.1687
16326TIP3    H270470   0.954   1.248  88.599  1.7606  0.5925 -0.6893
16327TIP3   OH270471   2.685   1.237  99.499 -0.0555 -0.7645  0.1826
16327TIP3    H170472   2.733   1.189  99.432 -0.8119 -1.6883  0.2872
16327TIP3    H270473   2.680   1.177  99.573 -0.5462 -0.3241  0.5163
16328TIP3   OH270474   0.650   2.571  11.106  0.0319 -0.0568  0.1994
16328TIP3    H170475   0.564   2.605  11.082  0.1408  0.0420 -0.0507
16328TIP3    H270476   0.637   2.477  11.116 -0.1983  0.0111  0.5824
16329TIP3   OH270477   1.851   2.454  30.108  0.5596 -0.5872 -0.1771
16329TIP3    H170478   1.859   2.541  30.068  0.0184 -0.5354 -0.1788
16329TIP3    H270479   1.763   2.425  30.084  0.5631 -0.9334  0.2288
16330TIP3   OH270480   0.733   0.324  90.866 -0.2611 -0.3239  0.4825
16330TIP3    H170481   0.664   0.382  90.900  0.3819  0.2280  0.8747
16330TIP3    H270482   0.746   0.260  90.935 -0.9798 -0.9650  0.0424
16331TIP3   OH270483   2.093   0.016  92.475 -0.7466  0.1884 -0.0890
16331TIP3    H170484   2.114  -0.055  92.413 -1.8921 -1.0698  0.9119
16331TIP3    H270485   2.121  -0.018  92.560  1.0954  2.0251  0.1042
16332TIP3   OH270486   1.483   2.230  97.519 -0.6530  0.3734 -0.4767
16332TIP3    H170487   1.408   2.178  97.489 -0.1666 -1.5076  1.2941
16332TIP3    H270488   1.560   2.182  97.486 -0.1645  2.2578 -2.2378
16333TIP3   OH270489   2.086   1.438  84.462  0.0138 -0.3246 -0.1511
16333TIP3    H170490   2.114   1.501  84.396 -1.0042 -0.1987 -0.4896
16333TIP3    H270491   2.147   1.450  84.534  0.1049  0.7620 -0.3817
16334TIP3   OH270492   1.011   1.692  12.756 -0.2398  0.6637 -0.5068
16334TIP3    H170493   1.096   1.733  12.742 -0.6109  1.5258 -0.2918
16334TIP3    H270494   1.030   1.616  12.811  0.4095  0.7633 -0.5858
16335TIP3   OH270495   0.560   1.904  83.698 -0.0337 -0.8857  0.1104
16335TIP3    H170496   0.554   1.892  83.603  1.8117 -0.7066 -0.0521
16335TIP3    H270497   0.570   1.999  83.709  1.8387 -1.0771  0.3217
16336TIP3   OH270498   1.258   0.045  84.203 -0.3228 -0.2806 -0.2132
16336TIP3    H170499   1.285   0.027  84.113 -1.7102  0.2348 -0.7655
16336TIP3    H270500   1.205  -0.030  84.227  0.1297 -0.4658  0.2263
16337TIP3   OH270501   0.205   1.409  16.065  0.3348 -0.2148  0.1711
16337TIP3    H170502   0.187   1.502  16.053  1.1757  0.1257  1.3282
16337TIP3    H270503   0.163   1.387  16.148 -0.9928 -1.2287 -0.7099
16338TIP3   OH270504   0.293   0.526  11.166 -0.3095  0.2217  0.2357
16338TIP3    H170505   0.200   0.544  11.178 -0.5890 -0.2221 -1.1804
16338TIP3    H270506   0.297   0.433  11.144  0.4449  0.3079 -0.0038
16339TIP3   OH270507   0.896   0.642  26.770  0.0248 -0.2448 -0.1929
16339TIP3    H170508   0.939   0.716  26.728 -1.7683  1.7588  1.3309
16339TIP3    H270509   0.874   0.583  26.697  1.9580  0.4000 -1.3811
16340TIP3   OH270510   1.920   0.677  28.701 -0.0578  0.5919 -0.3401
16340TIP3    H170511   2.007   0.643  28.685 -0.4329 -0.5402 -0.0940
16340TIP3    H270512   1.914   0.684  28.797 -0.8531 -1.1069 -0.2358
16341TIP3   OH270513   0.009   2.009   9.033  0.1631 -0.1385  0.2342
16341TIP3    H170514  -0.000   1.959   9.114 -0.9916 -0.7860 -0.2746
16341TIP3    H270515  -0.018   1.948   8.964 -0.7488  1.0097 -0.4556
16342TIP3   OH270516   0.763   2.353  91.681  0.3486  0.0610  0.8382
16342TIP3    H170517   0.795   2.443  91.687  2.8603 -0.8626  3.3296
16342TIP3    H270518   0.731   2.345  91.591  0.1101  3.3657  0.5011
16343TIP3   OH270519   0.605   1.997 108.253  0.3513 -0.2349 -0.4316
16343TIP3    H170520   0.555   2.079 108.257 -1.3294 -1.1857 -0.9957
16343TIP3    H270521   0.597   1.968 108.162  2.3578 -0.2089 -0.6672
16344TIP3   OH270522   0.755   0.181  99.557 -0.9944  0.3678  0.5692
16344TIP3    H170523   0.743   0.233  99.636  2.4710  0.4847  1.1448
16344TIP3    H270524   0.748   0.090  99.586 -2.0539  0.4084  0.4976
16345TIP3   OH270525   0.081   1.862  83.434 -0.0569  0.3360 -0.3331
16345TIP3    H170526   0.046   1.911  83.509 -2.0883 -0.5372 -0.6392
16345TIP3    H270527   0.149   1.806  83.472  1.3478  2.3253  0.2507
16346TIP3   OH270528   1.700   1.587  76.093 -0.5979 -0.2451 -0.1799
16346TIP3    H170529   1.789   1.606  76.121  0.0284 -1.8298 -1.0155
16346TIP3    H270530   1.705   1.576  75.999 -1.4168 -1.6507 -0.0904
16347TIP3   OH270531   0.445   0.154  90.902 -0.0571  0.0635 -0.3533
16347TIP3    H170532   0.457   0.105  90.821 -0.6864 -1.2410  0.3040
16347TIP3    H270533   0.447   0.087  90.971 -0.0654  1.0735  0.6563
16348TIP3   OH270534   1.449   0.571  19.456  0.5900 -0.4523  0.0120
16348TIP3    H170535   1.426   0.631  19.526 -0.3966 -0.0925 -0.6022
16348TIP3    H270536   1.538   0.597  19.431  0.1928  0.7552 -0.2291
16349TIP3   OH270537   1.794   2.019  92.326  0.2497 -0.2639  0.1916
16349TIP3    H170538   1.791   1.936  92.279  2.1169 -0.5511  0.4813
16349TIP3    H270539   1.746   2.003  92.407 -0.6840 -0.5789 -0.4126
16350TIP3   OH270540   1.737   2.402  27.074 -0.1697 -0.2895  0.1234
16350TIP3    H170541   1.777   2.472  27.023  0.8442 -0.1186  1.1309
16350TIP3    H270542   1.728   2.438  27.162 -0.3826 -1.1559  0.4657
16351TIP3   OH270543   0.641   2.404 111.958 -0.2193 -0.1418  0.0145
16351TIP3    H170544   0.565   2.459 111.981  0.4260  0.2334  1.3646
16351TIP3    H270545   0.698   2.463 111.909  0.8152  0.7079  2.1002
16352TIP3   OH270546   1.682   1.159  17.062  0.3363 -0.3977 -0.3437
16352TIP3    H170547   1.747   1.225  17.039 -0.3109 -0.1211 -1.4931
16352TIP3    H270548   1.683   1.155  17.158  1.0697  0.5723 -0.3018
16353TIP3   OH270549   1.370   1.438   7.321 -0.4007 -0.2618  0.2740
16353TIP3    H170550   1.278   1.414   7.329 -0.3541 -0.4632  0.2224
16353TIP3    H270551   1.412   1.400   7.399 -0.3568 -0.1913  0.2853
16354TIP3   OH270552   2.148   1.901  26.270 -0.9377  0.3496 -0.1363
16354TIP3    H170553   2.111   1.976  26.224 -1.4177  0.4459  0.3946
16354TIP3    H270554   2.099   1.896  26.352  0.6626  0.8897  0.9034
16355TIP3   OH270555   0.190   2.057  21.526 -0.0742 -0.0298 -0.2235
16355TIP3    H170556   0.263   2.098  21.480  0.1456 -1.0205 -0.8002
16355TIP3    H270557   0.117   2.118  21.516  0.1059  0.0059 -1.4946
16356TIP3   OH270558   1.795   1.136  85.604  0.4874 -0.1515 -0.1363
16356TIP3    H170559   1.883   1.118  85.634  1.3524 -0.3902 -2.5651
16356TIP3    H270560   1.798   1.228  85.575 -0.2332  0.0071  0.2586
16357TIP3   OH270561   1.992   0.372  28.519 -0.1598 -0.0123  0.7246
16357TIP3    H170562   1.989   0.277  28.509 -0.7905  0.1364 -0.7775
16357TIP3    H270563   1.904   0.401  28.496  0.5191  1.0805 -0.5925
16358TIP3   OH270564   1.576   0.686 101.132 -0.1721 -0.4617 -0.3169
16358TIP3    H170565   1.498   0.682 101.078 -0.0091  0.9545 -0.7115
16358TIP3    H270566   1.621   0.766 101.103  2.0642 -1.8777 -0.9717
16359TIP3   OH270567   2.483   2.510  34.978 -0.6966  0.3518 -0.4378
16359TIP3    H170568   2.505   2.430  34.931  1.4535  0.7393 -0.1910
16359TIP3    H270569   2.438   2.565  34.913 -0.9395 -0.4982 -0.9972
16360TIP3   OH270570   1.823   1.284  14.185 -0.1547  0.0181  0.1071
16360TIP3    H170571   1.827   1.379  14.175 -0.1643  0.0567  0.4428
16360TIP3    H270572   1.911   1.259  14.214 -0.1835 -0.0596  0.1274
16361TIP3   OH270573   1.290   0.047  13.069  0.6704  0.0436 -0.3597
16361TIP3    H170574   1.294   0.142  13.063  0.3320 -0.0256 -3.1025
16361TIP3    H270575   1.204   0.024  13.034  0.7954 -1.2832  0.1359
16362TIP3   OH270576   1.922   2.478  77.718  0.3964 -0.3474  0.4833
16362TIP3    H170577   1.893   2.416  77.785 -0.8971  0.2829  0.5469
16362TIP3    H270578   2.001   2.518  77.754  1.4018 -2.0990  0.3272
16363TIP3   OH270579   1.414   0.380   0.874  0.1414 -0.0628  0.5085
16363TIP3    H170580   1.412   0.285   0.865 -0.0030 -0.0122 -0.0458
16363TIP3    H270581   1.354   0.412   0.807  1.5258  0.4903 -0.5168
16364TIP3   OH270582   1.785   0.579  24.180 -0.7897 -0.1000 -0.0892
16364TIP3    H170583   1.826   0.622  24.105 -0.4562  0.1212  0.2149
16364TIP3    H270584   1.817   0.628  24.256 -0.9777 -0.4373  0.2116
16365TIP3   OH270585   0.042   1.004   0.822  0.0525 -0.4596  0.0932
16365TIP3    H170586  -0.046   1.044   0.822 -0.0031 -0.5760 -0.5329
16365TIP3    H270587   0.032   0.925   0.874 -0.2053 -0.4505  0.0587
16366TIP3   OH270588   2.298   0.833  92.503  0.2284 -0.2483  0.5815
16366TIP3    H170589   2.380   0.790  92.526 -0.3860 -0.7155  2.0292
16366TIP3    H270590   2.305   0.920  92.541  0.8073  0.4242 -0.9583
16367TIP3   OH270591   1.338   2.251  29.047  0.2073 -0.2424  0.1043
16367TIP3    H170592   1.297   2.164  29.055 -0.9760 -0.2089 -3.5487
16367TIP3    H270593   1.308   2.283  28.962  2.6430  2.7224  0.2070
16368TIP3   OH270594   2.329   1.082  19.674  0.1447 -0.3321  0.3165
16368TIP3    H170595   2.385   1.048  19.744  0.2077 -1.3229 -0.1931
16368TIP3    H270596   2.373   1.161  19.643  0.1473  0.0863  1.3412
16369TIP3   OH270597   0.505   1.336  14.542  0.4905 -0.5182  0.1069
16369TIP3    H170598   0.516   1.423  14.582  0.9006 -0.8613  0.7600
16369TIP3    H270599   0.464   1.284  14.611  1.1115 -1.0954  0.0479
16370TIP3   OH270600   1.765   2.037  93.608  0.1175  0.1784  0.2359
16370TIP3    H170601   1.843   2.075  93.567  0.6395  0.0365  1.0763
16370TIP3    H270602   1.699   2.039  93.539  1.0898 -0.4393 -0.7669
16371TIP3   OH270603   1.241   2.218 109.463  0.0232  0.4616  0.1257
16371TIP3    H170604   1.261   2.311 109.452 -0.5299  0.6078  0.3448
16371TIP3    H270605   1.176   2.215 109.534 -1.2139  0.0518 -0.9833
16372TIP3   OH270606   1.882   1.722  21.224  0.2900 -0.2816  0.4867
16372TIP3    H170607   1.927   1.666  21.161  1.9453  0.9895  0.4553
16372TIP3    H270608   1.884   1.673  21.306 -0.8556 -1.4545 -0.1490
16373TIP3   OH270609   1.975   2.492  13.365 -0.0896  0.0211 -0.5189
16373TIP3    H170610   1.931   2.562  13.316 -1.1065 -0.6117 -0.5494
16373TIP3    H270611   1.927   2.413  13.341  0.3052 -0.5099  0.4062
16374TIP3   OH270612   0.868   0.819 108.312 -0.6655  0.1690 -0.2564
16374TIP3    H170613   0.930   0.864 108.369 -1.0261 -0.8546  0.9764
16374TIP3    H270614   0.849   0.883 108.243  2.6082  0.1215 -1.3517
16375TIP3   OH270615   2.677   0.744   7.424 -0.1247  0.1710  0.3891
16375TIP3    H170616   2.766   0.737   7.460  0.1539  0.2877 -0.2671
16375TIP3    H270617   2.628   0.791   7.491  0.4719  0.6853  0.4748
16376TIP3   OH270618   0.499   1.896  16.116 -0.0713  0.3556 -0.1363
16376TIP3    H170619   0.580   1.845  16.111 -0.2924 -0.1385  1.0571
16376TIP3    H270620   0.462   1.890  16.028  0.1706 -1.1142 -0.1623
16377TIP3   OH270621   1.351   0.741  19.966 -0.3156  0.8017 -0.2153
16377TIP3    H170622   1.431   0.771  19.923  0.3209  0.0252  0.3822
16377TIP3    H270623   1.280   0.776  19.912  0.4240  1.3723 -0.8472
16378TIP3   OH270624   2.416   1.057  76.297  0.2253 -0.3021 -0.1363
16378TIP3    H170625   2.328   1.066  76.333  0.5090  1.2907  0.2234
16378TIP3    H270626   2.466   1.128  76.338  1.1835  0.0375 -1.8137
16379TIP3   OH270627   2.221   0.441  16.061  0.1734  0.3049 -1.2180
16379TIP3    H170628   2.264   0.507  16.116 -2.1535 -0.4069  1.6910
16379TIP3    H270629   2.143   0.485  16.027  0.1006 -0.1290 -1.6258
16380TIP3   OH270630   2.212   2.392  21.058 -0.2648  0.0996  0.6877
16380TIP3    H170631   2.211   2.485  21.034  1.2263 -0.0228  0.0806
16380TIP3    H270632   2.130   2.358  21.021 -0.6024  1.0631  0.5029
16381TIP3   OH270633   1.329   0.947  76.900 -1.0729 -0.1709  0.4597
16381TIP3    H170634   1.295   0.945  76.990  1.0616 -1.2860  1.2972
16381TIP3    H270635   1.266   0.894  76.850 -1.0803 -1.4641  1.7682
16382TIP3   OH270636   2.463   0.636   2.487 -0.6804 -0.4144 -0.0074
16382TIP3    H170637   2.524   0.684   2.432 -0.7716  0.4581  0.6243
16382TIP3    H270638   2.377   0.675   2.467 -1.1462 -2.0512 -1.3539
16383TIP3   OH270639   1.582   1.420  20.991  0.4966  0.1642 -0.1602
16383TIP3    H170640   1.611   1.360  21.059  1.7684  1.0541  0.1307
16383TIP3    H270641   1.602   1.507  21.026 -0.8115  0.7482 -0.7836
16384TIP3   OH270642   1.614   2.604  16.425 -0.3285  0.0950 -0.3544
16384TIP3    H170643   1.627   2.641  16.338 -1.3010  0.6813 -0.2723
16384TIP3    H270644   1.566   2.673  16.472  1.0886  0.2229  0.9659
16385TIP3   OH270645   1.939   0.056  85.496  0.4870  0.3568 -0.0231
16385TIP3    H170646   1.876  -0.015  85.509 -0.6775  1.5166  1.0103
16385TIP3    H270647   1.945   0.099  85.582  2.0458  0.8103 -0.3324
16386TIP3   OH270648   0.005   0.823 108.918  0.6681  0.1113 -0.1822
16386TIP3    H170649   0.005   0.732 108.949 -0.6674  0.3599  0.5970
16386TIP3    H270650   0.098   0.844 108.908  1.0174 -1.1834  0.0927
16387TIP3   OH270651   2.398   2.423  79.452  0.0887  0.7334  0.4751
16387TIP3    H170652   2.365   2.510  79.426 -2.9806 -0.8333 -1.4846
16387TIP3    H270653   2.436   2.388  79.371  0.8581  0.0533  1.1231
16388TIP3   OH270654   1.887   2.256   7.186  0.0579  0.3384  0.0169
16388TIP3    H170655   1.801   2.265   7.227 -0.3748 -0.9604 -0.5724
16388TIP3    H270656   1.919   2.171   7.216  2.3766  1.8942  2.4379
16389TIP3   OH270657   1.938   1.187  33.534 -0.0288  0.4413  0.3124
16389TIP3    H170658   2.033   1.174  33.528  0.4114  2.5249  1.5676
16389TIP3    H270659   1.928   1.255  33.601 -2.3725  0.8281 -0.3460
16390TIP3   OH270660   1.873   2.328 110.969 -0.3559  0.0379  0.4828
16390TIP3    H170661   1.888   2.238 110.995 -0.0210 -0.1743 -0.4073
16390TIP3    H270662   1.954   2.356 110.928 -0.6806  0.5320  0.1537
16391TIP3   OH270663   0.506   0.338  37.041  0.3629 -0.1652  0.3739
16391TIP3    H170664   0.411   0.337  37.054  0.3600 -0.4234  0.3274
16391TIP3    H270665   0.522   0.420  36.993  0.1226 -0.3006  0.0597
16392TIP3   OH270666   2.439   1.363  93.363 -0.8808 -0.0964 -0.5606
16392TIP3    H170667   2.346   1.378  93.383 -0.1319  1.8890  2.0634
16392TIP3    H270668   2.472   1.449  93.336  0.0646 -0.9708 -2.3880
16393TIP3   OH270669   0.395   0.135 106.201  0.0136  0.0260 -0.4620
16393TIP3    H170670   0.308   0.097 106.191  0.1009  0.3342 -2.7223
16393TIP3    H270671   0.455   0.070 106.164  0.2922  1.5820 -2.9773
16394TIP3   OH270672   2.040   1.720  26.848 -0.0656 -0.1284  0.0097
16394TIP3    H170673   2.067   1.657  26.916 -3.0074 -1.9688 -0.3509
16394TIP3    H270674   1.967   1.767  26.887 -0.5213  0.1786 -1.1915
16395TIP3   OH270675   2.278   0.552 102.511 -0.4616 -0.2544  0.2101
16395TIP3    H170676   2.238   0.629 102.552 -1.2036 -0.4089 -0.2165
16395TIP3    H270677   2.245   0.552 102.421 -1.2748 -1.6268  0.4751
16396TIP3   OH270678   2.537   0.342  90.625  0.0560 -0.2466  0.1382
16396TIP3    H170679   2.602   0.277  90.649 -0.9606 -1.7287 -0.8992
16396TIP3    H270680   2.494   0.305  90.547  0.5519  2.4352 -1.5578
16397TIP3   OH270681   0.699   2.394  17.909  0.4756  0.2348 -0.1430
16397TIP3    H170682   0.607   2.418  17.922  0.3038 -0.9871  1.1464
16397TIP3    H270683   0.711   2.397  17.814 -1.3435 -1.1019 -0.4692
16398TIP3   OH270684   1.421   2.642 110.012 -0.3502 -0.5965  0.4492
16398TIP3    H170685   1.364   2.606 109.943 -2.9115  0.7695  1.7039
16398TIP3    H270686   1.476   2.706 109.966 -0.3008 -1.4267 -0.7003
16399TIP3   OH270687   1.195   2.413  97.897  0.1438  0.2905 -0.5806
16399TIP3    H170688   1.112   2.455  97.922  0.7199  1.4230 -0.5476
16399TIP3    H270689   1.175   2.369  97.814 -0.6187  0.1553 -0.3391
16400TIP3   OH270690   1.603   2.558  34.584  0.2439  0.5906 -0.0792
16400TIP3    H170691   1.642   2.507  34.655 -0.6688 -0.7620 -0.5138
16400TIP3    H270692   1.629   2.649  34.602 -0.4846  0.3918  2.3438
16401TIP3   OH270693   2.588   1.972  19.972  0.4261  0.6030  0.0714
16401TIP3    H170694   2.653   2.021  20.021  1.4794 -0.5551 -0.1283
16401TIP3    H270695   2.572   2.025  19.894  0.5427  1.2694  0.4962
16402TIP3   OH270696   1.602   1.851  20.880  0.3081 -0.5482 -0.0140
16402TIP3    H170697   1.614   1.918  20.948 -0.6630 -0.0520 -0.3200
16402TIP3    H270698   1.595   1.901  20.799 -0.3702 -1.0180 -0.2523
16403TIP3   OH270699   0.960   2.358 111.803 -0.6217 -0.3952 -0.3670
16403TIP3    H170700   0.941   2.341 111.711 -0.0186  0.4408 -0.6577
16403TIP3    H270701   1.045   2.319 111.818  0.2460  1.2580 -0.7410
16404TIP3   OH270702   1.491   0.097  93.460 -0.3339 -0.0991  0.2703
16404TIP3    H170703   1.398   0.112  93.445 -0.3747 -1.3625 -0.9116
16404TIP3    H270704   1.530   0.096  93.373  1.0648  1.8029  0.7923
16405TIP3   OH270705   1.616   0.989  95.064  0.7033  0.3239  0.4895
16405TIP3    H170706   1.524   0.964  95.056  0.1182  1.4562  2.7749
16405TIP3    H270707   1.638   1.029  94.980 -0.5312 -1.0127 -0.5053
16406TIP3   OH270708   0.390   2.007  22.870  0.0247 -0.3487 -0.1159
16406TIP3    H170709   0.471   2.015  22.820 -0.3962  0.0585 -0.7471
16406TIP3    H270710   0.356   1.920  22.847  0.3856 -0.6066  0.3157
16407TIP3   OH270711   1.137   0.529  92.780  0.2321  0.9670 -0.6505
16407TIP3    H170712   1.158   0.503  92.690  0.9989 -2.9919  0.4725
16407TIP3    H270713   1.221   0.559  92.816  0.1291  1.6371 -0.9431
16408TIP3   OH270714   2.487   2.007  37.221  0.1648 -0.1101 -0.0812
16408TIP3    H170715   2.542   1.954  37.163  0.1301  0.5408 -0.7214
16408TIP3    H270716   2.399   2.000  37.184  0.5361  2.2972 -1.6203
16409TIP3   OH270717   2.538   2.195  17.925 -0.2400 -0.1107  0.1727
16409TIP3    H170718   2.565   2.112  17.886  0.8302  1.0653 -1.7544
16409TIP3    H270719   2.476   2.170  17.994 -0.2990 -2.4660 -0.6356
16410TIP3   OH270720   1.716   2.672  84.102  1.0132 -0.2471 -0.4697
16410TIP3    H170721   1.669   2.655  84.184  0.5238 -0.6344 -0.8228
16410TIP3    H270722   1.752   2.760  84.113 -0.1399  0.2271 -0.3438
16411TIP3   OH270723   2.430   2.098 110.966  0.0035  0.1997 -0.1191
16411TIP3    H170724   2.431   2.190 110.990  0.2066  0.2772 -0.4227
16411TIP3    H270725   2.348   2.065 111.002 -0.5171  0.7145 -0.8104
16412TIP3   OH270726   2.211   0.919  91.833  0.2148  0.4951  0.2178
16412TIP3    H170727   2.182   0.935  91.743  1.0607  0.1469 -0.1217
16412TIP3    H270728   2.242   1.004  91.865  1.7426  0.2398 -0.4990
16413TIP3   OH270729   1.364   1.632   5.055 -0.1574  0.8209 -0.1220
16413TIP3    H170730   1.328   1.546   5.030  0.7394  0.0251  1.1907
16413TIP3    H270731   1.403   1.666   4.975 -1.3296  0.4343 -0.8845
16414TIP3   OH270732   0.121   0.145  89.950 -0.2381  0.1267  0.4968
16414TIP3    H170733   0.074   0.224  89.924  0.7833  1.0913  1.4669
16414TIP3    H270734   0.072   0.111  90.025 -0.3796  0.1344  0.4033
16415TIP3   OH270735   0.993   1.004  24.973  0.6205  0.3440 -0.4431
16415TIP3    H170736   0.909   1.028  25.012  0.4753 -0.3058 -0.3446
16415TIP3    H270737   1.034   1.088  24.950 -0.4533  0.6378 -1.3420
16416TIP3   OH270738   2.349   1.455  27.483  0.4992  0.3500  0.7183
16416TIP3    H170739   2.423   1.492  27.532  0.2491  0.0346  1.3489
16416TIP3    H270740   2.283   1.524  27.483  0.8495  0.6916  0.0128
16417TIP3   OH270741   1.289   1.326  30.660  0.3798 -0.4513  0.0641
16417TIP3    H170742   1.337   1.401  30.695  0.3566 -0.2722 -0.2775
16417TIP3    H270743   1.353   1.279  30.607  0.1946 -0.2308 -0.3647
16418TIP3   OH270744   1.056   1.064  23.361 -0.7523  0.1360 -0.0463
16418TIP3    H170745   1.064   1.019  23.445  0.1586  0.1315 -0.1246
16418TIP3    H270746   1.106   1.010  23.300 -1.1344  0.3136 -0.5186
16419TIP3   OH270747   1.529   1.587  36.073 -0.3407 -0.5880  0.0464
16419TIP3    H170748   1.454   1.645  36.085  0.5739  0.4479  1.0372
16419TIP3    H270749   1.570   1.584  36.160  2.0029  0.6712 -0.9312
16420TIP3   OH270750   1.145   2.141  98.378  0.4103  0.3755 -0.3115
16420TIP3    H170751   1.182   2.174  98.297  0.2473  2.8539  0.5396
16420TIP3    H270752   1.052   2.129  98.359  0.7269 -1.2401 -1.0650
16421TIP3   OH270753   0.642   0.739  27.208 -0.0851  0.2702 -0.2182
16421TIP3    H170754   0.638   0.707  27.117  2.5078 -1.2663  0.1112
16421TIP3    H270755   0.550   0.756  27.231 -1.4747 -4.0325 -1.5414
16422TIP3   OH270756   0.831   1.133  10.244  0.1379  0.3145  0.4491
16422TIP3    H170757   0.837   1.039  10.228  0.4382  0.7681 -2.7223
16422TIP3    H270758   0.920   1.159  10.268  0.5213  0.0521 -0.6296
16423TIP3   OH270759   1.261   0.614  82.546  0.2086  0.4275  0.0053
16423TIP3    H170760   1.214   0.531  82.550  0.2203  0.4774  2.0227
16423TIP3    H270761   1.249   0.644  82.456 -0.6444 -1.2554 -0.4791
16424TIP3   OH270762   2.135   1.233  89.974 -0.4502  0.0675  0.2069
16424TIP3    H170763   2.094   1.220  90.059 -0.7931  0.1434  0.0598
16424TIP3    H270764   2.193   1.308  89.987  0.1912 -0.4940  0.6055
16425TIP3   OH270765   0.588   0.445  99.150 -0.2133 -0.4598  0.3684
16425TIP3    H170766   0.494   0.463  99.156 -0.5961 -1.7192 -1.2733
16425TIP3    H270767   0.608   0.398  99.231 -0.7324  0.7717  1.2487
16426TIP3   OH270768   2.197   2.080  74.362  0.6037  0.1218  0.7426
16426TIP3    H170769   2.283   2.120  74.374  2.0161 -1.8799 -1.7252
16426TIP3    H270770   2.214   1.986  74.361 -1.5824 -0.3255 -0.1112
16427TIP3   OH270771   0.217   0.823  96.704 -0.0748  0.2779 -0.1344
16427TIP3    H170772   0.188   0.854  96.618 -1.9332 -1.5976 -0.2407
16427TIP3    H270773   0.243   0.732  96.689 -0.3922 -0.0632  1.2777
16428TIP3   OH270774   1.490   2.411  74.783 -0.0698  0.4457  0.8699
16428TIP3    H170775   1.426   2.373  74.843 -0.1648  1.7953  1.6495
16428TIP3    H270776   1.449   2.405  74.697 -0.2232 -0.8690  1.0102
16429TIP3   OH270777   1.187   1.204  14.945  0.4149 -0.0716 -0.2311
16429TIP3    H170778   1.277   1.233  14.957 -0.1588  1.2678  1.2573
16429TIP3    H270779   1.161   1.239  14.860  1.3907 -0.7994 -0.8437
16430TIP3   OH270780   0.554   2.029  77.837  0.5670 -0.0607  0.3056
16430TIP3    H170781   0.615   1.999  77.904 -1.4055  1.0056  2.7252
16430TIP3    H270782   0.506   2.101  77.878 -1.1633  0.2722 -2.0791
16431TIP3   OH270783   2.542   1.433  87.989  0.4665 -0.1551  0.3456
16431TIP3    H170784   2.559   1.374  88.062 -0.1565 -0.8606 -0.0583
16431TIP3    H270785   2.447   1.428  87.976  0.6810 -0.9753 -1.2447
16432TIP3   OH270786   0.608   1.346  30.799 -0.0228  0.0074 -0.5052
16432TIP3    H170787   0.559   1.269  30.829  1.7595 -1.4057 -1.0539
16432TIP3    H270788   0.557   1.380  30.726 -0.9996 -0.4380 -0.0534
16433TIP3   OH270789   2.570   2.674  67.819 -0.5413 -0.2608 -0.1134
16433TIP3    H170790   2.652   2.708  67.855 -0.1517 -0.8115 -0.4679
16433TIP3    H270791   2.536   2.616  67.886 -0.4328 -0.3540 -0.1441
16434TIP3   OH270792   0.306   0.916  78.004 -0.3566  0.2437 -0.2788
16434TIP3    H170793   0.216   0.890  77.986 -0.2565 -1.3053  1.2322
16434TIP3    H270794   0.350   0.910  77.920 -1.1657 -1.2214 -0.6279
16435TIP3   OH270795   0.243   0.980  97.070  0.7507  0.1221 -0.3158
16435TIP3    H170796   0.201   0.914  97.126 -1.4908  0.9100 -0.9325
16435TIP3    H270797   0.214   1.063  97.107  2.5267  0.7655 -0.2972
16436TIP3   OH270798   0.905   1.741  24.541  0.0784 -0.0137 -0.0796
16436TIP3    H170799   0.914   1.773  24.452 -0.1931 -0.2388 -0.1906
16436TIP3    H270800   0.938   1.651  24.538 -0.0070 -0.0499  0.0278
16437TIP3   OH270801   2.274   1.545  86.925  0.0752  0.1886 -0.0690
16437TIP3    H170802   2.299   1.487  86.997  0.3880  2.0109  1.3707
16437TIP3    H270803   2.326   1.625  86.939 -1.4160  1.4013 -1.0760
16438TIP3   OH270804   0.808   0.848  83.569  0.6103  0.2709 -0.5307
16438TIP3    H170805   0.794   0.847  83.474 -1.7689  0.4372 -0.2318
16438TIP3    H270806   0.900   0.872  83.579  0.7174  1.0300 -2.7696
16439TIP3   OH270807   1.526   0.566   2.899 -0.3336  0.5046 -0.2188
16439TIP3    H170808   1.619   0.569   2.877 -0.2120 -0.7897  0.0525
16439TIP3    H270809   1.481   0.575   2.814  0.1135 -2.5635 -0.9245
16440TIP3   OH270810   0.163   0.505  10.223 -0.2406 -0.1037  0.0082
16440TIP3    H170811   0.218   0.519  10.146  0.7221 -0.5788  0.5836
16440TIP3    H270812   0.205   0.432  10.269 -1.7064 -0.8870  0.1678
16441TIP3   OH270813   2.570   2.051  88.174 -0.4867 -0.4436  0.3113
16441TIP3    H170814   2.561   2.053  88.269  0.3254 -2.4557  0.4972
16441TIP3    H270815   2.662   2.076  88.158 -0.4678 -0.6346  0.1096
16442TIP3   OH270816   2.126   0.683  95.525 -0.3637  0.9177 -0.0618
16442TIP3    H170817   2.157   0.610  95.579  0.3416 -0.0457 -1.6863
16442TIP3    H270818   2.035   0.662  95.505 -0.8094  1.5663  1.1599
16443TIP3   OH270819   2.187   0.408  30.879  0.1361  0.1672  0.2571
16443TIP3    H170820   2.206   0.443  30.966 -0.2993 -0.3857  0.5796
16443TIP3    H270821   2.233   0.324  30.875 -2.5844 -1.5242  1.2979
16444TIP3   OH270822   1.263   0.036  29.313 -0.1694 -0.2433 -0.0144
16444TIP3    H170823   1.258  -0.018  29.234  1.4454 -0.1418 -0.2183
16444TIP3    H270824   1.267   0.126  29.280  0.6586 -0.2107  0.1696
16445TIP3   OH270825   2.377   2.053  95.555 -0.3233 -0.3884 -0.2991
16445TIP3    H170826   2.401   2.081  95.643  0.1857  1.8073 -1.0681
16445TIP3    H270827   2.429   1.974  95.541  0.6095 -0.0319  0.9098
16446TIP3   OH270828   1.610   0.142  90.975 -0.5135  0.1267  0.0802
16446TIP3    H170829   1.587   0.186  91.057 -0.0122 -1.9351  1.4211
16446TIP3    H270830   1.703   0.121  90.985 -0.7528 -1.2545 -0.4568
16447TIP3   OH270831   1.485   0.759 108.588  0.1129 -0.3290 -0.4031
16447TIP3    H170832   1.502   0.734 108.679  3.2293  0.4226 -0.6703
16447TIP3    H270833   1.504   0.679 108.538  1.2519  0.0266 -0.5694
16448TIP3   OH270834   1.861   2.417  99.775  0.0566  0.3221 -0.5440
16448TIP3    H170835   1.787   2.390  99.828 -1.0375  1.1803 -1.5702
16448TIP3    H270836   1.908   2.480  99.829  0.4883 -0.7638  0.3933
16449TIP3   OH270837   1.697   2.554  21.384 -0.3565 -0.3444  0.2972
16449TIP3    H170838   1.726   2.621  21.322  0.4481 -1.2355 -0.3113
16449TIP3    H270839   1.775   2.502  21.403 -0.9268 -1.0270  0.8696
16450TIP3   OH270840   1.309   0.698   8.004  0.6754  0.3432  0.3929
16450TIP3    H170841   1.223   0.670   7.974  0.3491 -0.4828  2.0327
16450TIP3    H270842   1.307   0.794   7.996  0.5875  0.2167 -2.0163
16451TIP3   OH270843   2.367   1.281  25.251 -0.1639 -0.0622  0.5960
16451TIP3    H170844   2.438   1.343  25.267  0.1716 -0.0962 -0.7161
16451TIP3    H270845   2.306   1.328  25.194 -0.5536 -0.4937  0.6495
16452TIP3   OH270846   0.438   1.380  78.899 -0.1647  0.4067 -0.4563
16452TIP3    H170847   0.372   1.425  78.951  0.8457  1.5202 -0.0898
16452TIP3    H270848   0.403   1.292  78.887 -2.7974  1.5646 -2.2689
16453TIP3   OH270849   1.520   2.290  13.285 -0.6729  0.4083  0.3064
16453TIP3    H170850   1.470   2.367  13.260 -0.5095 -0.0079 -1.4192
16453TIP3    H270851   1.491   2.221  13.225 -1.4009 -1.1309  2.3105
16454TIP3   OH270852   1.153   0.476  35.415 -0.0388 -0.0739  0.0239
16454TIP3    H170853   1.246   0.491  35.397  0.0182  0.2159  0.5418
16454TIP3    H270854   1.107   0.533  35.353  0.1147 -0.5275 -0.5175
16455TIP3   OH270855   1.434   2.620  78.174 -0.0025 -0.1373  0.0620
16455TIP3    H170856   1.408   2.614  78.082 -0.8112  0.6886  0.2187
16455TIP3    H270857   1.458   2.531  78.198  0.9136 -0.2377 -1.1410
16456TIP3   OH270858   0.540   2.123  30.688  0.3284  0.1202 -0.4916
16456TIP3    H170859   0.534   2.214  30.718 -1.6008 -0.4581  1.1459
16456TIP3    H270860   0.592   2.079  30.756 -1.9073 -0.6883  0.7982
16457TIP3   OH270861   2.109   1.608  85.000 -0.0421  0.6059  0.2517
16457TIP3    H170862   2.066   1.687  84.968  1.6085  1.2593 -0.4833
16457TIP3    H270863   2.101   1.613  85.095 -0.0647  1.6168  0.2106
16458TIP3   OH270864   1.797   0.787  24.844  0.2820 -0.4267  0.1026
16458TIP3    H170865   1.887   0.787  24.812  0.0142 -0.8879 -0.6666
16458TIP3    H270866   1.755   0.716  24.797 -0.3649 -0.5321  0.8243
16459TIP3   OH270867   2.645   1.685   1.820 -0.4864  0.5891  0.2743
16459TIP3    H170868   2.590   1.763   1.828  0.6244  1.3011  1.4811
16459TIP3    H270869   2.595   1.615   1.861 -1.1259  0.8646 -0.0262
16460TIP3   OH270870   0.740   0.866  30.718  0.0777  0.0723 -0.0322
16460TIP3    H170871   0.701   0.834  30.637  0.4995 -0.6863  0.0566
16460TIP3    H270872   0.698   0.815  30.787  0.6465 -0.1916  0.1239
16461TIP3   OH270873   1.740   2.484   4.066 -0.0872  0.5776 -0.2232
16461TIP3    H170874   1.731   2.421   4.138 -2.3426  1.1604  0.0784
16461TIP3    H270875   1.671   2.459   4.005 -1.3856  2.9885  0.1336
16462TIP3   OH270876   0.144   1.089  81.919  0.1304  0.0331 -0.5860
16462TIP3    H170877   0.069   1.041  81.883 -1.0221  1.7263 -0.6132
16462TIP3    H270878   0.112   1.124  82.002  0.6881  1.2197 -0.8449
16463TIP3   OH270879   1.025   0.815  26.612  0.1781  0.4383 -0.1384
16463TIP3    H170880   1.007   0.909  26.621  1.6749  0.8577 -1.1572
16463TIP3    H270881   0.979   0.790  26.532 -0.2728  0.2771  0.1676
16464TIP3   OH270882   0.079   2.383  73.923  1.4351 -0.1352  0.3052
16464TIP3    H170883   0.074   2.467  73.969  1.3061 -0.5855  1.1426
16464TIP3    H270884   0.074   2.406  73.830  1.9077  0.8174  0.5001
16465TIP3   OH270885   1.707   2.029  32.573 -0.4881  0.4129 -0.2602
16465TIP3    H170886   1.639   1.981  32.526 -1.7015  0.2159  1.6137
16465TIP3    H270887   1.762   2.066  32.504 -1.9626 -0.1732 -1.8148
16466TIP3   OH270888   0.468   1.989  99.546 -0.2645  0.3599  0.4443
16466TIP3    H170889   0.434   2.077  99.563 -2.5019 -0.4779  0.7613
16466TIP3    H270890   0.408   1.953  99.480  0.5935 -0.9441  0.3412
16467TIP3   OH270891   0.287   1.416  58.829  0.5165  0.3316  0.5285
16467TIP3    H170892   0.349   1.434  58.758  0.8498 -0.9281  0.4683
16467TIP3    H270893   0.201   1.430  58.789  0.6252 -1.7552 -0.6283
16468TIP3   OH270894   2.653   1.176 103.198  0.3816  0.5718 -0.4414
16468TIP3    H170895   2.631   1.166 103.106  0.1176  1.6835 -0.5058
16468TIP3    H270896   2.683   1.089 103.225  0.7357  0.3062 -1.6409
16469TIP3   OH270897   2.319   1.876 101.990 -0.1514 -0.1989  0.3502
16469TIP3    H170898   2.376   1.852 102.063  0.7977  1.3521  0.1772
16469TIP3    H270899   2.308   1.971 101.999 -1.3445 -0.2250 -0.6058
16470TIP3   OH270900   0.591   0.216  35.728 -0.4666 -0.0624  0.2655
16470TIP3    H170901   0.661   0.225  35.793  0.4817  0.2988 -0.7769
16470TIP3    H270902   0.558   0.127  35.740  0.2656 -0.2884  0.6744
16471TIP3   OH270903   0.552   1.107 100.903 -0.9119  0.6994 -1.3970
16471TIP3    H170904   0.615   1.137 100.969 -1.2582  0.1664 -0.8167
16471TIP3    H270905   0.475   1.083 100.953 -1.3652  0.7694 -2.0553
16472TIP3   OH270906   1.629   1.879  84.073  0.0288  0.1924  0.6841
16472TIP3    H170907   1.629   1.903  83.981  0.6554 -1.5972  0.1705
16472TIP3    H270908   1.537   1.873  84.097 -0.2000 -1.3443 -0.4368
16473TIP3   OH270909   0.741   2.144 107.045  0.2544 -0.7533  0.6508
16473TIP3    H170910   0.831   2.133 107.014 -0.0270 -0.6486 -0.2650
16473TIP3    H270911   0.719   2.060 107.086  1.4258 -0.0932  2.7059
16474TIP3   OH270912   1.051   1.249  97.578 -0.1868 -0.5991 -0.0069
16474TIP3    H170913   1.116   1.289  97.636 -1.2678 -1.1580  1.6568
16474TIP3    H270914   1.078   1.158  97.570 -0.2812 -0.6262 -0.0260
16475TIP3   OH270915   1.557   0.995   7.046  0.0768 -0.0854  0.9002
16475TIP3    H170916   1.532   1.064   7.108 -0.2362  0.5461  0.0840
16475TIP3    H270917   1.629   1.033   6.996  0.0607 -0.4428  0.6046
16476TIP3   OH270918   1.118   0.260  76.738  0.2690  0.9445 -0.0381
16476TIP3    H170919   1.207   0.268  76.705  0.5843 -0.7375  0.2841
16476TIP3    H270920   1.119   0.305  76.823  0.6354  1.4516 -0.3114
16477TIP3   OH270921   2.265   0.386 112.056 -0.3663  0.1619  0.0507
16477TIP3    H170922   2.299   0.471 112.085 -0.4251 -0.2968  1.5401
16477TIP3    H270923   2.308   0.322 112.114 -2.7252 -0.5502  1.1461
16478TIP3   OH270924   0.540   0.420  53.238  0.1064  0.5062  0.4548
16478TIP3    H170925   0.461   0.388  53.195  0.5337  0.7741 -0.5451
16478TIP3    H270926   0.604   0.429  53.168  1.3835 -0.7395  1.3973
16479TIP3   OH270927   1.212   2.439 104.034 -0.5604 -0.3021  0.0610
16479TIP3    H170928   1.275   2.449 104.106 -0.8746 -2.1377  0.6360
16479TIP3    H270929   1.222   2.348 104.007 -2.5147 -0.4507 -0.2584
16480TIP3   OH270930   0.601   2.236  18.266 -0.0181  0.2856 -0.0788
16480TIP3    H170931   0.615   2.170  18.334 -0.2329  0.6395  0.3191
16480TIP3    H270932   0.574   2.186  18.189  1.4661 -0.2317 -0.2858
16481TIP3   OH270933   1.108   0.743 107.543  0.2652 -0.3692 -0.3364
16481TIP3    H170934   1.032   0.742 107.484  0.6571 -1.3267 -0.8599
16481TIP3    H270935   1.183   0.731 107.484  0.6093 -2.1802  0.4150
16482TIP3   OH270936   2.341   1.468 105.633 -0.6391 -0.2695  0.2583
16482TIP3    H170937   2.351   1.549 105.582  0.6855 -0.8518 -0.4339
16482TIP3    H270938   2.354   1.495 105.724 -0.7322  0.3826  0.0835
16483TIP3   OH270939   0.193   2.437  94.813  0.5594  0.0196  0.0983
16483TIP3    H170940   0.200   2.408  94.722  0.0071 -1.7896  0.6044
16483TIP3    H270941   0.099   2.442  94.829  0.5547  3.2606 -0.2526
16484TIP3   OH270942   0.403   1.689   9.479  0.4417 -0.0356 -0.4535
16484TIP3    H170943   0.324   1.662   9.432 -0.2149  0.9994  0.0178
16484TIP3    H270944   0.447   1.607   9.500 -0.6938 -0.6641 -0.4037
16485TIP3   OH270945   0.043   1.738  18.795 -0.6194 -0.6091  0.1941
16485TIP3    H170946  -0.011   1.681  18.740 -1.2279  0.3219 -0.2009
16485TIP3    H270947  -0.009   1.817  18.805  0.9997  0.6388 -0.8516
16486TIP3   OH270948   0.505   2.093  32.011 -0.1997  0.1978  0.0877
16486TIP3    H170949   0.505   2.187  31.997 -1.9916  0.2733  0.4302
16486TIP3    H270950   0.493   2.056  31.923  2.8568  0.1323 -0.4275
16487TIP3   OH270951   1.823   1.392  26.898  0.1787 -0.1332 -0.2823
16487TIP3    H170952   1.770   1.451  26.951  0.5438  0.1989 -0.2820
16487TIP3    H270953   1.879   1.347  26.962 -0.4000 -0.8119 -0.2313
16488TIP3   OH270954   2.341   2.059  22.254 -0.5690  0.2048 -0.2760
16488TIP3    H170955   2.409   2.125  22.267 -1.0489  0.3254  2.0758
16488TIP3    H270956   2.360   1.992  22.319 -1.5527 -0.7594 -0.9426
16489TIP3   OH270957   1.889   1.398 105.359  0.2926 -0.6320 -0.2466
16489TIP3    H170958   1.906   1.469 105.421 -0.5123  0.3558 -1.1219
16489TIP3    H270959   1.794   1.395 105.351  0.1807 -3.0268  1.1174
16490TIP3   OH270960   0.293   2.604 108.656  0.0008  0.1186 -0.4076
16490TIP3    H170961   0.279   2.633 108.565 -0.5835  0.3193 -0.2567
16490TIP3    H270962   0.232   2.657 108.707  0.7502  0.4378  0.1797
16491TIP3   OH270963   1.090   0.677 106.171  0.1541  0.0546 -0.2230
16491TIP3    H170964   1.141   0.630 106.237 -0.5488  1.3856  1.3517
16491TIP3    H270965   1.080   0.765 106.207 -0.2847  0.8374 -2.1269
16492TIP3   OH270966   0.542   1.148  73.606 -0.3092  0.0766  0.2516
16492TIP3    H170967   0.463   1.094  73.605 -0.1363 -0.1776 -0.5884
16492TIP3    H270968   0.510   1.238  73.593 -0.5103  0.0609  0.6155
16493TIP3   OH270969   1.473   2.553  91.505  0.0603 -0.0909  0.5498
16493TIP3    H170970   1.500   2.580  91.592  0.7629 -1.7791  0.8768
16493TIP3    H270971   1.546   2.579  91.448 -0.8077  1.8934  0.2606
16494TIP3   OH270972   0.136   0.377 101.065 -0.3968 -0.2652  0.1283
16494TIP3    H170973   0.068   0.404 101.003  0.4868  1.1115 -0.2875
16494TIP3    H270974   0.198   0.325 101.014 -1.0073 -1.3679  0.4659
16495TIP3   OH270975   0.571   1.347  25.141  0.4530 -0.1703  0.3403
16495TIP3    H170976   0.572   1.260  25.180 -1.5214  0.3299  1.6442
16495TIP3    H270977   0.515   1.338  25.064  1.1719 -0.2860 -0.1773
16496TIP3   OH270978   0.320   1.219  28.654  0.0825  0.0728  0.0610
16496TIP3    H170979   0.356   1.303  28.681 -0.3338  1.0437 -2.1423
16496TIP3    H270980   0.394   1.159  28.658  0.4989  0.6294  1.2285
16497TIP3   OH270981   0.440   1.287 100.728 -0.2490 -0.0580 -0.0508
16497TIP3    H170982   0.491   1.228 100.784  0.9084  0.5534 -0.4102
16497TIP3    H270983   0.449   1.373 100.769 -1.2041  0.0297 -0.0049
16498TIP3   OH270984   0.322   1.125 100.094 -0.0911 -0.1096 -0.1750
16498TIP3    H170985   0.371   1.043 100.081 -1.3542 -1.8003  3.9077
16498TIP3    H270986   0.370   1.171 100.163 -2.9144 -0.9109  2.5808
16499TIP3   OH270987   2.390   1.713  19.032  0.1476  0.1239 -0.7850
16499TIP3    H170988   2.366   1.647  18.967 -0.2143 -1.0838  0.5145
16499TIP3    H270989   2.464   1.675  19.079 -0.1816  0.5565  0.1137
16500TIP3   OH270990   1.136   2.647   0.219 -0.1861 -0.3134 -0.4352
16500TIP3    H170991   1.110   2.628   0.128 -2.3223  2.3852 -0.4874
16500TIP3    H270992   1.230   2.664   0.213 -0.5979  1.7318 -2.5817
16501TIP3   OH270993   1.646   0.930  92.865 -0.2487  0.4204 -0.2006
16501TIP3    H170994   1.733   0.969  92.855 -0.7565  1.3370 -1.3370
16501TIP3    H270995   1.656   0.839  92.838  0.4214  0.4306  0.0082
16502TIP3   OH270996   1.519   0.372 109.628 -0.4184 -0.0241 -0.0012
16502TIP3    H170997   1.451   0.324 109.675  0.1180  0.4935  1.3221
16502TIP3    H270998   1.509   0.463 109.656  0.2593  0.2059 -0.4734
16503TIP3   OH270999   2.288   0.735  38.456  0.1279  0.3860 -0.0329
16503TIP3    H171000   2.221   0.720  38.389  0.4497  1.7850 -0.7072
16503TIP3    H271001   2.246   0.792  38.520  0.0262 -0.4314  0.6344
16504TIP3   OH271002   2.514   0.513  11.127 -0.1274  0.2360  0.4969
16504TIP3    H171003   2.521   0.419  11.143  0.2527  0.0314 -0.7705
16504TIP3    H271004   2.420   0.531  11.127 -0.2872 -0.4548 -0.8008
16505TIP3   OH271005   1.723   0.983 104.862  0.1406  0.0564  0.1643
16505TIP3    H171006   1.739   1.047 104.932 -0.0147 -0.0944  0.3382
16505TIP3    H271007   1.796   0.922 104.868  0.8940  0.8363 -0.7193
16506TIP3   OH271008   2.623   2.181  26.290  0.2030  0.1722  0.3521
16506TIP3    H171009   2.574   2.263  26.294  0.3254  0.1821  1.8984
16506TIP3    H271010   2.563   2.116  26.327  0.6986 -0.1519  0.5896
16507TIP3   OH271011   2.518   1.618   2.348 -0.2923  0.3879  0.2645
16507TIP3    H171012   2.612   1.604   2.349  0.1547  2.5518  3.3406
16507TIP3    H271013   2.485   1.560   2.418 -1.0879  0.5158  0.0070
16508TIP3   OH271014   0.535   2.152  98.129  0.0397 -0.4604  0.0108
16508TIP3    H171015   0.617   2.113  98.098 -0.2890 -0.0442 -1.4604
16508TIP3    H271016   0.479   2.156  98.051 -0.5863  1.2554  0.5076
16509TIP3   OH271017   0.813   0.986  91.018 -0.0408  0.0615  0.0221
16509TIP3    H171018   0.779   1.032  90.941  0.1938  1.3484  0.6640
16509TIP3    H271019   0.889   1.037  91.045  0.0767 -0.5623  0.9055
16510TIP3   OH271020   1.628   0.194  90.685 -0.0224 -0.1271  0.0223
16510TIP3    H171021   1.645   0.157  90.771 -1.8572 -2.0404 -0.3639
16510TIP3    H271022   1.543   0.238  90.693 -0.3034 -0.4859 -0.8258
16511TIP3   OH271023   1.380   1.710  90.140  0.3789 -0.3910  0.4146
16511TIP3    H171024   1.343   1.762  90.211  0.0063  0.0020 -0.0628
16511TIP3    H271025   1.442   1.769  90.097 -1.5393  0.4052 -1.4253
16512TIP3   OH271026   1.354   0.603 103.971 -0.6316 -0.2363  0.0649
16512TIP3    H171027   1.364   0.695 103.993 -1.0459 -0.3152  0.6128
16512TIP3    H271028   1.289   0.570 104.033 -1.1465 -0.6891 -0.6935
16513TIP3   OH271029   1.192   1.091   7.327 -0.4373 -0.1111  0.1555
16513TIP3    H171030   1.200   1.032   7.402  0.5518 -0.1600  0.0270
16513TIP3    H271031   1.099   1.090   7.305 -0.3644 -2.0954 -0.2184
16514TIP3   OH271032   0.873   2.305  37.656 -0.3686  0.3330  0.0283
16514TIP3    H171033   0.961   2.301  37.693  0.2739 -0.8488 -1.4684
16514TIP3    H271034   0.832   2.380  37.698  1.7985  1.7216 -0.1720
16515TIP3   OH271035   0.248   0.534  14.390  0.3118 -0.1410  0.5840
16515TIP3    H171036   0.224   0.442  14.402  0.6110 -0.1397  1.2029
16515TIP3    H271037   0.181   0.582  14.439 -0.0847 -0.0027 -0.0775
16516TIP3   OH271038   0.871   1.750  24.804 -0.4948  0.9568 -0.4462
16516TIP3    H171039   0.866   1.755  24.709  0.2641 -1.5495 -0.7052
16516TIP3    H271040   0.801   1.688  24.828 -0.5666  1.4281  0.6160
16517TIP3   OH271041   1.947   0.948  20.008 -0.1879  0.6136 -0.5486
16517TIP3    H171042   1.939   1.039  20.035 -0.7363  0.6448 -0.7963
16517TIP3    H271043   1.857   0.915  20.008 -0.1367  0.4221 -1.6384
16518TIP3   OH271044   2.445   1.432  91.750  0.0106 -0.2523 -0.5007
16518TIP3    H171045   2.403   1.420  91.664 -0.9444  1.0592 -0.2595
16518TIP3    H271046   2.519   1.490  91.732 -1.2388  1.5176 -0.2286
16519TIP3   OH271047   0.683   1.862 101.604 -0.9497  0.0132  0.5566
16519TIP3    H171048   0.594   1.828 101.601 -0.6102 -0.8413 -0.2072
16519TIP3    H271049   0.689   1.919 101.528 -0.1652 -1.7075 -0.7246
16520TIP3   OH271050   2.634   0.765  30.716 -0.0819 -0.4792 -0.3171
16520TIP3    H171051   2.706   0.729  30.664 -0.5148 -0.3564 -1.0164
16520TIP3    H271052   2.570   0.794  30.651  0.6771  2.5398  0.1411
16521TIP3   OH271053   1.326   2.495 110.455  0.6637  0.3613 -0.4592
16521TIP3    H171054   1.410   2.512 110.497  1.0052  0.1952 -1.0606
16521TIP3    H271055   1.302   2.407 110.484 -0.1218  1.0332  1.0374
16522TIP3   OH271056   1.222   1.862  91.061 -0.2310  0.1220  0.2934
16522TIP3    H171057   1.268   1.883  91.142 -0.0295 -0.2168  0.2724
16522TIP3    H271058   1.257   1.776  91.036  0.8449  0.8809 -0.9621
16523TIP3   OH271059   1.348   1.083  80.778  0.2355 -0.0014  0.6834
16523TIP3    H171060   1.310   1.106  80.694  0.8756 -3.2072 -0.6524
16523TIP3    H271061   1.440   1.110  80.771  0.3885 -0.6319  0.1428
16524TIP3   OH271062   1.973   1.362 102.698  0.2269 -0.1757  0.0771
16524TIP3    H171063   2.064   1.375 102.670  0.3642 -2.2399 -0.6361
16524TIP3    H271064   1.981   1.306 102.776 -0.3810  1.2025  1.1504
16525TIP3   OH271065   0.430   1.228  33.553 -0.9175  0.0575 -0.1902
16525TIP3    H171066   0.461   1.149  33.596 -0.3665  0.1378 -0.4259
16525TIP3    H271067   0.416   1.290  33.624  1.9181  0.8568 -0.2052
16526TIP3   OH271068   2.451   0.770  98.853  0.0636 -0.6007  0.4498
16526TIP3    H171069   2.364   0.736  98.833 -0.6003  0.7297  0.9824
16526TIP3    H271070   2.460   0.759  98.947  1.7295 -3.4968  0.0790
16527TIP3   OH271071   2.681   2.535  81.157  0.2727 -0.0466  0.5309
16527TIP3    H171072   2.607   2.558  81.100 -0.1385 -1.1842  0.5752
16527TIP3    H271073   2.641   2.521  81.243  0.7286  0.5056  0.8361
16528TIP3   OH271074   0.254   0.762 107.905  0.0134 -0.4466 -0.0956
16528TIP3    H171075   0.254   0.693 107.838 -0.9582  0.0739 -0.6547
16528TIP3    H271076   0.314   0.828 107.872  0.3085 -0.6475  0.0383
16529TIP3   OH271077   0.450   1.198 105.328  0.1586  0.2603  0.0837
16529TIP3    H171078   0.368   1.234 105.295  0.3864  1.3681  0.6852
16529TIP3    H271079   0.513   1.214 105.258 -0.5902 -2.8251 -1.4699
16530TIP3   OH271080   1.702   1.083  94.816  0.6114 -0.6115  0.0208
16530TIP3    H171081   1.789   1.112  94.844 -0.3008  1.6825  0.6728
16530TIP3    H271082   1.704   1.089  94.721  0.1993  2.7892  0.1038
16531TIP3   OH271083   2.228   1.096  36.879  0.2289  0.3924 -0.6472
16531TIP3    H171084   2.287   1.038  36.831  1.1418  0.3287  0.5080
16531TIP3    H271085   2.231   1.179  36.830 -1.3882 -0.5858 -2.5350
16532TIP3   OH271086   2.453   1.233 111.804 -0.4179  0.3582 -0.5403
16532TIP3    H171087   2.375   1.207 111.756  0.7875 -0.5233 -2.0936
16532TIP3    H271088   2.478   1.154 111.853  0.1544  0.2846 -0.9550
16533TIP3   OH271089   2.345   0.914 104.571 -0.2417 -0.4358 -0.1361
16533TIP3    H171090   2.292   0.912 104.491 -0.5535  0.8021  0.0302
16533TIP3    H271091   2.289   0.874 104.638 -0.9580  0.7877  0.0179
16534TIP3   OH271092   0.501   2.561  27.064 -0.1383 -0.0935  0.1337
16534TIP3    H171093   0.520   2.580  27.156  1.0977 -0.3062 -0.0624
16534TIP3    H271094   0.585   2.537  27.027  0.1052  3.2250 -1.8509
16535TIP3   OH271095   1.494   2.243  29.278  0.4370 -0.9426 -0.4264
16535TIP3    H171096   1.413   2.257  29.229 -0.8482 -1.5105  1.4317
16535TIP3    H271097   1.490   2.152  29.306  0.8867 -0.5219  1.1040
16536TIP3   OH271098   0.080   0.273  68.431 -0.0258  0.5402  0.3324
16536TIP3    H171099   0.081   0.194  68.484 -1.0924  0.7684  0.7204
16536TIP3    H271100   0.061   0.242  68.342 -0.6625  0.3797  0.5236
16537TIP3   OH271101   0.085   0.593  84.078 -0.7421  0.5331  0.2577
16537TIP3    H171102   0.161   0.580  84.134 -2.5528 -1.5697  2.4949
16537TIP3    H271103   0.112   0.560  83.992  1.2040  1.0009  0.6512
16538TIP3   OH271104   1.377   1.338  89.053  0.2481 -0.2965 -0.5580
16538TIP3    H171105   1.331   1.337  88.969 -1.1603 -2.4913  0.1745
16538TIP3    H271106   1.463   1.302  89.033 -0.0027 -0.6190 -1.0877
16539TIP3   OH271107   1.203   2.141  23.633  0.0753 -0.4224  0.4658
16539TIP3    H171108   1.149   2.068  23.663 -0.6629  0.4605  1.3391
16539TIP3    H271109   1.140   2.208  23.606  0.7427 -0.1424 -0.4522
16540TIP3   OH271110   2.365   0.611  16.217 -0.3982 -0.0900 -0.5483
16540TIP3    H171111   2.307   0.659  16.276 -0.1981  0.8212 -1.0672
16540TIP3    H271112   2.450   0.655  16.226  0.0320 -0.9365 -0.3493
16541TIP3   OH271113   1.393   0.342  63.635 -0.1936 -0.4672  0.3539
16541TIP3    H171114   1.453   0.269  63.651  0.6923 -0.0827 -1.0973
16541TIP3    H271115   1.371   0.374  63.723  0.3495 -1.7030  0.9686
16542TIP3   OH271116   2.276   1.804  81.371  0.2835  0.3130  0.1645
16542TIP3    H171117   2.207   1.775  81.311 -0.2267  0.1118  0.8286
16542TIP3    H271118   2.345   1.738  81.363  0.7128  0.8841 -1.0105
16543TIP3   OH271119   0.251   0.573  83.150 -0.3766  0.3478 -0.3398
16543TIP3    H171120   0.179   0.604  83.205  0.4227  1.2351  0.2416
16543TIP3    H271121   0.327   0.572  83.208 -0.2452 -2.3641 -0.4376
16544TIP3   OH271122   1.407   2.620 101.934 -0.3071  0.3723  0.5476
16544TIP3    H171123   1.465   2.555 101.975  0.6302  0.5580 -0.4541
16544TIP3    H271124   1.449   2.704 101.953 -0.8262  0.5982  0.7152
16545TIP3   OH271125   0.324   0.069  12.026 -0.2774  0.0329  0.8935
16545TIP3    H171126   0.365   0.008  11.966  0.0704  1.6187 -0.5618
16545TIP3    H271127   0.230   0.057  12.011 -0.2876 -1.2111  1.7772
16546TIP3   OH271128   2.354   1.322   6.409  0.0944  0.1227  0.3473
16546TIP3    H171129   2.422   1.388   6.416  0.5442 -0.4276  1.3222
16546TIP3    H271130   2.346   1.285   6.497 -0.5602 -0.7129 -0.0431
16547TIP3   OH271131   0.892   2.448 100.579 -0.6592 -0.0987 -0.4092
16547TIP3    H171132   0.896   2.541 100.601  0.3604 -0.1148 -0.4492
16547TIP3    H271133   0.981   2.416 100.597  0.0085 -0.3328 -3.5680
16548TIP3   OH271134   2.131   0.748  31.476 -0.2162 -0.0638  0.3317
16548TIP3    H171135   2.094   0.680  31.532  1.5126 -0.3558  1.1814
16548TIP3    H271136   2.225   0.730  31.475 -0.0163  0.8513 -1.4435
16549TIP3   OH271137   2.253   1.083   4.292 -0.0734 -0.0401  0.1010
16549TIP3    H171138   2.203   1.008   4.325  1.6521 -1.1329  0.3507
16549TIP3    H271139   2.271   1.136   4.370  0.9448 -0.7607  0.3734
16550TIP3   OH271140   1.516   1.103  99.938 -0.3620  0.7013 -0.7549
16550TIP3    H171141   1.566   1.120  99.858 -0.5055  2.1505 -0.5708
16550TIP3    H271142   1.443   1.165  99.934 -0.3383  0.8385  0.5171
16551TIP3   OH271143   0.347   1.792   7.037 -0.0324 -0.3968  0.1328
16551TIP3    H171144   0.385   1.871   7.076 -0.7717 -0.2032  0.4688
16551TIP3    H271145   0.421   1.749   6.994  0.2688  0.7603 -0.5360
16552TIP3   OH271146   2.341   1.841 104.786 -0.5998 -0.3308 -0.6062
16552TIP3    H171147   2.401   1.907 104.819  0.3781 -0.6329 -1.7047
16552TIP3    H271148   2.305   1.799 104.864 -1.3353  1.5344  0.1282
16553TIP3   OH271149   0.292   1.839  33.534 -0.1149 -0.0855 -0.1373
16553TIP3    H171150   0.362   1.774  33.543  0.9350  0.7145 -2.0228
16553TIP3    H271151   0.225   1.794  33.483 -1.3806 -1.0845  2.2370
16554TIP3   OH271152   2.037   0.772  62.867 -0.0021  0.1893  0.0879
16554TIP3    H171153   1.972   0.801  62.931 -0.0403  1.3695 -0.4674
16554TIP3    H271154   1.988   0.715  62.808 -1.1025  2.6433 -1.5343
16555TIP3   OH271155   0.162   1.618  21.258  0.1950 -0.0052  0.0357
16555TIP3    H171156   0.214   1.681  21.309  0.3109 -0.5444  0.5878
16555TIP3    H271157   0.186   1.636  21.167  0.6639  0.3597  0.2257
16556TIP3   OH271158   0.878   2.199   5.676  0.3841  0.0827 -0.1084
16556TIP3    H171159   0.967   2.231   5.665  0.4730 -0.1223 -0.0109
16556TIP3    H271160   0.823   2.258   5.625  0.5620  0.2867 -0.0608
16557TIP3   OH271161   2.378   1.202   7.122 -0.1978  0.5587 -0.4990
16557TIP3    H171162   2.337   1.133   7.069  1.5114 -0.5263 -0.4735
16557TIP3    H271163   2.443   1.241   7.063 -0.7985  1.8449 -0.3456
16558TIP3   OH271164   0.581   0.541 102.746  0.5124  0.2430  0.0612
16558TIP3    H171165   0.533   0.499 102.818 -2.6647 -0.5769 -2.3460
16558TIP3    H271166   0.644   0.474 102.718 -0.6322 -0.7968 -0.1182
16559TIP3   OH271167   1.682   1.002  33.834  0.2214  0.3415  0.0945
16559TIP3    H171168   1.736   0.947  33.891  0.4646  0.2962 -0.1828
16559TIP3    H271169   1.725   0.999  33.749 -0.4157  0.0224 -0.2214
16560TIP3   OH271170   0.903   2.139   7.536 -0.3872 -0.1139  0.0685
16560TIP3    H171171   0.982   2.179   7.499 -0.9304  1.4931  0.5285
16560TIP3    H271172   0.916   2.146   7.631 -1.2506  0.5475  0.1447
16561TIP3   OH271173   1.388   2.456  30.174 -0.2055  0.3862 -0.3838
16561TIP3    H171174   1.441   2.526  30.136 -0.2202  0.3265 -0.5144
16561TIP3    H271175   1.425   2.376  30.137 -0.2254  0.3291 -0.2784
16562TIP3   OH271176   0.757   1.537   1.485  0.8534 -0.0152 -0.0737
16562TIP3    H171177   0.702   1.593   1.431 -0.1985  1.2987  2.2512
16562TIP3    H271178   0.822   1.596   1.523 -0.3083 -0.2827  2.4584
16563TIP3   OH271179   1.365   2.145  24.591  0.1712  0.5904  0.0275
16563TIP3    H171180   1.422   2.116  24.519 -0.2891  1.3233 -0.6618
16563TIP3    H271181   1.424   2.158  24.665  0.3682 -2.1930  0.4393
16564TIP3   OH271182   2.551   1.610 104.391  0.3530  0.2181 -0.1152
16564TIP3    H171183   2.493   1.535 104.400 -1.8760  1.9020  0.4708
16564TIP3    H271184   2.570   1.637 104.481 -2.1236  2.6148 -0.1777
16565TIP3   OH271185   0.201   0.430  63.177  0.0082 -0.1734 -0.0885
16565TIP3    H171186   0.235   0.510  63.218  1.6199 -1.4689  1.2441
16565TIP3    H271187   0.130   0.461  63.121 -0.1864  2.0655  1.2510
16566TIP3   OH271188   1.225   2.295  22.434  0.1149  0.0748 -0.4896
16566TIP3    H171189   1.305   2.247  22.454 -0.6541 -1.3188 -0.6393
16566TIP3    H271190   1.159   2.258  22.493 -0.5654  0.7773 -0.7866
16567TIP3   OH271191   1.234   2.207  96.154 -0.1153  0.5307 -0.4953
16567TIP3    H171192   1.207   2.160  96.233  0.2436 -0.1255 -0.7584
16567TIP3    H271193   1.168   2.184  96.089 -1.1598  2.1099 -0.0566
16568TIP3   OH271194   0.338   0.739  30.976 -0.2179 -0.0344  0.0717
16568TIP3    H171195   0.375   0.717  31.061  1.1120  1.1206 -0.1615
16568TIP3    H271196   0.244   0.720  30.985  0.4633 -4.2572  0.2970
16569TIP3   OH271197   1.041   1.695  13.700  0.2542 -0.1382  0.5408
16569TIP3    H171198   1.132   1.710  13.673 -0.2197 -0.2125 -1.2493
16569TIP3    H271199   1.045   1.685  13.795  2.0536  0.2973  0.5423
16570TIP3   OH271200   0.936   1.058  96.203  0.0572  0.3760 -0.2843
16570TIP3    H171201   0.877   1.040  96.130 -0.1404  0.1603 -0.0721
16570TIP3    H271202   0.922   0.986  96.264  0.7457  0.1678 -0.3532
16571TIP3   OH271203   1.207   0.345 107.437 -0.1969  0.2544  0.0665
16571TIP3    H171204   1.301   0.333 107.430 -0.1460  1.0420 -0.7427
16571TIP3    H271205   1.191   0.356 107.530  0.5594  0.5254  0.1699
16572TIP3   OH271206   2.101   2.236  94.341  0.3775 -0.3021 -0.2870
16572TIP3    H171207   2.140   2.152  94.368  1.4952  0.1641 -0.3971
16572TIP3    H271208   2.018   2.212  94.301  0.3256 -1.2994  0.3736
16573TIP3   OH271209   0.106   1.302  78.150  0.3761 -0.3668 -1.3920
16573TIP3    H171210   0.088   1.229  78.209  3.4542  0.3261  0.6505
16573TIP3    H271211   0.034   1.364  78.165  0.8265 -0.4035  1.4497
16574TIP3   OH271212   2.365   2.449   1.888  0.6809  0.1781  0.3746
16574TIP3    H171213   2.278   2.442   1.927  0.9187  1.0136  1.1045
16574TIP3    H271214   2.421   2.480   1.960  1.5073  0.0166 -0.1797
16575TIP3   OH271215   1.549   2.597  75.847 -1.0090 -0.0007  0.3237
16575TIP3    H171216   1.598   2.563  75.922  1.2426 -0.0239 -1.0580
16575TIP3    H271217   1.516   2.519  75.802 -1.6266 -0.0243  0.8108
16576TIP3   OH271218   0.648   2.328 101.160  0.2338  0.0838  0.3222
16576TIP3    H171219   0.644   2.242 101.119 -0.7982 -0.3014  1.1657
16576TIP3    H271220   0.586   2.322 101.233 -0.6487  1.8580 -0.2160
16577TIP3   OH271221   0.435   0.678  64.298  0.0240  0.0166 -0.3575
16577TIP3    H171222   0.363   0.669  64.359  1.9667  0.0615  2.1091
16577TIP3    H271223   0.403   0.640  64.216 -2.7355  0.0759  0.6117
16578TIP3   OH271224   1.230   0.163  52.570 -0.2830 -0.2595  0.2515
16578TIP3    H171225   1.252   0.193  52.482 -2.0860 -0.9605 -0.4780
16578TIP3    H271226   1.306   0.187  52.623  1.1431 -0.4439 -1.6161
16579TIP3   OH271227   0.721   1.144  78.216 -0.8899  0.2008  0.4967
16579TIP3    H171228   0.733   1.080  78.286  2.0181  0.6123  0.4915
16579TIP3    H271229   0.742   1.095  78.136 -0.7664  0.6243  0.2700
16580TIP3   OH271230   1.628   0.857  16.819 -0.2856 -0.1556  0.0807
16580TIP3    H171231   1.578   0.920  16.871 -2.7703 -3.5903  2.3090
16580TIP3    H271232   1.562   0.796  16.785  1.9411 -1.7809 -1.6302
16581TIP3   OH271233   0.108   0.735  22.596  0.3719 -0.1693 -0.9646
16581TIP3    H171234   0.015   0.746  22.615  0.6064  0.9539 -0.3459
16581TIP3    H271235   0.143   0.692  22.674  0.6446  0.8853 -0.4893
16582TIP3   OH271236   1.943   0.831  37.390  0.0460  0.1901  0.7228
16582TIP3    H171237   1.913   0.849  37.301  2.2443  1.1987  0.1157
16582TIP3    H271238   1.871   0.781  37.430 -1.1628  0.0504 -1.4619
16583TIP3   OH271239   2.198   1.129  87.918  0.1270  0.4455 -0.1001
16583TIP3    H171240   2.228   1.058  87.974 -0.2139  0.2100 -0.2132
16583TIP3    H271241   2.131   1.090  87.863  2.1653  0.0447 -2.4447
16584TIP3   OH271242   0.331   1.383  32.331  0.1804 -0.6457  0.1451
16584TIP3    H171243   0.319   1.434  32.251 -1.0453 -0.0569  0.6894
16584TIP3    H271244   0.387   1.310  32.304  2.0120  0.9473 -0.6630
16585TIP3   OH271245   0.180   2.269  89.533  0.5378 -1.0127  0.2477
16585TIP3    H171246   0.269   2.303  89.523 -0.0156  0.4144 -0.0382
16585TIP3    H271247   0.143   2.318  89.606 -0.3459 -0.8500 -0.2872
16586TIP3   OH271248   1.557   0.811  88.060 -0.1246 -0.2637 -0.1858
16586TIP3    H171249   1.503   0.875  88.015  1.1622  0.0780 -1.3276
16586TIP3    H271250   1.554   0.837  88.152 -1.4200  0.0765 -0.3107
16587TIP3   OH271251   0.372   2.225  92.305  0.1728 -0.2264 -0.2450
16587TIP3    H171252   0.395   2.271  92.386  1.2997 -1.7748  0.3687
16587TIP3    H271253   0.356   2.134  92.333 -0.8133 -0.4916 -1.5665
16588TIP3   OH271254   1.376   2.387  83.061  0.2745 -0.1200 -0.3312
16588TIP3    H171255   1.312   2.423  82.999 -0.0310 -0.3403 -0.1512
16588TIP3    H271256   1.331   2.314  83.102 -0.0416  0.8766  1.1790
16589TIP3   OH271257   0.293   0.198  16.049 -0.2222 -0.0876 -0.0585
16589TIP3    H171258   0.277   0.261  16.119 -0.7919 -1.6197  1.2407
16589TIP3    H271259   0.375   0.154  16.074 -0.9282 -1.3119  0.1956
16590TIP3   OH271260   2.166   1.572  97.724 -0.8686 -0.0870 -0.3308
16590TIP3    H171261   2.231   1.548  97.658 -0.0315 -1.4842  0.9421
16590TIP3    H271262   2.103   1.627  97.677 -0.4949 -1.2894 -2.3556
16591TIP3   OH271263   0.190   2.273   2.210 -0.2921 -0.1500 -0.1526
16591TIP3    H171264   0.128   2.337   2.244 -1.0428 -0.8024 -0.2695
16591TIP3    H271265   0.136   2.198   2.186  0.5912 -0.9064  0.1774
16592TIP3   OH271266   2.183   2.591  73.749 -0.3966 -0.4209  0.4064
16592TIP3    H171267   2.164   2.611  73.658 -1.8893  0.3577  0.8597
16592TIP3    H271268   2.264   2.639  73.768 -0.5919  0.1777 -0.2370
16593TIP3   OH271269   0.706   2.395  20.147 -0.0495  0.0114 -0.2971
16593TIP3    H171270   0.666   2.474  20.111  0.2879 -0.0535 -0.8114
16593TIP3    H271271   0.632   2.339  20.169 -0.3404  0.7733  0.8108
16594TIP3   OH271272   0.950   1.146  18.719  0.4143  0.0546  0.3169
16594TIP3    H171273   0.957   1.124  18.811  0.0843 -0.7865  0.1449
16594TIP3    H271274   0.990   1.233  18.712  1.3082 -0.2816  1.0772
16595TIP3   OH271275   2.584   2.242  92.479 -0.0253  0.1022 -0.3385
16595TIP3    H171276   2.518   2.217  92.414  0.6810  0.0578 -1.0497
16595TIP3    H271277   2.668   2.224  92.436  0.4581 -0.8290  0.9371
16596TIP3   OH271278   2.638   0.155  16.457  0.1190 -0.1532  0.2780
16596TIP3    H171279   2.571   0.179  16.393  0.0255  2.0794  1.1461
16596TIP3    H271280   2.629   0.060  16.466 -1.2214 -0.2490 -1.4866
16597TIP3   OH271281   2.505   1.909  28.561 -0.0434 -0.3613 -0.2772
16597TIP3    H171282   2.590   1.950  28.543 -0.5095  0.2506 -1.1681
16597TIP3    H271283   2.526   1.837  28.620  0.9674  0.3925  0.3358
16598TIP3   OH271284   0.966   2.020  81.305 -0.3176  0.0371 -0.5026
16598TIP3    H171285   0.998   2.090  81.248 -0.4013  0.9780  0.5691
16598TIP3    H271286   1.037   2.005  81.367 -0.2608 -0.9217 -0.7830
16599TIP3   OH271287   0.124   0.433  13.497 -0.2060  0.0806 -0.2044
16599TIP3    H171288   0.041   0.480  13.505  0.4023  1.2454 -0.4204
16599TIP3    H271289   0.188   0.501  13.474  0.9727 -0.6328  0.8064
16600TIP3   OH271290   0.959   2.608  82.225  0.9338 -0.1795 -0.3134
16600TIP3    H171291   1.023   2.557  82.176 -0.8759 -3.8506  0.7684
16600TIP3    H271292   0.874   2.578  82.193 -0.3806 -2.5805  4.3885
16601TIP3   OH271293   0.831   2.397 104.879 -0.5128  0.3585 -0.3927
16601TIP3    H171294   0.845   2.394 104.973  1.5375 -1.4989 -0.6928
16601TIP3    H271295   0.855   2.486 104.854 -1.7581  1.0988  0.8785
16602TIP3   OH271296   2.448   0.274  13.517 -0.1540 -0.0988  0.4083
16602TIP3    H171297   2.495   0.265  13.600  0.4625  0.8291  0.1703
16602TIP3    H271298   2.458   0.366  13.493  1.7916 -0.8147 -1.9028
16603TIP3   OH271299   0.172   0.721  92.901  0.4085 -0.5512 -0.0157
16603TIP3    H171300   0.154   0.759  92.987  1.8919  0.9283 -0.3104
16603TIP3    H271301   0.111   0.648  92.894 -1.4734  0.8139  1.2549
16604TIP3   OH271302   0.171   1.118  29.275 -0.0500  0.8234 -0.2463
16604TIP3    H171303   0.076   1.111  29.286 -0.0933  1.6584 -0.0235
16604TIP3    H271304   0.191   1.209  29.295  0.9747  0.3493  1.0199
16605TIP3   OH271305   1.284   1.855 109.482 -0.0850 -0.6176 -0.2946
16605TIP3    H171306   1.341   1.892 109.415  0.7121  2.0777  1.6861
16605TIP3    H271307   1.213   1.919 109.491 -0.2533 -0.9644  1.2742
16606TIP3   OH271308   2.251   0.813  26.724 -0.2476 -0.5468 -0.0299
16606TIP3    H171309   2.309   0.884  26.696  0.7553 -0.8129  1.2960
16606TIP3    H271310   2.260   0.746  26.655 -0.7139  0.3203 -0.9583
16607TIP3   OH271311   1.124   2.347  95.303  0.1788  0.0167  0.0346
16607TIP3    H171312   1.202   2.402  95.289  0.1063  0.3501  0.8996
16607TIP3    H271313   1.065   2.371  95.231 -0.4085  2.0727  1.1211
16608TIP3   OH271314   2.015   0.102  89.936  0.1792  0.2833  0.1889
16608TIP3    H171315   1.936   0.048  89.945  0.5182 -0.6023 -1.6605
16608TIP3    H271316   2.087   0.040  89.937  0.6750  0.8351 -0.4552
16609TIP3   OH271317   1.248   0.888  87.838  0.2049  0.3470 -0.1071
16609TIP3    H171318   1.292   0.967  87.870  0.5631 -0.6704  2.1240
16609TIP3    H271319   1.155   0.904  87.856 -0.2286  1.6278 -2.9083
16610TIP3   OH271320   1.148   0.226  10.863  0.3713  0.2159 -0.0914
16610TIP3    H171321   1.072   0.229  10.804  0.2673  0.0859  0.0356
16610TIP3    H271322   1.157   0.315  10.895  1.0923  0.5451 -1.1444
16611TIP3   OH271323   1.601   1.207  98.200  0.3288 -0.1723  0.2707
16611TIP3    H171324   1.634   1.119  98.178  1.4781 -0.0847  1.4696
16611TIP3    H271325   1.576   1.200  98.292  2.2218  1.2117  0.9555
16612TIP3   OH271326   1.000   1.020  12.122  0.2281 -0.4578 -0.1446
16612TIP3    H171327   0.925   0.987  12.173  0.4494 -1.3440 -0.3874
16612TIP3    H271328   1.076   0.981  12.163  0.4474 -0.7720 -0.8380
16613TIP3   OH271329   2.391   2.499  19.721 -0.6136  0.1088  0.7457
16613TIP3    H171330   2.351   2.412  19.728  0.6900 -0.6279 -0.4695
16613TIP3    H271331   2.414   2.507  19.629  0.3821  1.2571  1.0818
16614TIP3   OH271332   0.560   0.216  27.714 -0.9964 -0.1589  0.0802
16614TIP3    H171333   0.516   0.301  27.705 -0.1112  0.4402  1.1114
16614TIP3    H271334   0.641   0.236  27.761 -0.4671 -1.4938 -0.2084
16615TIP3   OH271335   0.361   1.656  95.909  0.3412 -0.2467  0.7889
16615TIP3    H171336   0.375   1.561  95.908  0.0652 -0.2848  0.0740
16615TIP3    H271337   0.431   1.691  95.854 -0.3696 -0.1602 -0.0851
16616TIP3   OH271338   1.368   1.719   0.691  0.3890  0.1628 -0.1521
16616TIP3    H171339   1.436   1.663   0.653 -0.8847 -0.9780 -0.8047
16616TIP3    H271340   1.302   1.728   0.623 -0.6562  0.3187  0.8430
16617TIP3   OH271341   2.111   1.634   5.672  0.5336  0.0968  0.3475
16617TIP3    H171342   2.193   1.590   5.649  0.3235 -0.6664  1.0017
16617TIP3    H271343   2.137   1.720   5.704  0.8071  1.6943 -3.6323
16618TIP3   OH271344   1.702   0.318  22.323  0.3695  0.8665 -0.1860
16618TIP3    H171345   1.745   0.279  22.247 -2.8494  0.3340 -1.9081
16618TIP3    H271346   1.774   0.339  22.383  2.7013 -2.9914 -1.3053
16619TIP3   OH271347   1.814   0.539 105.340 -0.0493 -0.0479  0.2364
16619TIP3    H171348   1.876   0.498 105.400 -0.1694  0.2650  0.5808
16619TIP3    H271349   1.852   0.625 105.321 -0.3374  0.1138  0.3878
16620TIP3   OH271350   2.449   1.858  20.820 -0.3922  0.2023 -0.5302
16620TIP3    H171351   2.434   1.849  20.725  0.1458 -0.2861 -0.5775
16620TIP3    H271352   2.420   1.775  20.857  1.0761 -0.3393 -0.4977
16621TIP3   OH271353   0.659   1.991 100.199 -0.2757 -0.5447 -0.1185
16621TIP3    H171354   0.680   1.957 100.112 -1.1963  0.3288 -0.7036
16621TIP3    H271355   0.694   2.080 100.199  1.8616 -1.3287  1.3008
16622TIP3   OH271356   2.521   0.253 102.903  0.5958  0.1683 -0.0068
16622TIP3    H171357   2.435   0.214 102.920  0.9640 -1.0278 -0.7180
16622TIP3    H271358   2.502   0.336 102.860 -0.2138 -0.4450 -0.8665
16623TIP3   OH271359   1.692   1.462  78.757 -0.1727  0.0752  0.7925
16623TIP3    H171360   1.770   1.432  78.709 -0.1101 -2.2326  2.1475
16623TIP3    H271361   1.712   1.441  78.848 -2.4197 -0.6664  1.1589
16624TIP3   OH271362   2.529   1.380  92.351  0.0841  0.2252  0.4269
16624TIP3    H171363   2.533   1.430  92.269  1.0406  0.7112  0.7560
16624TIP3    H271364   2.566   1.294  92.328 -2.2582 -0.6567 -0.3341
16625TIP3   OH271365   0.920   1.085  11.642 -0.0903  0.1385 -0.4568
16625TIP3    H171366   0.827   1.092  11.663 -0.0492 -0.5717  0.0210
16625TIP3    H271367   0.961   1.065  11.726  0.2673 -1.3632 -0.9705
16626TIP3   OH271368   0.576   1.977  87.481  0.5693  0.0018 -0.4944
16626TIP3    H171369   0.494   2.025  87.487  0.2674 -0.5780  0.1944
16626TIP3    H271370   0.591   1.966  87.387 -1.3269 -1.8026 -0.6622
16627TIP3   OH271371   1.741   1.414  94.288  0.2800  0.5767 -0.3914
16627TIP3    H171372   1.706   1.392  94.374  0.5633 -0.9161 -0.6264
16627TIP3    H271373   1.666   1.449  94.240 -0.1168  0.4658  0.1353
16628TIP3   OH271374   0.942   0.428  11.623 -0.2275  0.2632 -0.0850
16628TIP3    H171375   0.912   0.518  11.630 -0.5228  0.1845 -0.3110
16628TIP3    H271376   0.920   0.402  11.533 -1.1638 -0.3839  0.3112
16629TIP3   OH271377   2.084   2.380  12.839 -0.1300 -0.4268  0.5042
16629TIP3    H171378   2.173   2.356  12.862 -0.2461 -0.3354  1.0667
16629TIP3    H271379   2.062   2.453  12.897  0.0415  0.7558 -0.8467
16630TIP3   OH271380   1.597   0.167  76.188  0.1867 -0.1442  1.1005
16630TIP3    H171381   1.502   0.162  76.200  0.2215 -0.0989  1.4200
16630TIP3    H271382   1.633   0.124  76.266  0.4259 -0.5399  0.7804
16631TIP3   OH271383   1.261   1.228  28.829  0.0743  0.3615  0.2837
16631TIP3    H171384   1.184   1.280  28.806 -0.1756  0.1439  0.6202
16631TIP3    H271385   1.332   1.292  28.836 -0.2304  0.6578  0.6977
16632TIP3   OH271386   0.862   2.645  26.171 -0.0439  0.1146 -0.2551
16632TIP3    H171387   0.940   2.607  26.211  1.1719  1.7384 -0.9602
16632TIP3    H271388   0.888   2.734  26.148 -2.0092  0.5828 -0.8477
16633TIP3   OH271389   0.788   0.436  31.546  0.7367  0.2277 -0.3019
16633TIP3    H171390   0.797   0.449  31.640 -1.0543 -0.8235  0.0610
16633TIP3    H271391   0.784   0.525  31.510  1.0439  0.6458  0.6590
16634TIP3   OH271392   1.875   1.143 108.745 -0.3120 -0.1126  0.0931
16634TIP3    H171393   1.924   1.222 108.771 -0.5594 -0.1897  0.8311
16634TIP3    H271394   1.841   1.109 108.828  1.2641 -1.9858  0.0360
16635TIP3   OH271395   2.436   2.424 108.221  0.0944  0.4764 -0.5203
16635TIP3    H171396   2.381   2.493 108.256  0.0070  0.6599 -1.0051
16635TIP3    H271397   2.477   2.383 108.298 -0.9148  0.1650 -0.1401
16636TIP3   OH271398   0.252   1.633  21.710 -0.3475 -0.0092  0.6474
16636TIP3    H171399   0.159   1.642  21.692 -0.2846  1.0099  0.7822
16636TIP3    H271400   0.268   1.692  21.783  0.3941 -0.2326  0.6715
16637TIP3   OH271401   0.714   0.203   4.045 -0.0145 -0.2948  0.2607
16637TIP3    H171402   0.686   0.258   4.118 -1.7554  0.7926 -1.1404
16637TIP3    H271403   0.678   0.117   4.064 -0.8959  0.1072  0.4493
16638TIP3   OH271404   1.838   0.325  96.541 -0.7603  0.0047  0.0652
16638TIP3    H171405   1.852   0.262  96.612  0.2679  0.5358  0.3452
16638TIP3    H271406   1.744   0.345  96.545 -0.7979 -0.3285  0.9641
16639TIP3   OH271407   0.499   0.489  17.753  0.2912 -0.2528 -0.4543
16639TIP3    H171408   0.455   0.440  17.683  0.5864 -0.6321 -0.3760
16639TIP3    H271409   0.588   0.503  17.719 -0.0172  0.9158 -0.8113
16640TIP3   OH271410   0.256   2.621  96.278 -0.3056 -0.0816  0.5245
16640TIP3    H171411   0.229   2.535  96.246 -2.0011  1.1297 -1.6139
16640TIP3    H271412   0.237   2.620  96.372  1.8077 -2.7260  1.0215
16641TIP3   OH271413   0.220   0.173   8.975  0.4261 -0.9564 -0.1849
16641TIP3    H171414   0.266   0.130   8.904  0.4096 -1.6292  0.2083
16641TIP3    H271415   0.192   0.102   9.033  0.1423 -0.4472  0.3154
16642TIP3   OH271416   2.285   1.026 102.144 -0.6241  0.1660  0.0413
16642TIP3    H171417   2.219   1.054 102.208 -0.2158 -0.0828  0.5749
16642TIP3    H271418   2.273   0.932 102.137  0.2972 -0.0268  0.8633
16643TIP3   OH271419   1.607   1.604  91.382 -0.0903  0.3874 -0.3255
16643TIP3    H171420   1.643   1.677  91.332  1.4620 -0.3010 -0.2734
16643TIP3    H271421   1.683   1.567  91.427 -0.8532 -1.2197 -0.3125
16644TIP3   OH271422   1.559   0.971  91.798 -0.1009  0.0441 -0.3140
16644TIP3    H171423   1.589   1.051  91.755 -0.4459  0.9345  1.0083
16644TIP3    H271424   1.466   0.986  91.814  0.0565 -0.1304  0.9223
16645TIP3   OH271425   0.687   1.395 108.748 -0.0373  0.1753  0.2437
16645TIP3    H171426   0.778   1.390 108.718 -0.0073 -0.6076  0.4201
16645TIP3    H271427   0.688   1.460 108.818  0.4201  0.0797  0.3285
16646TIP3   OH271428   0.938   1.109   2.007  0.3564  0.1304 -0.3729
16646TIP3    H171429   0.888   1.037   2.045  0.7376  0.4433  0.7704
16646TIP3    H271430   1.014   1.118   2.064 -0.3121  2.2428  0.2814
16647TIP3   OH271431   0.718   2.013  88.134 -0.0063 -0.3558  0.8918
16647TIP3    H171432   0.704   2.046  88.045  0.1661  0.4885  1.1726
16647TIP3    H271433   0.755   1.925  88.121 -0.1033 -0.2888  0.1306
16648TIP3   OH271434   0.050   0.773   6.188  0.4322 -0.0734  0.0141
16648TIP3    H171435   0.024   0.865   6.182  0.3318 -0.0818  0.3140
16648TIP3    H271436   0.002   0.730   6.117  0.7666  0.1692 -0.3622
16649TIP3   OH271437   2.626   1.368   3.458  0.4402  0.4726 -0.3938
16649TIP3    H171438   2.559   1.411   3.405  0.8690  0.3401 -1.0551
16649TIP3    H271439   2.599   1.276   3.461 -0.3094  0.7088  0.7612
16650TIP3   OH271440   1.105   2.217  12.252  0.1903 -0.0931  0.1331
16650TIP3    H171441   1.093   2.138  12.199 -0.5942  0.1565 -0.0596
16650TIP3    H271442   1.077   2.191  12.340  0.6905 -0.2557  0.2519
16651TIP3   OH271443   2.469   1.368   7.873 -0.0076  0.0719 -0.0964
16651TIP3    H171444   2.557   1.336   7.851 -0.0735 -0.9253  0.9855
16651TIP3    H271445   2.410   1.308   7.828 -0.1478  0.6780 -0.7358
16652TIP3   OH271446   1.938   1.090  17.471  0.0042 -0.2777  0.2471
16652TIP3    H171447   1.956   0.996  17.482  0.0996 -0.1677  1.1149
16652TIP3    H271448   1.961   1.129  17.556 -1.5499  0.3035  0.4308
16653TIP3   OH271449   0.460   0.377  77.499 -0.0691 -0.6719 -0.6210
16653TIP3    H171450   0.384   0.413  77.546  0.5040  1.2554 -1.0502
16653TIP3    H271451   0.430   0.370  77.408 -0.1929 -1.3928 -0.5339
16654TIP3   OH271452   0.773   1.805  32.700 -0.1871  0.4345  0.4198
16654TIP3    H171453   0.704   1.849  32.651  0.7363  0.9608 -0.4316
16654TIP3    H271454   0.788   1.724  32.653 -2.1999 -1.1079  2.2421
16655TIP3   OH271455   0.472   1.381  11.912  0.4232 -0.7098 -0.3991
16655TIP3    H171456   0.539   1.336  11.963  0.2750  1.0828  1.5292
16655TIP3    H271457   0.394   1.326  11.921  0.7030 -0.9947  0.4096
16656TIP3   OH271458   0.446   1.282  35.683 -0.1727 -0.1414  0.2639
16656TIP3    H171459   0.352   1.269  35.669 -0.0754  0.5490 -1.2021
16656TIP3    H271460   0.483   1.287  35.595  1.3754 -1.2607  0.8021
16657TIP3   OH271461   1.489   0.169  73.216 -0.1935  0.2652  0.1070
16657TIP3    H171462   1.561   0.169  73.153 -0.2848  1.1974 -0.0217
16657TIP3    H271463   1.524   0.122  73.292  0.4683  0.4921 -0.0478
16658TIP3   OH271464   1.646   1.610 100.269  0.0035 -0.0571  0.2251
16658TIP3    H171465   1.625   1.516 100.267 -0.0338 -0.0466  0.0803
16658TIP3    H271466   1.712   1.618 100.338  0.9454 -0.3866 -0.6043
16659TIP3   OH271467   1.961   0.030 101.770 -0.3873  0.2239 -0.4562
16659TIP3    H171468   1.921  -0.052 101.741 -1.1387 -0.4539  2.2974
16659TIP3    H271469   2.048   0.004 101.801  0.5559  1.0044 -2.2509
16660TIP3   OH271470   0.838   1.043  99.403 -0.0723  0.2376 -0.1764
16660TIP3    H171471   0.831   1.037  99.308 -0.3491 -0.5807 -0.1048
16660TIP3    H271472   0.748   1.039  99.434  0.0435  0.0972  0.1454
16661TIP3   OH271473   0.514   2.510  97.886  0.7569 -0.3812 -0.1819
16661TIP3    H171474   0.497   2.445  97.818 -1.3940 -0.5932  0.4844
16661TIP3    H271475   0.571   2.466  97.948  1.2396 -0.8085 -0.9125
16662TIP3   OH271476   0.541   1.199  32.922 -0.2339  0.2300  0.3255
16662TIP3    H171477   0.487   1.187  32.844  0.7634 -0.0861 -0.3297
16662TIP3    H271478   0.542   1.294  32.936  2.1919  0.6547 -1.9868
16663TIP3   OH271479   2.497   0.264  63.454 -0.2787 -0.0018 -0.0310
16663TIP3    H171480   2.497   0.235  63.363  1.0781 -0.1639  0.0040
16663TIP3    H271481   2.457   0.191  63.502  1.0118 -0.8792 -0.2389
16664TIP3   OH271482   1.075   1.064  17.290 -0.4022 -0.3313 -0.0017
16664TIP3    H171483   1.077   1.014  17.371 -1.3600 -1.6682 -0.7620
16664TIP3    H271484   1.019   1.139  17.308 -0.1570 -0.3179  0.7159
16665TIP3   OH271485   0.740   1.433   2.400  0.0641 -0.3303 -0.6967
16665TIP3    H171486   0.780   1.392   2.323 -1.1862  0.1454 -1.6392
16665TIP3    H271487   0.758   1.372   2.472 -0.4514 -1.7964 -1.7591
16666TIP3   OH271488   1.544   2.322  85.877  0.1300 -0.3121 -0.1592
16666TIP3    H171489   1.633   2.290  85.894 -0.0899 -0.6042  0.4860
16666TIP3    H271490   1.542   2.410  85.915 -0.3591 -0.9612  1.4404
16667TIP3   OH271491   0.092   0.383  15.657 -0.2906 -0.3546  0.0949
16667TIP3    H171492   0.008   0.368  15.615  0.0819 -0.3614 -0.6768
16667TIP3    H271493   0.071   0.400  15.748 -1.2198  0.8150 -0.3183
16668TIP3   OH271494   2.535   1.110 104.472 -0.4517 -0.1763  0.1707
16668TIP3    H171495   2.479   1.047 104.518  0.0596  0.2684  1.4612
16668TIP3    H271496   2.615   1.113 104.524 -0.0697  0.7856 -0.4480
16669TIP3   OH271497   1.719   1.859   1.712 -0.6003  0.2539  0.5915
16669TIP3    H171498   1.773   1.819   1.780  0.1655 -2.6048 -1.4708
16669TIP3    H271499   1.782   1.900   1.652 -1.1544  1.5483  0.8612
16670TIP3   OH271500   0.973   0.997  81.500  0.2177  0.0303  0.3606
16670TIP3    H171501   1.038   1.059  81.534  2.2715 -1.2845 -0.9644
16670TIP3    H271502   0.983   0.919  81.554  1.3308 -0.9535 -1.1784
16671TIP3   OH271503   0.124   0.043   9.473  0.6114  0.3616 -0.4981
16671TIP3    H171504   0.077  -0.040   9.480 -0.5526  0.8697 -1.9768
16671TIP3    H271505   0.146   0.065   9.564 -0.6942 -0.6408  0.0978
16672TIP3   OH271506   1.056   1.382  10.803 -0.3498 -0.4055  0.6646
16672TIP3    H171507   1.057   1.403  10.896 -2.8441  0.0555  0.6315
16672TIP3    H271508   1.014   1.296  10.798  0.4887 -0.7961 -0.0049
16673TIP3   OH271509   2.441   1.423  33.492 -0.1936 -0.0766 -0.2132
16673TIP3    H171510   2.439   1.342  33.542 -0.5825  0.3881  0.5452
16673TIP3    H271511   2.508   1.409  33.425 -0.2673 -1.0207 -0.1000
16674TIP3   OH271512   0.163   1.645  76.410 -0.0489  0.2378  0.1898
16674TIP3    H171513   0.135   1.646  76.502 -0.5187 -0.7768  0.0759
16674TIP3    H271514   0.215   1.566  76.401 -0.4403  0.0503 -0.5399
16675TIP3   OH271515   0.071   2.594  80.419  0.1353  0.0154  0.2780
16675TIP3    H171516   0.107   2.670  80.464 -0.6673  0.1721  0.6771
16675TIP3    H271517   0.123   2.586  80.340 -0.2465  1.4216 -0.1347
16676TIP3   OH271518   1.980   1.867  97.994 -0.0938 -0.2553 -0.0348
16676TIP3    H171519   2.051   1.804  97.989  1.3991  1.2647  0.9676
16676TIP3    H271520   1.905   1.822  97.954  1.1128 -2.3063 -0.1331
16677TIP3   OH271521   0.207   1.516  24.212 -0.4542  0.2311 -0.0128
16677TIP3    H171522   0.196   1.559  24.127  0.2274 -1.0710 -0.8011
16677TIP3    H271523   0.120   1.518  24.251 -0.7738  0.9059 -0.7199
16678TIP3   OH271524   0.060   2.424  20.757  0.3496  0.1930 -1.0751
16678TIP3    H171525   0.144   2.390  20.789 -0.2288 -0.2653  0.0156
16678TIP3    H271526   0.002   2.348  20.759 -0.5483  0.8730 -0.1089
16679TIP3   OH271527   2.093   0.188  30.698  0.1089  0.2063  0.4199
16679TIP3    H171528   2.140   0.215  30.777  1.5655 -0.7022 -0.0908
16679TIP3    H271529   2.022   0.133  30.730  0.8115 -0.3263  1.1151
16680TIP3   OH271530   1.570   2.560  34.071 -0.0389 -0.2632 -0.1994
16680TIP3    H171531   1.523   2.477  34.065  0.6723 -0.6377 -0.6945
16680TIP3    H271532   1.502   2.626  34.067 -0.4850 -0.7816 -1.5811
16681TIP3   OH271533   2.406   2.653  15.419 -0.3563  0.0310  0.3806
16681TIP3    H171534   2.417   2.560  15.400 -1.6467  0.2827 -2.0373
16681TIP3    H271535   2.491   2.681  15.455  0.6034 -1.7255 -0.4036
16682TIP3   OH271536   1.351   0.677  92.716  0.8405  0.2035  0.2206
16682TIP3    H171537   1.295   0.755  92.716  0.3151 -0.1547 -0.7187
16682TIP3    H271538   1.437   0.709  92.688  1.7375  1.1226  3.4759
16683TIP3   OH271539   2.406   1.894  14.860  0.1371 -0.5907 -0.0239
16683TIP3    H171540   2.320   1.874  14.824 -0.0682  1.3245 -0.6620
16683TIP3    H271541   2.397   1.881  14.954 -0.7036 -0.8798 -0.1399
16684TIP3   OH271542   1.308   0.751  28.768 -0.1234 -0.5098  0.2685
16684TIP3    H171543   1.216   0.767  28.790 -0.2389  0.3994 -0.8040
16684TIP3    H271544   1.324   0.802  28.689  1.7316  0.6672  1.3035
16685TIP3   OH271545   0.745   0.382 110.301 -0.1071 -0.3980  0.3525
16685TIP3    H171546   0.798   0.461 110.291 -0.6428 -0.2301 -1.7558
16685TIP3    H271547   0.806   0.310 110.287  0.0080 -0.2794  0.2406
16686TIP3   OH271548   2.017   1.571  33.919 -0.5564 -0.4699  0.1639
16686TIP3    H171549   1.944   1.579  33.980  0.0487  2.2469  0.6896
16686TIP3    H271550   2.094   1.598  33.969  0.5471 -1.6131 -0.8456
16687TIP3   OH271551   2.490   0.087  18.716  0.1709 -0.4111  0.8855
16687TIP3    H171552   2.582   0.101  18.694  0.1824 -0.7795  0.6904
16687TIP3    H271553   2.492   0.032  18.794  0.1159 -0.8020  0.6153
16688TIP3   OH271554   0.322   1.989  90.124 -0.1919 -0.3246 -0.0874
16688TIP3    H171555   0.339   2.083  90.122  0.7624 -0.4850  0.1714
16688TIP3    H271556   0.281   1.974  90.210 -1.2071 -0.0237 -0.4940
16689TIP3   OH271557   0.614   1.826 103.203  0.1160  0.3247 -0.6868
16689TIP3    H171558   0.566   1.827 103.285  1.4925 -1.7645  0.2245
16689TIP3    H271559   0.572   1.757 103.151  0.1710  0.6314 -1.1428
16690TIP3   OH271560   2.428   2.365  89.593 -0.2486 -0.2261  0.4591
16690TIP3    H171561   2.366   2.437  89.597  0.4649  0.4190  0.1450
16690TIP3    H271562   2.501   2.393  89.649 -0.1209 -0.8588  0.6220
16691TIP3   OH271563   1.218   1.499  99.708  0.0200  0.4366  0.2019
16691TIP3    H171564   1.224   1.594  99.699  1.4487  0.2156 -1.9698
16691TIP3    H271565   1.179   1.485  99.795 -0.5179  2.9791  0.4367
16692TIP3   OH271566   2.232   2.325  35.565  0.2834  0.2474 -0.5284
16692TIP3    H171567   2.320   2.363  35.566  0.1940  0.5258 -1.7447
16692TIP3    H271568   2.207   2.324  35.473 -0.2944 -1.4575 -0.3847
16693TIP3   OH271569   1.673   0.523  64.344 -0.7187 -0.0825 -0.0217
16693TIP3    H171570   1.666   0.471  64.265 -3.0744 -0.4917  0.3768
16693TIP3    H271571   1.586   0.517  64.384  0.2047  0.6508  2.2471
16694TIP3   OH271572   2.232   1.529 104.584  0.2714  0.4173  0.3172
16694TIP3    H171573   2.301   1.522 104.651 -0.0774  0.0526  0.6459
16694TIP3    H271574   2.254   1.462 104.520  0.0113  0.0242  0.6271
16695TIP3   OH271575   0.643   1.068  24.562  0.3720  0.0019  0.6673
16695TIP3    H171576   0.706   1.128  24.522  1.5990 -1.7134 -0.1151
16695TIP3    H271577   0.623   1.006  24.492 -1.6491  0.0534  1.1389
16696TIP3   OH271578   0.837   1.284  77.639 -0.5407  0.2487 -0.1419
16696TIP3    H171579   0.855   1.291  77.733 -1.5084 -0.4758  0.1229
16696TIP3    H271580   0.903   1.338  77.597 -0.5053  1.1307  1.0079
16697TIP3   OH271581   2.468   0.992  86.991 -0.2311  0.4178  0.1339
16697TIP3    H171582   2.532   1.062  87.000  0.3424  0.2023 -1.7959
16697TIP3    H271583   2.421   1.012  86.910 -0.7166 -0.9216  0.0596
16698TIP3   OH271584   2.377   0.008 110.147  0.1499 -0.2410  0.2871
16698TIP3    H171585   2.325  -0.063 110.111  0.2802  0.1429 -0.6868
16698TIP3    H271586   2.312   0.074 110.173  0.0699 -0.4126  0.5258
16699TIP3   OH271587   1.184   0.809  52.702  0.2139  0.4329  0.4264
16699TIP3    H171588   1.226   0.762  52.774  0.9174 -2.7302 -1.8129
16699TIP3    H271589   1.255   0.826  52.640 -0.7167  0.9857 -0.5184
16700TIP3   OH271590   1.676   0.335   5.071  0.1450 -0.1481  0.1961
16700TIP3    H171591   1.761   0.354   5.032  0.4647 -1.2385  0.3260
16700TIP3    H271592   1.657   0.245   5.045  0.2958 -0.8717  2.4248
16701TIP3   OH271593   1.183   0.583  85.097  0.9836  0.1572 -0.3719
16701TIP3    H171594   1.108   0.592  85.155  0.7669 -0.2953 -0.5758
16701TIP3    H271595   1.170   0.498  85.054  1.6771  0.0031 -0.3094
16702TIP3   OH271596   2.378   1.452  15.368  0.1347 -0.1633  0.1874
16702TIP3    H171597   2.364   1.360  15.391  0.4192 -0.3062 -0.1949
16702TIP3    H271598   2.320   1.500  15.427  0.5691 -0.5365  0.9399
16703TIP3   OH271599   0.906   0.280  26.316 -0.6575  0.1847 -0.0115
16703TIP3    H171600   0.929   0.229  26.238  0.1292  0.3927  0.0755
16703TIP3    H271601   0.989   0.315  26.347 -0.9810  0.2108  0.8539
16704TIP3   OH271602   0.883   1.527  25.099 -0.5551 -0.5856 -0.1794
16704TIP3    H171603   0.813   1.592  25.101 -0.1050 -0.0999  0.6452
16704TIP3    H271604   0.843   1.448  25.136  0.3396  0.8393  4.4905
16705TIP3   OH271605   0.081   2.444  17.990  0.1357 -0.1152 -0.1559
16705TIP3    H171606   0.108   2.395  17.913 -0.1528  0.8487 -0.8894
16705TIP3    H271607   0.163   2.474  18.029  0.3354 -1.5331  0.5580
16706TIP3   OH271608   1.321   1.188   8.627 -0.3358 -0.3211 -0.6712
16706TIP3    H171609   1.269   1.268   8.621 -0.5857 -0.3223  1.0439
16706TIP3    H271610   1.344   1.180   8.720 -0.8027 -2.5380 -0.6784
16707TIP3   OH271611   2.072   2.448  12.577 -0.1243  0.1933 -0.0006
16707TIP3    H171612   2.089   2.361  12.542  0.4978 -0.1169  1.0282
16707TIP3    H271613   2.082   2.439  12.672 -0.2945  1.3252  0.1469
16708TIP3   OH271614   1.986   0.576 106.356  0.4969 -0.0531 -0.1578
16708TIP3    H171615   1.910   0.536 106.315  0.3349  0.6706 -0.5846
16708TIP3    H271616   1.988   0.666 106.321  0.6058  0.4457  1.0741
16709TIP3   OH271617   0.178   0.664  16.028 -0.1176  0.5449  0.2508
16709TIP3    H171618   0.148   0.711  16.105 -1.4376  0.5152 -0.2185
16709TIP3    H271619   0.157   0.722  15.954  2.1800  1.1001 -0.0477
16710TIP3   OH271620   2.366   1.375  13.726 -0.0462  0.2678  0.1093
16710TIP3    H171621   2.408   1.363  13.641 -0.6706  0.2053 -0.1971
16710TIP3    H271622   2.403   1.306  13.781  2.2756  1.8498  0.6656
16711TIP3   OH271623   1.505   0.675   5.020  0.0859  0.5583  0.1254
16711TIP3    H171624   1.503   0.630   5.104 -0.8843  2.0893  0.9727
16711TIP3    H271625   1.580   0.734   5.026  0.9720 -0.4675 -0.7229
16712TIP3   OH271626   2.387   1.213 107.305  0.2585  0.5551  0.2699
16712TIP3    H171627   2.383   1.151 107.232 -2.0633  1.4439 -0.4291
16712TIP3    H271628   2.446   1.282 107.274 -0.4734  0.7757 -0.6779
16713TIP3   OH271629   2.039   1.581  30.488  0.3298 -0.0158  0.5732
16713TIP3    H171630   2.025   1.631  30.408  1.2608  1.9075  1.5183
16713TIP3    H271631   2.131   1.555  30.485  0.1993 -0.4945  0.7057
16714TIP3   OH271632   1.647   2.055  33.512  0.1748 -0.1168  0.5937
16714TIP3    H171633   1.606   2.136  33.479  1.4758 -0.1398 -1.2188
16714TIP3    H271634   1.598   1.985  33.469  1.1921 -0.1766 -0.5107
16715TIP3   OH271635   1.791   1.957  80.287  0.0379  0.1209 -0.3110
16715TIP3    H171636   1.714   2.003  80.252  0.6973 -0.0388 -2.0490
16715TIP3    H271637   1.754   1.890  80.345 -0.9556  3.1508  2.9367
16716TIP3   OH271638   1.351   1.616  35.711 -0.3200 -0.1082 -1.0214
16716TIP3    H171639   1.359   1.684  35.644 -1.1578  1.6573  0.5980
16716TIP3    H271640   1.258   1.615  35.733 -0.2685 -1.5706 -0.7392
16717TIP3   OH271641   1.602   2.355 111.707 -0.2585 -0.7574 -0.3962
16717TIP3    H171642   1.607   2.286 111.641 -2.2100 -1.4373  0.1182
16717TIP3    H271643   1.529   2.410 111.680 -0.1267 -0.1647  0.3863
16718TIP3   OH271644   0.506   1.461  26.125  0.5003 -0.3251  0.2105
16718TIP3    H171645   0.533   1.499  26.209  1.5399 -1.8378  0.5899
16718TIP3    H271646   0.524   1.368  26.134  1.3953 -0.4146 -1.9856
16719TIP3   OH271647   1.294   0.176  18.982 -0.1614  0.3492  0.6395
16719TIP3    H171648   1.210   0.196  18.941 -0.1781 -1.7765 -0.5114
16719TIP3    H271649   1.359   0.211  18.922 -0.2272 -0.2524  0.2007
16720TIP3   OH271650   2.001   0.928 104.436  0.0662  0.5051  0.0433
16720TIP3    H171651   1.966   0.855 104.486  0.2582  1.6311  1.9219
16720TIP3    H271652   2.002   1.001 104.498  4.0772  0.9960 -0.3765
16721TIP3   OH271653   1.921   0.194  13.172  0.4515  0.1011 -0.6230
16721TIP3    H171654   1.882   0.248  13.240 -0.0606  0.5517 -1.2603
16721TIP3    H271655   1.931   0.108  13.212 -0.2538  0.2463 -0.1203
16722TIP3   OH271656   0.911   1.455  20.894  0.0650 -0.4147  0.0885
16722TIP3    H171657   0.952   1.371  20.914 -0.3809 -0.2458  1.8383
16722TIP3    H271658   0.952   1.517  20.954 -0.8693  0.2665  0.0467
16723TIP3   OH271659   2.667   1.060   2.378  0.3763 -0.6165 -0.0300
16723TIP3    H171660   2.697   1.066   2.288 -1.5545  2.1748 -0.6174
16723TIP3    H271661   2.720   1.124   2.426  0.7799 -1.4433  0.6666
16724TIP3   OH271662   2.212   1.367   6.854 -0.0631 -0.1288 -0.3733
16724TIP3    H171663   2.219   1.453   6.812 -1.2554  0.1241 -0.0826
16724TIP3    H271664   2.293   1.322   6.829 -0.0812  0.5413 -1.7481
16725TIP3   OH271665   0.562   1.487   4.694  0.0005  0.8373 -0.2305
16725TIP3    H171666   0.615   1.412   4.666 -1.9911 -1.2317  1.1470
16725TIP3    H271667   0.613   1.527   4.764 -0.0481 -0.9578  0.9087
16726TIP3   OH271668   1.879   2.213  80.587  0.9549  0.2937 -0.5254
16726TIP3    H171669   1.870   2.236  80.680  1.4771  0.0470 -0.4075
16726TIP3    H271670   1.913   2.292  80.546  0.5106  0.4754 -0.5505
16727TIP3   OH271671   0.157   1.829  94.786 -0.1473 -0.2090  0.3663
16727TIP3    H171672   0.165   1.887  94.862  1.1173 -0.6244  0.5896
16727TIP3    H271673   0.097   1.874  94.727  0.5259  1.1767  0.6869
16728TIP3   OH271674   2.518   2.096  30.360 -0.2143  0.1857 -0.2240
16728TIP3    H171675   2.583   2.141  30.306 -0.0422  0.1221 -0.0660
16728TIP3    H271676   2.546   2.005  30.361 -0.6093  0.0527 -0.6129
16729TIP3   OH271677   0.075   1.523 105.736 -0.8472  0.3185 -0.1556
16729TIP3    H171678   0.157   1.565 105.710 -1.3583  0.9731 -0.7813
16729TIP3    H271679   0.073   1.441 105.688  0.7757 -1.1153  2.0688
16730TIP3   OH271680   0.651   1.250  84.075  0.3518 -0.9264 -0.2046
16730TIP3    H171681   0.557   1.268  84.080  0.3801  0.0245 -2.2003
16730TIP3    H271682   0.673   1.213  84.161 -1.3624  1.0312  1.1744
16731TIP3   OH271683   0.310   0.820   9.582 -0.0742  0.7578  0.6633
16731TIP3    H171684   0.236   0.845   9.527  0.0104 -0.5376 -0.0790
16731TIP3    H271685   0.387   0.841   9.529  0.0447  0.6818  0.8048
16732TIP3   OH271686   0.336   1.154 100.490  0.2570 -0.0904 -0.2208
16732TIP3    H171687   0.352   1.211 100.414  1.2179  0.0227  0.0449
16732TIP3    H271688   0.355   1.210 100.566  0.1999 -0.4692  0.0694
16733TIP3   OH271689   1.305   2.481  87.469  0.1475  0.2847 -0.2641
16733TIP3    H171690   1.311   2.420  87.542  2.0852  0.7628  0.0409
16733TIP3    H271691   1.245   2.439  87.407 -2.7875  0.5562  2.1612
16734TIP3   OH271692   2.424   0.627  29.584  0.1493 -0.2576 -0.4166
16734TIP3    H171693   2.486   0.606  29.654 -0.6102 -1.0047  0.0540
16734TIP3    H271694   2.359   0.684  29.625  0.7213  0.8600 -1.0092
16735TIP3   OH271695   1.772   2.261  35.078  0.6631 -0.1035 -0.8606
16735TIP3    H171696   1.864   2.235  35.079  0.7120  0.0538 -1.0541
16735TIP3    H271697   1.725   2.184  35.108  0.9740  0.3171  0.8297
16736TIP3   OH271698   2.512   1.088  17.947  0.2158 -0.2030  0.1751
16736TIP3    H171699   2.544   1.074  18.036 -0.5054 -0.6790  0.3737
16736TIP3    H271700   2.444   1.022  17.936 -1.5297  1.4996  0.2030
16737TIP3   OH271701   1.495   1.500  47.423 -0.2838 -0.0311  0.7758
16737TIP3    H171702   1.508   1.496  47.328 -2.0193 -0.0294  0.5165
16737TIP3    H271703   1.539   1.421  47.456  1.8701  0.8527  0.2097
16738TIP3   OH271704   0.574   1.490   7.306  0.1523  0.2922  0.4453
16738TIP3    H171705   0.525   1.560   7.347 -0.5718  1.1991 -1.8096
16738TIP3    H271706   0.518   1.459   7.235  1.1982 -1.3929  0.2746
16739TIP3   OH271707   1.547   0.002  21.569  0.1291 -0.2991  0.3314
16739TIP3    H171708   1.614   0.047  21.621 -1.1733  3.0062 -0.5743
16739TIP3    H271709   1.596  -0.053  21.509  1.9288  0.3443  1.1403
16740TIP3   OH271710   1.449   2.520  88.696 -0.0061 -0.1227  0.3058
16740TIP3    H171711   1.456   2.536  88.790  0.8582  1.6190 -0.0210
16740TIP3    H271712   1.512   2.580  88.656 -1.0754 -0.0948 -1.4601
16741TIP3   OH271713   1.359   2.547  76.225  0.0816 -0.7202 -0.7331
16741TIP3    H171714   1.335   2.636  76.250  0.3689 -0.8320 -0.0398
16741TIP3    H271715   1.327   2.492  76.297 -1.2510 -1.3440 -1.7342
16742TIP3   OH271716   1.702   0.477  37.679  0.0484  0.6080 -0.0828
16742TIP3    H171717   1.648   0.427  37.741  0.9982 -2.1865 -1.3456
16742TIP3    H271718   1.663   0.565  37.678 -2.2569 -0.2989  1.6566
16743TIP3   OH271719   1.845   0.200 107.942  0.4340 -0.0462 -0.5423
16743TIP3    H171720   1.811   0.285 107.915  3.1574  0.8395 -1.4956
16743TIP3    H271721   1.855   0.151 107.860  0.6217 -0.5852 -0.2047
16744TIP3   OH271722   2.455   2.277  91.128 -0.0469 -1.0884  0.0531
16744TIP3    H171723   2.549   2.268  91.113  0.0168  0.6969 -0.7906
16744TIP3    H271724   2.442   2.370  91.145 -1.7660 -1.1722 -0.6420
16745TIP3   OH271725   2.216   1.830  26.660  0.0738  0.1601 -0.0122
16745TIP3    H171726   2.262   1.747  26.650 -0.5932 -0.4063  1.4061
16745TIP3    H271727   2.164   1.820  26.740 -1.4198  1.2765 -0.7779
16746TIP3   OH271728   0.983   1.657   7.637 -0.0485  0.2190 -0.0002
16746TIP3    H171729   1.051   1.590   7.647 -2.5970 -2.4452  1.1477
16746TIP3    H271730   0.905   1.608   7.612 -1.8610  2.9368 -0.0615
16747TIP3   OH271731   1.832   0.187  91.874  0.0475  0.2568 -0.3216
16747TIP3    H171732   1.832   0.234  91.957  0.8259 -1.1345  0.4922
16747TIP3    H271733   1.742   0.192  91.843  0.0153  1.8724 -0.0511
16748TIP3   OH271734   0.637   2.367   7.490  0.1638  0.4510 -0.4995
16748TIP3    H171735   0.617   2.359   7.397  0.9339  1.9053 -0.8232
16748TIP3    H271736   0.705   2.302   7.506  0.9173  1.0262 -1.2574
16749TIP3   OH271737   0.221   2.364  13.474  0.3194 -0.0260 -0.4827
16749TIP3    H171738   0.243   2.457  13.472  2.7308 -0.5177 -1.0505
16749TIP3    H271739   0.204   2.342  13.382 -0.7898 -0.0518 -0.2783
16750TIP3   OH271740   2.006   1.659  96.553 -0.1513 -0.3913  0.2279
16750TIP3    H171741   1.957   1.716  96.612 -0.0302  0.2057 -0.2397
16750TIP3    H271742   1.955   1.657  96.472 -0.8552 -2.0331  0.6589
16751TIP3   OH271743   2.669   2.566  82.089 -0.0403  0.0452 -0.0183
16751TIP3    H171744   2.575   2.554  82.105  0.2241  0.8818  2.7269
16751TIP3    H271745   2.697   2.483  82.051 -1.8089 -0.3560 -0.5555
16752TIP3   OH271746   2.479   2.064  36.072  0.2795 -0.1466 -0.3331
16752TIP3    H171747   2.424   2.138  36.096 -0.7003 -1.3687  1.4060
16752TIP3    H271748   2.535   2.050  36.148  1.3832 -0.3865 -1.1640
16753TIP3   OH271749   1.165   1.823  75.812  0.5146  0.3541 -0.4728
16753TIP3    H171750   1.158   1.785  75.724  1.0624 -0.6832 -0.0893
16753TIP3    H271751   1.247   1.872  75.811  2.3960 -2.5121  0.4446
16754TIP3   OH271752   2.459   2.579  68.210 -0.5834 -0.2739 -0.0732
16754TIP3    H171753   2.446   2.494  68.168 -2.2280 -0.6649  1.1155
16754TIP3    H271754   2.539   2.567  68.262  1.4272  0.1977 -2.8350
16755TIP3   OH271755   1.584   2.004  94.590  0.2710 -0.0542 -0.0045
16755TIP3    H171756   1.611   1.932  94.533 -1.6481 -0.2323 -0.7731
16755TIP3    H271757   1.664   2.055  94.603  0.8543 -0.0323 -2.8513
16756TIP3   OH271758   1.617   2.659   4.787  0.4350  0.1243  0.3350
16756TIP3    H171759   1.578   2.737   4.748  0.4176  0.2539  0.6093
16756TIP3    H271760   1.704   2.687   4.815  0.7054 -0.1416 -0.2019
16757TIP3   OH271761   2.651   1.106  66.847 -0.5709  0.2906 -0.4473
16757TIP3    H171762   2.713   1.172  66.817 -0.8434  0.4995 -0.5556
16757TIP3    H271763   2.614   1.143  66.927  1.3446 -0.9600  1.1300
16758TIP3   OH271764   2.445   2.000  85.195 -0.0289  0.2215  0.6637
16758TIP3    H171765   2.362   2.043  85.176 -0.7967 -1.1268  0.8497
16758TIP3    H271766   2.436   1.912  85.158  0.7073 -0.4800  2.0727
16759TIP3   OH271767   2.212   0.456  30.628 -0.1886  0.0085  0.2067
16759TIP3    H171768   2.137   0.498  30.587 -0.6817 -0.1401  0.9439
16759TIP3    H271769   2.192   0.456  30.721 -0.5442 -2.4542  0.2085
16760TIP3   OH271770   1.124   0.316  36.764 -0.4451  0.3239 -0.0481
16760TIP3    H171771   1.092   0.303  36.853  0.9083  1.1950  0.5966
16760TIP3    H271772   1.152   0.229  36.735 -2.6606 -0.3463 -0.3996
16761TIP3   OH271773   2.118   2.328  22.688 -0.1745 -0.0502 -0.2103
16761TIP3    H171774   2.119   2.303  22.596  1.3121 -0.0101 -0.2228
16761TIP3    H271775   2.149   2.250  22.734  1.6246  0.7451  0.0037
16762TIP3   OH271776   1.256   2.361  21.903 -0.4070  0.2527  0.2921
16762TIP3    H171777   1.231   2.321  21.986 -0.0251  0.9452  0.7638
16762TIP3    H271778   1.235   2.296  21.836 -1.3400 -0.0528  0.8669
16763TIP3   OH271779   0.176   2.399  21.583  0.4953 -0.0245 -0.5969
16763TIP3    H171780   0.144   2.421  21.671  0.3732 -0.6447 -0.4818
16763TIP3    H271781   0.266   2.370  21.597  0.3397 -0.5227 -0.6222
16764TIP3   OH271782   2.020   0.631 101.163 -0.2643 -0.0161 -0.1612
16764TIP3    H171783   1.981   0.551 101.199 -0.5380 -0.7546 -1.9750
16764TIP3    H271784   1.950   0.696 101.170 -0.2112 -0.0474  0.8687
16765TIP3   OH271785   1.413   0.921  78.539  0.2415 -0.0629 -0.3009
16765TIP3    H171786   1.375   0.834  78.530 -2.6882  1.1977 -1.4442
16765TIP3    H271787   1.354   0.979  78.491  2.6832  2.4445 -0.5828
16766TIP3   OH271788   2.569   0.092  98.065  0.3369  0.1434  0.1293
16766TIP3    H171789   2.665   0.097  98.065  0.3001  1.1493 -0.0924
16766TIP3    H271790   2.541   0.178  98.032 -0.6331 -0.4198 -0.5651
16767TIP3   OH271791   0.513   0.545  96.856  0.0116 -0.7309  0.0077
16767TIP3    H171792   0.544   0.454  96.861  2.0871 -0.0192  2.7318
16767TIP3    H271793   0.589   0.595  96.826 -1.3673  0.0865 -2.3814
16768TIP3   OH271794   0.355   1.830 112.114  0.3911 -0.1245  0.2083
16768TIP3    H171795   0.389   1.768 112.049 -0.3625  0.7065 -1.0225
16768TIP3    H271796   0.301   1.890 112.064  1.5879  1.9297  1.2343
16769TIP3   OH271797   1.666   2.109  88.431  0.1699 -0.1964  0.3689
16769TIP3    H171798   1.694   2.029  88.388 -0.7808 -0.5519  0.3907
16769TIP3    H271799   1.589   2.138  88.382  0.6656  0.8706  0.1831
16770TIP3   OH271800   2.557   2.317  11.375 -0.1060  0.4160 -0.4134
16770TIP3    H171801   2.519   2.238  11.336  0.3688  0.1958 -0.4415
16770TIP3    H271802   2.634   2.285  11.421  0.9717  1.0623 -1.7101
16771TIP3   OH271803   0.420   0.911 109.191  0.3942 -0.5155  0.4838
16771TIP3    H171804   0.375   0.985 109.232  1.4121  0.1689  0.3994
16771TIP3    H271805   0.351   0.848 109.173 -0.6753  0.8369 -0.3684
16772TIP3   OH271806   2.214   1.963  21.576 -0.3955 -0.8039 -0.5732
16772TIP3    H171807   2.160   1.982  21.499 -0.6735  2.6850  0.3149
16772TIP3    H271808   2.303   1.987  21.549 -0.2657 -0.9480 -0.2765
16773TIP3   OH271809   2.635   1.403  30.280 -0.3571 -0.1416 -0.3016
16773TIP3    H171810   2.586   1.469  30.231  1.2541  0.6872 -0.8808
16773TIP3    H271811   2.640   1.437  30.369 -2.9000 -1.4326  0.4181
16774TIP3   OH271812   1.757   0.518  30.142  0.2789 -0.1449  0.0623
16774TIP3    H171813   1.793   0.607  30.139  0.7118 -0.3021  0.4333
16774TIP3    H271814   1.732   0.505  30.234  0.1763 -0.3922  0.0020
16775TIP3   OH271815   1.630   0.317  75.647  0.0545  0.5986  0.0971
16775TIP3    H171816   1.537   0.307  75.625  0.4027  0.2466 -1.2888
16775TIP3    H271817   1.652   0.239  75.697  0.0077 -0.1797 -1.0565
16776TIP3   OH271818   0.219   0.190 105.156  0.5648 -0.1748 -0.2893
16776TIP3    H171819   0.160   0.182 105.231 -1.9922  0.3152 -2.1150
16776TIP3    H271820   0.257   0.278 105.165  0.0805 -0.0161  0.3034
16777TIP3   OH271821   1.312   2.389 103.159 -0.0448  0.2210  0.1505
16777TIP3    H171822   1.246   2.421 103.220  0.3157  0.4291  0.4322
16777TIP3    H271823   1.319   2.458 103.093  1.2785  1.1160  1.1654
16778TIP3   OH271824   1.295   1.932  28.869  0.3650  0.2433  0.3873
16778TIP3    H171825   1.252   1.859  28.824  0.6012 -0.1114  0.7318
16778TIP3    H271826   1.248   1.941  28.952  0.6527  0.1572  0.5616
16779TIP3   OH271827   2.669   1.622  99.307 -0.0675 -0.2809  0.1700
16779TIP3    H171828   2.756   1.631  99.268  0.1396  0.2109  0.7258
16779TIP3    H271829   2.615   1.685  99.260  0.3587  0.8555  1.1482
16780TIP3   OH271830   2.280   0.611   5.807  0.1153 -0.3017 -0.5312
16780TIP3    H171831   2.244   0.667   5.875 -0.3091 -0.0078 -0.9924
16780TIP3    H271832   2.367   0.588   5.838 -0.0361 -0.0799  0.0573
16781TIP3   OH271833   1.071   1.166  29.355  0.4677 -0.0376  0.5552
16781TIP3    H171834   1.053   1.077  29.386  0.8839 -0.4650 -0.4034
16781TIP3    H271835   0.991   1.192  29.309  0.0503  0.3972  1.4922
16782TIP3   OH271836   1.602   0.211  87.773 -0.0816  0.2372  0.2427
16782TIP3    H171837   1.656   0.254  87.707  1.1063  0.7390  1.4969
16782TIP3    H271838   1.525   0.266  87.782  0.2292  0.7146 -0.0060
16783TIP3   OH271839   0.281   1.966 111.278 -0.2123 -0.1021 -0.3434
16783TIP3    H171840   0.343   1.922 111.337 -0.6055 -2.2485 -1.4410
16783TIP3    H271841   0.218   1.899 111.255 -2.1657  1.6556 -0.4002
16784TIP3   OH271842   1.100   2.679  91.593 -0.1473  0.5922 -0.0073
16784TIP3    H171843   1.138   2.595  91.567 -3.6461 -1.5282  1.0233
16784TIP3    H271844   1.131   2.693  91.682 -0.1523 -0.0299  0.0951
16785TIP3   OH271845   1.134   0.485  73.873 -0.2693  0.4113  0.0581
16785TIP3    H171846   1.106   0.405  73.829  0.2886 -0.3219  0.9835
16785TIP3    H271847   1.146   0.549  73.802  1.7927 -1.0692 -1.0335
16786TIP3   OH271848   1.762   0.159  34.031 -0.2460  0.2034 -0.6173
16786TIP3    H171849   1.797   0.167  34.120 -0.3177  0.8495 -0.6408
16786TIP3    H271850   1.803   0.081  33.996  1.4390  1.1144 -0.7688
16787TIP3   OH271851   0.915   0.602 101.484 -0.4786  0.1609 -0.5330
16787TIP3    H171852   0.986   0.615 101.421 -1.2740  0.3284 -1.4158
16787TIP3    H271853   0.857   0.677 101.470  0.0469  1.0002  1.4149
16788TIP3   OH271854   0.047   0.956  99.293 -0.7201 -0.0686 -0.1703
16788TIP3    H171855   0.075   0.891  99.228 -0.0561 -0.7156  0.7215
16788TIP3    H271856   0.098   1.034  99.273  0.3320 -0.6243  0.2345
16789TIP3   OH271857   0.315   0.888  32.239  0.2191  0.3667  0.2048
16789TIP3    H171858   0.284   0.805  32.274 -0.4827 -0.4542 -2.1189
16789TIP3    H271859   0.247   0.951  32.263  0.0283 -0.0390  0.7424
16790TIP3   OH271860   2.465   0.231  85.840  0.4081  0.0249 -0.0117
16790TIP3    H171861   2.485   0.139  85.859 -0.3052  0.1072  1.2062
16790TIP3    H271862   2.516   0.280  85.904  1.5945  0.5717 -1.3097
16791TIP3   OH271863   1.716   1.698   4.705 -0.2315  0.4523  0.2312
16791TIP3    H171864   1.742   1.621   4.655  0.5514  0.9989 -0.2288
16791TIP3    H271865   1.622   1.707   4.689 -0.5106 -0.8917  0.9893
16792TIP3   OH271866   0.511   1.437   9.494 -0.0164 -0.2782 -0.4541
16792TIP3    H171867   0.547   1.381   9.563 -0.0309  0.3716  0.0984
16792TIP3    H271868   0.548   1.402   9.413  1.2826 -0.1012  0.0307
16793TIP3   OH271869   2.290   2.471  90.709 -0.4640 -0.4700 -0.0511
16793TIP3    H171870   2.313   2.555  90.749  0.7349 -0.2627 -1.1224
16793TIP3    H271871   2.247   2.495  90.627  1.1837 -0.8526 -1.0824
16794TIP3   OH271872   0.044   1.743  82.799  0.6370 -0.4833  0.1098
16794TIP3    H171873   0.051   1.684  82.724 -2.9602 -0.5680 -0.2885
16794TIP3    H271874   0.045   1.685  82.875  2.5121 -0.5238  0.1160
16795TIP3   OH271875   1.312   2.162   7.301  0.3172  0.4673  0.1688
16795TIP3    H171876   1.329   2.070   7.317  0.2742  0.0271 -1.9981
16795TIP3    H271877   1.352   2.180   7.215 -1.3613  1.9419 -0.3798
16796TIP3   OH271878   0.554   2.284  74.207  0.0284  0.1203  0.2508
16796TIP3    H171879   0.558   2.307  74.300 -1.2473  0.4864  0.2285
16796TIP3    H271880   0.567   2.189  74.206  1.2406  0.2582  0.6876
16797TIP3   OH271881   1.856   1.402  79.736 -0.3518  0.6803 -0.5952
16797TIP3    H171882   1.859   1.336  79.667  0.5544 -1.2653  1.1914
16797TIP3    H271883   1.888   1.482  79.694  0.1445 -0.4250 -2.4332
16798TIP3   OH271884   0.680   0.730  99.965  0.0694  0.3681  0.2121
16798TIP3    H171885   0.637   0.735  99.880 -0.4353  2.3893  0.5282
16798TIP3    H271886   0.625   0.671 100.016  0.0717 -0.4304 -0.6866
16799TIP3   OH271887   1.921   0.165   9.720  0.6427 -0.5613 -0.5649
16799TIP3    H171888   1.889   0.241   9.671 -0.3470 -1.1367 -0.8282
16799TIP3    H271889   1.974   0.116   9.657 -0.1801 -1.0117 -0.9212
16800TIP3   OH271890   0.543   2.642  81.344 -0.1297  0.1168  0.6676
16800TIP3    H171891   0.518   2.599  81.426  1.8712  0.3025  1.4216
16800TIP3    H271892   0.464   2.688  81.316 -0.7949  0.2147  2.5981
16801TIP3   OH271893   0.019   2.641  87.424  0.7338  0.1738 -0.6064
16801TIP3    H171894   0.039   2.669  87.514 -0.1171  0.5681 -0.5335
16801TIP3    H271895  -0.071   2.670  87.409  0.8648  0.0967 -1.5840
16802TIP3   OH271896   2.040   1.486 107.282 -0.1501  0.2434 -0.4085
16802TIP3    H171897   2.053   1.474 107.376 -0.8261 -1.8824 -0.5382
16802TIP3    H271898   2.119   1.531 107.252  0.4239  0.2433  1.0416
16803TIP3   OH271899   1.999   0.940   4.993 -0.3920  0.3623 -0.1887
16803TIP3    H171900   1.964   0.985   4.917  0.6295  1.0534 -0.2747
16803TIP3    H271901   2.045   0.864   4.957 -0.6232  0.2205 -0.1869
16804TIP3   OH271902   1.430   1.072  21.396  0.4804 -0.0097  0.0989
16804TIP3    H171903   1.440   1.163  21.423 -0.6463  0.1453  0.0743
16804TIP3    H271904   1.514   1.031  21.416  1.4716  1.3209 -1.1314
16805TIP3   OH271905   1.362   2.113  29.980 -0.5461  0.0791  0.3534
16805TIP3    H171906   1.315   2.071  29.908 -0.4040 -0.2177  0.4330
16805TIP3    H271907   1.445   2.066  29.985 -0.7257 -0.1914  0.9861
16806TIP3   OH271908   0.312   2.495 105.808 -0.1682 -0.4715 -0.0395
16806TIP3    H171909   0.232   2.521 105.855  0.3863  1.4827 -0.0936
16806TIP3    H271910   0.369   2.460 105.876 -0.2448  0.1869  0.3795
16807TIP3   OH271911   1.945   1.483  35.305 -0.1892 -0.8098 -0.6021
16807TIP3    H171912   2.040   1.492  35.317 -0.3586 -0.9974  1.1752
16807TIP3    H271913   1.912   1.573  35.314 -0.4860 -1.1035  2.7267
16808TIP3   OH271914   2.435   0.208  84.664  0.7954  0.2202  0.2307
16808TIP3    H171915   2.413   0.271  84.594 -1.3453 -0.3785  0.2836
16808TIP3    H271916   2.352   0.191  84.707  1.6128 -1.4694  1.2288
16809TIP3   OH271917   1.667   0.623  28.088  0.1212 -0.3819  0.1887
16809TIP3    H171918   1.720   0.560  28.136  1.7411  1.4630  0.9500
16809TIP3    H271919   1.600   0.652  28.150 -1.2831 -2.0201 -0.4807
16810TIP3   OH271920   0.221   1.760  31.763  0.2623 -0.2076  0.2705
16810TIP3    H171921   0.170   1.680  31.777 -0.9414  0.3369 -0.7372
16810TIP3    H271922   0.280   1.739  31.691  0.6629 -0.4899  0.6774
16811TIP3   OH271923   0.078   1.754   4.673 -0.1623 -0.7112 -0.2615
16811TIP3    H171924   0.154   1.704   4.642  1.5940  1.7004 -0.1642
16811TIP3    H271925   0.076   1.740   4.767 -0.6655 -1.7975 -0.4186
16812TIP3   OH271926   1.802   2.588  93.719  0.0271 -0.0705  0.6225
16812TIP3    H171927   1.855   2.616  93.644  1.0253  1.9836  2.0041
16812TIP3    H271928   1.712   2.588  93.686  0.4396  0.8654 -0.5559
16813TIP3   OH271929   0.558   1.479  10.390 -0.1441  0.1289  0.1032
16813TIP3    H171930   0.610   1.527  10.326  1.0660 -0.0574  0.9136
16813TIP3    H271931   0.570   1.527  10.472 -1.0848 -0.0450  0.3516
16814TIP3   OH271932   0.430   2.155 111.662 -0.1367  0.1508 -0.3764
16814TIP3    H171933   0.449   2.239 111.703 -0.8921  0.1060  0.0687
16814TIP3    H271934   0.407   2.097 111.734  1.1315 -0.6668 -0.5846
16815TIP3   OH271935   2.424   1.407  28.863  0.3970  0.5240 -0.0752
16815TIP3    H171936   2.359   1.410  28.792 -0.4984  0.5162  0.7324
16815TIP3    H271937   2.509   1.414  28.818  0.0205 -2.0520 -1.4289
16816TIP3   OH271938   0.921   1.588 104.088 -0.0747  0.4195  0.2063
16816TIP3    H171939   0.860   1.619 104.022  0.3579  0.5086 -0.1544
16816TIP3    H271940   0.903   1.494 104.096 -0.5732  0.5363  0.4423
16817TIP3   OH271941   0.322   1.401  69.399  0.1380 -1.1174 -0.1508
16817TIP3    H171942   0.342   1.347  69.476 -1.4602 -1.4601  0.0605
16817TIP3    H271943   0.407   1.436  69.372  0.6911 -0.5278  2.1138
16818TIP3   OH271944   0.463   2.199 102.760  0.3113  0.0226 -0.4937
16818TIP3    H171945   0.426   2.182 102.674 -2.9000  0.6408  0.6514
16818TIP3    H271946   0.439   2.290 102.779 -0.2026 -0.4905  1.5552
16819TIP3   OH271947   1.472   1.709  36.364  0.3323 -0.4338  0.0405
16819TIP3    H171948   1.426   1.725  36.446  1.4246 -1.5735  0.9080
16819TIP3    H271949   1.408   1.731  36.296 -0.7054  0.1869  1.1905
16820TIP3   OH271950   0.411   2.289  88.130 -0.7291  0.5172 -0.0725
16820TIP3    H171951   0.403   2.194  88.136  2.0200  0.1850 -0.6253
16820TIP3    H271952   0.448   2.315  88.214  1.5652  0.6438 -1.0633
16821TIP3   OH271953   0.057   0.048  43.582  0.4645  0.3940 -0.6714
16821TIP3    H171954  -0.012   0.072  43.643  0.0427 -0.5662 -0.7651
16821TIP3    H271955   0.101   0.131  43.563  0.3782  0.7708  0.6384
16822TIP3   OH271956   0.462   0.469  27.688  0.3626 -0.1489 -0.1145
16822TIP3    H171957   0.512   0.544  27.657  1.6232 -1.0524 -0.3521
16822TIP3    H271958   0.444   0.488  27.780  2.0980 -0.2691  0.2789
16823TIP3   OH271959   1.257   0.504  25.219 -0.9411  0.3426 -0.1020
16823TIP3    H171960   1.341   0.498  25.264 -0.1153 -0.3563 -1.6674
16823TIP3    H271961   1.200   0.442  25.265 -0.0895 -0.4413 -0.0938
16824TIP3   OH271962   0.360   2.196  35.469 -0.1637  0.6395 -0.7275
16824TIP3    H171963   0.439   2.158  35.432 -1.3398 -1.7843 -0.9240
16824TIP3    H271964   0.366   2.178  35.563 -1.3766 -1.4707 -0.9915
16825TIP3   OH271965   0.484   2.545  33.311  0.1109  0.6649 -0.2294
16825TIP3    H171966   0.488   2.462  33.263  1.2312  0.3658  0.3537
16825TIP3    H271967   0.519   2.609  33.249  0.2497  0.5158 -0.3070
16826TIP3   OH271968   2.494   1.722   0.132  0.5148 -0.3436  0.4897
16826TIP3    H171969   2.420   1.662   0.131  0.7008 -0.5799 -0.5198
16826TIP3    H271970   2.555   1.686   0.068  0.1478  1.4988 -0.9834
16827TIP3   OH271971   1.106   1.035   8.833 -0.1053 -0.0741  0.0464
16827TIP3    H171972   1.090   0.981   8.911 -1.2266  0.4307  0.1871
16827TIP3    H271973   1.079   1.123   8.859 -1.0673 -0.0076 -1.0763
16828TIP3   OH271974   0.631   0.126  82.331  0.0204 -0.9043 -0.4274
16828TIP3    H171975   0.720   0.127  82.294 -0.0265 -1.3268 -0.5562
16828TIP3    H271976   0.610   0.033  82.340 -0.4719 -0.8046 -0.5418
16829TIP3   OH271977   1.688   0.745  73.405 -0.6532 -0.2041 -0.0176
16829TIP3    H171978   1.676   0.839  73.416 -3.3399 -0.5433  0.5026
16829TIP3    H271979   1.759   0.737  73.341  1.3069  2.1127  1.6685
16830TIP3   OH271980   2.648   0.213  95.688  0.0259  0.0053  0.7438
16830TIP3    H171981   2.572   0.156  95.699 -0.2162 -0.0617 -0.9702
16830TIP3    H271982   2.611   0.296  95.657  0.5696  0.2773  0.8105
16831TIP3   OH271983   1.833   1.472   6.022  0.1941  0.5879 -0.4044
16831TIP3    H171984   1.741   1.481   6.045  0.1042 -1.4417  0.2522
16831TIP3    H271985   1.873   1.555   6.048 -1.1492  0.8766  0.8576
16832TIP3   OH271986   2.191   1.680  21.608 -0.3811 -0.1314 -0.3203
16832TIP3    H171987   2.237   1.747  21.658  0.8376 -0.9124 -0.3558
16832TIP3    H271988   2.191   1.713  21.518  0.4037 -0.2542 -0.3764
16833TIP3   OH271989   1.081   2.461   6.543  0.0939 -0.2178  0.4407
16833TIP3    H171990   1.003   2.516   6.533 -0.9207 -1.2356  2.3190
16833TIP3    H271991   1.054   2.393   6.604  1.4678 -2.5305 -1.4085
16834TIP3   OH271992   1.008   2.343  23.583 -0.1844  0.1117  0.2321
16834TIP3    H171993   1.000   2.420  23.526  0.3075 -0.6455 -0.8853
16834TIP3    H271994   1.038   2.379  23.667 -0.3873  1.1835 -0.1347
16835TIP3   OH271995   0.525   0.165  23.093  0.3517 -0.1393  0.1390
16835TIP3    H171996   0.567   0.242  23.054 -0.0558  0.6622  1.2242
16835TIP3    H271997   0.534   0.178  23.188 -0.8640 -0.7715  0.3702
16836TIP3   OH271998   0.761   1.781  84.325 -1.0921  0.4297  0.2664
16836TIP3    H171999   0.774   1.858  84.380 -0.7050  1.2666 -0.9447
16836TIP3    H272000   0.811   1.800  84.245  0.2387 -1.7244  0.5040
16837TIP3   OH272001   2.520   2.567  67.550  0.1735  0.3802  0.0622
16837TIP3    H172002   2.518   2.473  67.530 -2.5243  0.7150 -1.7825
16837TIP3    H272003   2.510   2.571  67.646  2.0109 -1.1902  0.3767
16838TIP3   OH272004   0.162   1.387 104.723  0.4295 -0.0854 -0.0528
16838TIP3    H172005   0.135   1.461 104.668 -0.0748 -0.5650 -0.4596
16838TIP3    H272006   0.257   1.393 104.727  0.4555  0.0711 -0.8177
16839TIP3   OH272007   0.053   1.253  79.117 -0.0203  0.1318  0.0221
16839TIP3    H172008   0.103   1.216  79.190  0.4645  0.9517  0.1294
16839TIP3    H272009   0.014   1.178  79.074  1.5699 -0.5882 -0.2433
16840TIP3   OH272010   2.348   2.355  90.190  0.2928 -0.0090  0.3599
16840TIP3    H172011   2.355   2.325  90.099  1.9819  1.6210 -0.1339
16840TIP3    H272012   2.254   2.357  90.208 -0.2275  1.2663 -1.9941
16841TIP3   OH272013   1.030   2.323  14.271  0.1714 -0.4690 -0.1042
16841TIP3    H172014   1.009   2.410  14.304  0.3122 -0.1436 -0.8333
16841TIP3    H272015   1.090   2.287  14.335 -0.0910 -0.1308  0.3392
16842TIP3   OH272016   2.031   0.956  29.210  0.1146  0.3857 -0.2824
16842TIP3    H172017   2.037   0.968  29.304 -0.2578  2.2767 -0.4574
16842TIP3    H272018   2.114   0.988  29.176 -0.3763  1.2781 -0.6900
16843TIP3   OH272019   1.456   2.112  28.332 -0.3637  0.2410  0.7306
16843TIP3    H172020   1.450   2.188  28.390 -1.3305  0.4472  0.3699
16843TIP3    H272021   1.384   2.123  28.270  1.3917  0.7175 -1.3454
16844TIP3   OH272022   0.736   2.522  35.076 -0.2299  0.5803  0.3186
16844TIP3    H172023   0.825   2.530  35.111  0.4844  0.7064 -1.4318
16844TIP3    H272024   0.738   2.572  34.994 -1.2110 -1.3819 -0.9748
16845TIP3   OH272025   0.933   0.491  91.394  0.4068 -0.5610 -0.0475
16845TIP3    H172026   0.949   0.417  91.452  3.0727 -0.8644 -1.0572
16845TIP3    H272027   0.981   0.470  91.314 -0.1575  1.5078 -0.9949
16846TIP3   OH272028   2.080   2.403  42.838  0.4027 -0.1414  0.0126
16846TIP3    H172029   2.004   2.346  42.832  0.5442 -0.5057  1.3884
16846TIP3    H272030   2.155   2.344  42.849  1.0176  0.1742 -1.9591
16847TIP3   OH272031   1.206   1.321  29.988 -0.7285 -0.4468 -0.0449
16847TIP3    H172032   1.123   1.284  30.020 -1.0883  1.5171  1.5315
16847TIP3    H272033   1.187   1.346  29.898 -2.3146  1.0566  0.6356
16848TIP3   OH272034   0.020   2.173  19.356  0.1492  0.7377 -0.1862
16848TIP3    H172035   0.048   2.105  19.295  1.1052  0.6535  0.3342
16848TIP3    H272036   0.002   2.127  19.437  0.6697  1.0843  0.1315
16849TIP3   OH272037   0.037   2.363 111.537 -0.1025 -0.5844  0.6167
16849TIP3    H172038   0.098   2.297 111.506  2.0150  0.7272  1.7778
16849TIP3    H272039   0.060   2.376 111.628  0.5999  2.7620  0.0927
16850TIP3   OH272040   0.336   1.080  23.633 -0.4548  0.6706  0.5708
16850TIP3    H172041   0.291   1.005  23.673  0.0296  1.2267  2.2855
16850TIP3    H272042   0.328   1.066  23.539 -0.3840 -1.5371  0.8384
16851TIP3   OH272043   0.279   1.211  87.749  0.3874 -0.5107 -0.2117
16851TIP3    H172044   0.251   1.302  87.754 -0.2834 -0.6031 -1.7589
16851TIP3    H272045   0.259   1.175  87.835  0.1901  0.6622  0.2538
16852TIP3   OH272046   1.078   0.162 104.518  0.4698  0.0876 -0.2478
16852TIP3    H172047   1.133   0.153 104.441  0.0278 -1.1877 -0.4296
16852TIP3    H272048   1.040   0.075 104.532  0.2990  0.3631  1.2198
16853TIP3   OH272049   0.149   2.614  23.209 -0.0574  0.3887 -0.0523
16853TIP3    H172050   0.056   2.636  23.199 -0.2017  1.7043  2.9732
16853TIP3    H272051   0.178   2.591  23.121 -2.8991  1.3291 -1.3567
16854TIP3   OH272052   2.114   2.326  96.866 -0.1227 -0.0662 -0.5968
16854TIP3    H172053   2.145   2.337  96.776  1.0235 -0.8073 -0.3318
16854TIP3    H272054   2.073   2.239  96.867 -2.1611  0.8495 -0.9124
16855TIP3   OH272055   0.497   1.515  90.660 -0.4010 -0.3438 -0.0907
16855TIP3    H172056   0.450   1.567  90.595 -0.6683 -0.8322 -0.2943
16855TIP3    H272057   0.431   1.460  90.700  0.0498 -1.3687 -0.7008
16856TIP3   OH272058   1.161   1.023  76.002 -0.3562 -0.5104 -0.0820
16856TIP3    H172059   1.133   1.004  76.092  0.9959  2.3896  1.0879
16856TIP3    H272060   1.107   1.098  75.976  2.0337  1.4089  0.0357
16857TIP3   OH272061   2.157   2.400  83.883 -0.0771  0.0931  0.8962
16857TIP3    H172062   2.172   2.309  83.858 -1.5556 -0.0409  0.4602
16857TIP3    H272063   2.159   2.398  83.979 -1.0006 -0.5772  0.9199
16858TIP3   OH272064   2.646   0.257  93.759 -0.1967 -0.0478  0.3982
16858TIP3    H172065   2.694   0.212  93.690 -0.8467 -1.8547  1.0396
16858TIP3    H272066   2.707   0.261  93.833 -0.7055 -1.5962  0.9436
16859TIP3   OH272067   1.391   1.290  82.390  0.2088 -0.3749  0.3143
16859TIP3    H172068   1.408   1.198  82.412  0.0258 -0.6471 -0.6222
16859TIP3    H272069   1.478   1.326  82.372  0.1073 -1.2172 -2.3880
16860TIP3   OH272070   2.437   2.142   8.757 -0.1927 -0.1095 -0.2410
16860TIP3    H172071   2.365   2.198   8.785  0.0087 -0.0545  0.1685
16860TIP3    H272072   2.444   2.157   8.663  0.5640  1.3699  0.0218
16861TIP3   OH272073   1.999   1.455   3.734 -0.3777  0.1462  0.0122
16861TIP3    H172074   2.063   1.426   3.799 -1.4537  1.0492  1.5056
16861TIP3    H272075   1.932   1.500   3.784 -1.3631  0.6713 -1.7122
16862TIP3   OH272076   0.948   1.741  29.299 -0.2541 -0.3043 -0.2869
16862TIP3    H172077   0.941   1.653  29.335 -0.2608 -0.2983 -0.2729
16862TIP3    H272078   1.040   1.749  29.274  0.7179  0.9964  3.1415
16863TIP3   OH272079   2.556   2.195  19.785 -0.4359 -0.0218  0.0346
16863TIP3    H172080   2.464   2.204  19.759  0.0054  0.7034 -1.4130
16863TIP3    H272081   2.599   2.155  19.709  0.5120 -0.0245  0.5493
16864TIP3   OH272082   1.237   2.568  74.214  0.4008  0.1015  0.0907
16864TIP3    H172083   1.168   2.538  74.273 -0.7387  0.3031 -1.0746
16864TIP3    H272084   1.235   2.506  74.141  0.6238  0.7950 -0.5271
16865TIP3   OH272085   0.130   2.321   9.507  0.7053 -0.1856  0.2896
16865TIP3    H172086   0.144   2.325   9.602 -0.3142 -0.2436  0.4552
16865TIP3    H272087   0.058   2.381   9.491  0.9825 -0.0531 -0.4823
16866TIP3   OH272088   2.606   0.344  26.497  0.4006 -0.6485  0.1066
16866TIP3    H172089   2.686   0.396  26.495  0.9797 -1.4630 -2.3850
16866TIP3    H272090   2.637   0.253  26.489 -0.7259 -0.9951 -0.5774
16867TIP3   OH272091   0.706   0.274  84.787  0.8509  0.0967 -0.0720
16867TIP3    H172092   0.680   0.251  84.698  0.6734 -0.0614  0.0204
16867TIP3    H272093   0.731   0.191  84.828 -2.3231 -0.4266  1.1104
16868TIP3   OH272094   0.889   2.459  84.450  0.3535 -0.1207 -0.1593
16868TIP3    H172095   0.854   2.546  84.471  1.2376 -0.0799  1.2707
16868TIP3    H272096   0.816   2.414  84.408 -0.9328  0.4790  1.3209
16869TIP3   OH272097   1.483   2.490  32.523  0.3429  0.2039 -0.2417
16869TIP3    H172098   1.454   2.398  32.524  1.8574 -0.3240 -0.9503
16869TIP3    H272099   1.408   2.539  32.489 -0.4004 -0.8054 -0.1060
16870TIP3   OH272100   2.140   2.016  21.309 -0.0621  0.0796 -0.0328
16870TIP3    H172101   2.077   2.050  21.247 -0.1959  0.5639  0.3582
16870TIP3    H272102   2.223   2.058  21.285 -0.3776  1.2912  0.9120
16871TIP3   OH272103   0.966   1.392  16.761  0.2698 -0.3919  0.0387
16871TIP3    H172104   0.906   1.385  16.687  0.0800  0.9552  0.0393
16871TIP3    H272105   0.953   1.481  16.794  1.0496 -0.6486  1.0889
16872TIP3   OH272106   2.393   0.232 110.479  0.3349 -0.0282 -0.4157
16872TIP3    H172107   2.447   0.229 110.401  0.1144 -0.3554 -0.5559
16872TIP3    H272108   2.407   0.320 110.515  2.4543 -0.6959  0.6026
16873TIP3   OH272109   0.233   0.477  68.537 -0.5518  0.2040  0.0572
16873TIP3    H172110   0.223   0.396  68.486 -0.6478 -0.1403  0.6139
16873TIP3    H272111   0.178   0.541  68.492 -2.2039 -0.6150  0.8152
16874TIP3   OH272112   0.380   1.834  63.622 -0.5537 -0.3231  0.1229
16874TIP3    H172113   0.302   1.873  63.582 -0.8856 -1.0729  0.0062
16874TIP3    H272114   0.372   1.740  63.602  0.6533 -0.3425 -0.3561
16875TIP3   OH272115   0.494   0.371  85.225 -0.5819 -0.8323  0.0730
16875TIP3    H172116   0.401   0.362  85.204 -0.6885  1.5840 -0.8834
16875TIP3    H272117   0.536   0.295  85.185 -2.0201 -1.3649 -0.4858
16876TIP3   OH272118   2.097   1.202 106.249 -0.8461  0.4076  0.2759
16876TIP3    H172119   2.149   1.133 106.208 -0.1797 -0.0172  1.7639
16876TIP3    H272120   2.104   1.277 106.190  1.1869  0.2509  0.2481
16877TIP3   OH272121   0.781   2.132  32.326 -0.2626  0.3265  0.1269
16877TIP3    H172122   0.832   2.135  32.407  1.4267  1.0861 -0.9071
16877TIP3    H272123   0.805   2.048  32.286 -2.0753 -0.6438  0.9743
16878TIP3   OH272124   1.989   1.553  98.214 -0.0991  0.0226  0.0358
16878TIP3    H172125   1.913   1.607  98.192  0.7391  1.7187  1.0110
16878TIP3    H272126   2.058   1.583  98.155  0.7825  1.1457  1.5301
16879TIP3   OH272127   1.786   2.582 108.812 -0.2619 -0.2952 -0.7526
16879TIP3    H172128   1.731   2.586 108.890  0.4762  0.6388 -0.2511
16879TIP3    H272129   1.747   2.644 108.751 -0.8521 -1.0426 -1.1414
16880TIP3   OH272130   0.023   0.725  26.870  0.5776  0.1386  0.9061
16880TIP3    H172131   0.106   0.740  26.824 -0.2637  1.8952 -0.1348
16880TIP3    H272132  -0.018   0.811  26.876 -0.8762 -0.5755  2.0247
16881TIP3   OH272133   0.563   2.559  82.375  0.2052 -0.2681  0.0379
16881TIP3    H172134   0.524   2.528  82.293 -0.2282  0.2546  0.0374
16881TIP3    H272135   0.615   2.486  82.407 -0.6676 -0.9314 -0.0386
16882TIP3   OH272136   0.831   1.365  98.364  0.3928 -0.1121  0.3152
16882TIP3    H172137   0.782   1.398  98.289 -0.1256  1.7792  1.4196
16882TIP3    H272138   0.922   1.389  98.346  0.3836 -0.3240 -0.0267
16883TIP3   OH272139   0.726   0.067  33.754 -0.0470  0.3354 -0.9867
16883TIP3    H172140   0.637   0.031  33.759  0.0445 -0.0220 -1.7403
16883TIP3    H272141   0.714   0.154  33.715  0.0165 -0.1057 -2.0234
16884TIP3   OH272142   0.973   2.601  75.121 -0.1874 -0.6139 -0.0459
16884TIP3    H172143   0.924   2.679  75.094  1.2425 -0.0515 -1.1093
16884TIP3    H272144   1.056   2.634  75.153  0.2534 -1.6749 -0.0479
16885TIP3   OH272145   1.096   2.472  69.242 -0.0058  0.6303  0.1332
16885TIP3    H172146   1.090   2.447  69.335 -0.6711  0.3976  0.0328
16885TIP3    H272147   1.080   2.390  69.195  3.0264  0.1113 -0.1980
16886TIP3   OH272148   2.677   2.373  33.417  0.8577 -0.3481  0.3382
16886TIP3    H172149   2.599   2.330  33.381  1.1059 -0.6322  0.1284
16886TIP3    H272150   2.716   2.307  33.475  1.1626 -0.3572  0.1226
16887TIP3   OH272151   2.137   0.712  20.608 -0.4339  0.2938 -0.6655
16887TIP3    H172152   2.090   0.723  20.690 -1.2975 -0.7219 -1.0078
16887TIP3    H272153   2.078   0.749  20.542  0.9522  2.6676 -0.7018
16888TIP3   OH272154   0.937   2.477 107.552 -0.1259  0.1555  0.4815
16888TIP3    H172155   0.896   2.442 107.631  0.0627  2.8559  1.9006
16888TIP3    H272156   1.018   2.426 107.543  0.4068  0.4782  2.7473
16889TIP3   OH272157   1.418   1.118  17.974 -0.4047  0.0179 -0.1128
16889TIP3    H172158   1.422   1.183  18.045 -1.5953  2.1817 -1.9132
16889TIP3    H272159   1.365   1.047  18.010  0.3431  0.3072  1.6808
16890TIP3   OH272160   1.447   2.309 107.842 -0.3394  0.1455 -0.7663
16890TIP3    H172161   1.442   2.328 107.936  0.0032 -1.1335 -0.4583
16890TIP3    H272162   1.519   2.363 107.810 -0.9278  1.1377 -0.4514
16891TIP3   OH272163   1.313   0.292   7.291  0.1865  0.0261 -0.0707
16891TIP3    H172164   1.287   0.237   7.216  0.1433 -0.5577  0.3651
16891TIP3    H272165   1.407   0.278   7.299  0.1579 -0.0636  0.1049
16892TIP3   OH272166   1.582   1.242   0.063  0.3176  0.4537  0.1984
16892TIP3    H172167   1.609   1.199  -0.018 -0.0506  0.1799  0.2202
16892TIP3    H272168   1.486   1.241   0.060  0.3024  0.3921  0.6646
16893TIP3   OH272169   1.171   2.559  35.910  0.0727 -0.5256 -0.2237
16893TIP3    H172170   1.112   2.608  35.967 -1.8862 -1.7891 -1.0830
16893TIP3    H272171   1.197   2.483  35.962  0.2689 -0.4071 -0.1478
16894TIP3   OH272172   2.004   1.445   5.247 -0.4013 -0.2438  0.3952
16894TIP3    H172173   1.948   1.445   5.169  0.7335 -0.9686 -0.4427
16894TIP3    H272174   2.087   1.483   5.217  0.7693 -2.4282  0.6773
16895TIP3   OH272175   0.325   0.852   9.857  0.7386  0.2372 -0.3063
16895TIP3    H172176   0.312   0.840   9.763 -1.9901 -3.3263  0.3330
16895TIP3    H272177   0.261   0.919   9.882 -0.1280 -0.4313 -0.6990
16896TIP3   OH272178   0.754   1.927  51.632 -0.2741 -0.2539  0.2882
16896TIP3    H172179   0.701   1.918  51.712 -1.3226 -3.2064 -0.6143
16896TIP3    H272180   0.815   1.853  51.635 -1.2956 -1.3231 -2.2405
16897TIP3   OH272181   0.107   0.095   0.108 -0.5990  0.1863 -0.0225
16897TIP3    H172182   0.101   0.087   0.013 -0.6228 -0.5739  0.0295
16897TIP3    H272183   0.199   0.075   0.127 -1.0668 -1.8186  0.2920
16898TIP3   OH272184   0.816   0.515  23.561 -0.1162  0.0937  0.2324
16898TIP3    H172185   0.820   0.550  23.472 -1.1119 -0.6557 -0.1272
16898TIP3    H272186   0.831   0.590  23.618  0.3538  0.6109 -0.5631
16899TIP3   OH272187   0.124   0.526  26.503  0.1344 -0.1940  0.2028
16899TIP3    H172188   0.199   0.530  26.563  1.2156  0.5462 -1.1485
16899TIP3    H272189   0.080   0.610  26.515 -0.1124 -0.3700  0.5347
16900TIP3   OH272190   0.827   2.580  77.777  0.2420  0.4112  0.1596
16900TIP3    H172191   0.893   2.540  77.832  0.1007 -0.0455 -0.0007
16900TIP3    H272192   0.876   2.629  77.711  0.4672  3.0519  2.0891
16901TIP3   OH272193   2.267   0.310   6.024 -0.1393 -0.3691  0.6588
16901TIP3    H172194   2.361   0.295   6.020  0.3656  2.2668  0.9423
16901TIP3    H272195   2.238   0.308   5.932  0.3191 -0.5618  0.5171
16902TIP3   OH272196   2.164   0.729  21.171 -0.4804  0.1509  0.6078
16902TIP3    H172197   2.198   0.792  21.108 -0.2551  1.4737  1.9850
16902TIP3    H272198   2.231   0.661  21.175  0.4290  1.0300  0.8226
16903TIP3   OH272199   2.430   0.664  80.187  0.3854  0.6241 -0.2965
16903TIP3    H172200   2.507   0.654  80.130  2.1597 -0.0617  2.0742
16903TIP3    H272201   2.440   0.595  80.252 -1.6544  1.2731  0.7699
16904TIP3   OH272202   1.324   0.788  19.644 -0.1329  0.2536  0.0153
16904TIP3    H172203   1.257   0.797  19.711  0.8621 -1.9242  1.3931
16904TIP3    H272204   1.407   0.785  19.692  0.6262 -1.2124 -1.2837
16905TIP3   OH272205   0.253   0.078  80.731 -0.2427  0.1853  0.0652
16905TIP3    H172206   0.296   0.147  80.781 -1.9337  1.6605 -0.4064
16905TIP3    H272207   0.166   0.071  80.770 -1.3410  0.8486 -2.0939
16906TIP3   OH272208   1.633   0.363  31.555 -0.2835  0.1388 -0.1934
16906TIP3    H172209   1.644   0.301  31.627 -0.2283  0.2014 -0.1494
16906TIP3    H272210   1.656   0.448  31.592  0.1143  0.1177 -0.3896
16907TIP3   OH272211   1.653   2.567  45.160 -0.2215 -0.2130 -0.5279
16907TIP3    H172212   1.652   2.483  45.205 -1.4708  0.1945  0.2649
16907TIP3    H272213   1.715   2.620  45.210 -0.5964 -0.1850 -0.0846
16908TIP3   OH272214   2.191   1.589   5.102 -0.1318 -0.5162  0.1814
16908TIP3    H172215   2.218   1.557   5.016  0.7719 -0.4976  0.4423
16908TIP3    H272216   2.167   1.680   5.087 -0.5490 -0.6813 -0.1582
16909TIP3   OH272217   2.592   0.686  48.571  0.0697 -0.1514 -0.3268
16909TIP3    H172218   2.558   0.609  48.618  2.5272 -0.9086  0.3566
16909TIP3    H272219   2.632   0.650  48.492 -2.6983  0.9662 -2.3708
16910TIP3   OH272220   1.830   0.887  93.523  0.5634  0.7459 -0.1392
16910TIP3    H172221   1.789   0.964  93.483  1.3167  1.7968  1.0445
16910TIP3    H272222   1.759   0.822  93.527 -0.1170  1.4051 -1.0511
16911TIP3   OH272223   0.436   2.290 107.702  0.2104 -0.0262  0.4604
16911TIP3    H172224   0.438   2.384 107.684  0.3845 -0.2493 -0.7850
16911TIP3    H272225   0.526   2.267 107.724  0.1492  0.1137  0.8573
16912TIP3   OH272226   0.354   2.469  77.616  0.6260 -0.1276 -0.3347
16912TIP3    H172227   0.435   2.454  77.665  0.1865  1.6729  1.0376
16912TIP3    H272228   0.379   2.530  77.547  0.3429  0.8759  0.4391
16913TIP3   OH272229   2.302   2.282  79.661  0.7768 -0.1855  0.0404
16913TIP3    H172230   2.339   2.328  79.586 -0.3187  0.5012 -0.1096
16913TIP3    H272231   2.273   2.197  79.625 -1.2198  0.7578 -0.7376
16914TIP3   OH272232   2.161   2.150  20.935 -0.3299  0.1588  0.1387
16914TIP3    H172233   2.191   2.101  20.858 -3.3192 -0.6362 -0.6807
16914TIP3    H272234   2.236   2.152  20.994  1.4868 -0.8660 -2.0082
16915TIP3   OH272235   1.703   0.125  81.639  0.2869 -0.2769  0.1779
16915TIP3    H172236   1.682   0.070  81.564  0.7189  0.7830 -0.7536
16915TIP3    H272237   1.657   0.085  81.713 -0.0906 -1.3783 -0.6354
16916TIP3   OH272238   1.712   0.737  15.949 -0.7168 -0.0212 -0.6048
16916TIP3    H172239   1.617   0.747  15.937 -1.1268 -0.9331  1.3792
16916TIP3    H272240   1.725   0.643  15.956  0.1901  0.1397  0.0296
16917TIP3   OH272241   0.249   2.328  95.875  0.0526  0.2931 -0.1229
16917TIP3    H172242   0.270   2.422  95.871 -0.8415  0.4748 -0.7700
16917TIP3    H272243   0.218   2.307  95.787  2.7898 -1.2504 -0.8229
16918TIP3   OH272244   1.010   2.104  12.488 -0.6149  0.1858  0.3454
16918TIP3    H172245   0.972   2.175  12.539 -0.1053 -0.2352  1.3213
16918TIP3    H272246   1.089   2.079  12.535 -0.5266 -0.7016 -0.2423
16919TIP3   OH272247   1.625   0.240  80.486 -0.3588 -0.0992  0.1395
16919TIP3    H172248   1.674   0.222  80.406  0.1435 -0.7607  0.5807
16919TIP3    H272249   1.691   0.266  80.550 -0.7005 -0.0381  0.4682
16920TIP3   OH272250   2.010   1.762 108.004 -0.0592  0.1065 -0.2406
16920TIP3    H172251   2.082   1.735 108.061 -1.3631 -0.0678  1.3844
16920TIP3    H272252   1.940   1.700 108.022 -0.9222  0.7848 -1.1486
16921TIP3   OH272253   0.686   2.489  95.809 -0.3482 -0.0084 -0.4791
16921TIP3    H172254   0.780   2.473  95.803 -0.4974 -1.0378 -0.2161
16921TIP3    H272255   0.679   2.582  95.833  0.6419 -0.3298  1.1642
16922TIP3   OH272256   1.082   2.624  15.203  0.4945 -0.0795 -0.2529
16922TIP3    H172257   0.990   2.647  15.215  0.5825 -0.4322  1.4369
16922TIP3    H272258   1.128   2.708  15.199  0.2347  0.1072  0.4281
16923TIP3   OH272259   1.261   2.342  79.752 -0.2045 -0.3237  0.3555
16923TIP3    H172260   1.183   2.289  79.737 -1.6195  1.3013  1.4961
16923TIP3    H272261   1.305   2.299  79.825  0.3660 -1.6081 -0.6969
16924TIP3   OH272262   0.285   0.863  95.779  0.1253 -0.0073 -0.0754
16924TIP3    H172263   0.258   0.813  95.856  1.3038 -0.0276  0.3472
16924TIP3    H272264   0.207   0.911  95.753 -0.8434 -1.4901 -0.0490
16925TIP3   OH272265   2.248   2.166  15.368  0.2752  0.2892  0.0895
16925TIP3    H172266   2.201   2.171  15.284  0.2380  1.4282  0.1632
16925TIP3    H272267   2.195   2.107  15.421  0.2477 -0.3765 -0.6488
16926TIP3   OH272268   0.883   0.283  68.037 -0.4430  0.1588  0.2128
16926TIP3    H172269   0.822   0.354  68.020  1.9163  2.2896  0.1086
16926TIP3    H272270   0.939   0.279  67.959  0.8380 -0.3192  1.1086
16927TIP3   OH272271   0.803   1.291   7.661 -0.1567 -0.2348 -0.1565
16927TIP3    H172272   0.794   1.377   7.620 -0.5327  0.3328  1.0806
16927TIP3    H272273   0.848   1.308   7.743  0.9184 -1.4083 -0.4702
16928TIP3   OH272274   2.229   0.742  94.166  0.1013  0.1686 -0.1279
16928TIP3    H172275   2.242   0.667  94.225  1.5412  1.4356  1.2541
16928TIP3    H272276   2.286   0.723  94.091  1.1081  0.2318  0.5948
16929TIP3   OH272277   1.485   0.569  10.137 -0.3609  0.7028 -0.5660
16929TIP3    H172278   1.483   0.637  10.069 -1.8611 -0.1040 -1.3595
16929TIP3    H272279   1.440   0.609  10.212  1.3207  1.6033  0.0312
16930TIP3   OH272280   0.527   0.682  31.155  0.0346 -0.0430  0.7125
16930TIP3    H172281   0.509   0.615  31.221  0.4076 -1.2210 -0.3324
16930TIP3    H272282   0.622   0.696  31.161 -0.2503  1.6005  2.0056
16931TIP3   OH272283   1.971   1.383  15.471 -0.4323  0.0148 -0.0578
16931TIP3    H172284   1.974   1.293  15.502 -0.2237  0.0077 -0.1017
16931TIP3    H272285   1.879   1.397  15.448 -0.5350 -0.0719  0.2883
16932TIP3   OH272286   2.671   1.112   6.382  0.1983 -0.0609 -0.1489
16932TIP3    H172287   2.766   1.123   6.371  0.3861 -1.6258 -0.2711
16932TIP3    H272288   2.633   1.176   6.322  1.1982 -0.3512 -1.1482
16933TIP3   OH272289   0.307   1.898  29.329 -0.1905 -0.6539  0.1227
16933TIP3    H172290   0.306   1.816  29.379 -3.3545  0.3098  1.8864
16933TIP3    H272291   0.343   1.962  29.390 -1.0695 -0.0748  0.0405
16934TIP3   OH272292   1.106   1.124  75.022  0.0114 -0.4899 -0.2345
16934TIP3    H172293   1.093   1.183  75.096 -0.9972 -0.1268 -0.6844
16934TIP3    H272294   1.020   1.118  74.980  0.6938 -0.2068 -1.7324
16935TIP3   OH272295   0.082   0.902  40.397  0.2744 -0.0827 -0.2412
16935TIP3    H172296  -0.004   0.940  40.379 -0.0121 -0.6919 -0.2016
16935TIP3    H272297   0.111   0.944  40.478  0.8938  1.5619 -1.2787
16936TIP3   OH272298   2.588   1.386  94.087 -0.4541  0.4564 -0.6570
16936TIP3    H172299   2.656   1.345  94.140  2.0146  2.3919 -2.0835
16936TIP3    H272300   2.552   1.315  94.033 -1.2990 -1.0473  1.7331
16937TIP3   OH272301   1.277   0.929  30.257  0.1437  0.2777 -0.4618
16937TIP3    H172302   1.282   1.022  30.278 -1.2048 -0.0153  1.4228
16937TIP3    H272303   1.358   0.892  30.293 -0.1056  0.4830  0.3390
16938TIP3   OH272304   1.208   1.773  78.028  0.1199  0.1174  0.2091
16938TIP3    H172305   1.160   1.691  78.034  1.6325 -1.0550 -2.0620
16938TIP3    H272306   1.293   1.748  77.993  1.3111  2.4659  1.2203
16939TIP3   OH272307   1.441   2.183   8.995 -0.2464  0.2379 -0.2304
16939TIP3    H172308   1.410   2.102   9.035  0.8615 -1.0493 -1.8355
16939TIP3    H272309   1.363   2.219   8.953 -0.4467 -0.8852 -0.8851
16940TIP3   OH272310   1.489   2.104  26.819 -0.0826  0.3128 -0.2304
16940TIP3    H172311   1.576   2.066  26.835 -0.4099 -0.2921  0.1531
16940TIP3    H272312   1.479   2.171  26.887 -0.4316 -0.5021  0.5423
16941TIP3   OH272313   2.160   2.020   1.288 -0.0054  0.0135 -0.3432
16941TIP3    H172314   2.118   1.943   1.250 -0.8384  0.0642  0.4299
16941TIP3    H272315   2.174   1.996   1.380 -0.5699  0.8922 -0.0161
16942TIP3   OH272316   1.730   1.809  22.762  0.5712 -0.1612 -0.5457
16942TIP3    H172317   1.689   1.893  22.783  0.2655 -0.2233 -0.8723
16942TIP3    H272318   1.776   1.784  22.841 -0.2344 -0.2050 -0.0734
16943TIP3   OH272319   1.004   1.904  17.231  0.0411  0.4986 -0.0914
16943TIP3    H172320   1.034   1.834  17.289  0.4410  0.4011 -0.4154
16943TIP3    H272321   0.908   1.897  17.234  0.0511  0.6782  0.7734
16944TIP3   OH272322   1.258   1.202  26.024  0.0636 -0.6628  0.0925
16944TIP3    H172323   1.256   1.205  26.120  1.2489  0.6253  0.1014
16944TIP3    H272324   1.350   1.211  26.002 -0.3313  0.4412 -1.2007
16945TIP3   OH272325   0.416   1.980  93.005  0.2311 -0.1985  0.1142
16945TIP3    H172326   0.343   2.002  92.948 -0.1725 -1.7465 -0.0222
16945TIP3    H272327   0.487   1.954  92.946 -0.0102 -1.2759  0.2644
16946TIP3   OH272328   2.277   0.552 102.942 -0.1868 -0.3777 -0.2309
16946TIP3    H172329   2.327   0.527 102.864  0.9078 -2.2278  0.9667
16946TIP3    H272330   2.338   0.607 102.992 -0.8305  0.6785 -0.5819
16947TIP3   OH272331   0.050   1.682  89.813  0.3832 -0.3840  0.4307
16947TIP3    H172332   0.106   1.707  89.886 -0.4713  1.2318  0.5660
16947TIP3    H272333  -0.015   1.752  89.807  0.2272 -0.6459 -1.6589
16948TIP3   OH272334   0.556   1.627  83.787  0.0237 -0.0586  0.1845
16948TIP3    H172335   0.584   1.714  83.758 -1.1238  0.2809  0.0564
16948TIP3    H272336   0.630   1.595  83.840  0.4703  0.9731  0.2132
16949TIP3   OH272337   1.549   1.008  57.659 -0.0370 -0.3800  1.2351
16949TIP3    H172338   1.467   1.044  57.624 -0.3018  0.3397  2.5253
16949TIP3    H272339   1.616   1.071  57.630 -0.1582 -0.1435  1.4674
16950TIP3   OH272340   1.298   1.701  21.748  0.3294  0.3115 -0.4380
16950TIP3    H172341   1.212   1.660  21.759 -0.1831  0.4655 -3.2246
16950TIP3    H272342   1.315   1.744  21.832 -1.8670 -0.5089  0.4986
16951TIP3   OH272343   1.669   2.533 110.065 -0.5361  0.0916  0.2658
16951TIP3    H172344   1.605   2.594 110.028 -0.9518  0.5343  1.6435
16951TIP3    H272345   1.624   2.449 110.069 -0.9831  0.3580  1.0428
16952TIP3   OH272346   2.643   2.682  95.457  0.4820 -0.0817  0.4017
16952TIP3    H172347   2.690   2.628  95.520  1.8854  0.5144 -0.0832
16952TIP3    H272348   2.551   2.657  95.468  0.5896  0.3563  3.0286
16953TIP3   OH272349   2.034   0.943  10.602  0.3228 -0.1120  0.3422
16953TIP3    H172350   2.129   0.937  10.613  0.7058  0.2647 -2.1842
16953TIP3    H272351   2.016   0.888  10.526 -1.3646  0.5165  0.2563
16954TIP3   OH272352   2.358   0.740  69.071  0.9009 -0.3218  0.2661
16954TIP3    H172353   2.371   0.671  69.137 -2.2050 -1.8565 -0.5053
16954TIP3    H272354   2.360   0.821  69.120  3.0811 -1.0132  1.4659
16955TIP3   OH272355   1.896   0.341  14.633  0.2519 -0.2110 -0.1804
16955TIP3    H172356   1.819   0.365  14.685  0.6430  0.0602  0.2698
16955TIP3    H272357   1.932   0.264  14.675 -0.2509 -0.8455 -0.8800
16956TIP3   OH272358   0.868   1.264  87.171 -0.1189  0.6050 -0.0543
16956TIP3    H172359   0.963   1.267  87.185  0.1641 -1.3859 -1.2270
16956TIP3    H272360   0.858   1.233  87.081 -1.9041  1.3519 -0.1544
16957TIP3   OH272361   2.461   1.811  17.955  0.0630  0.0387 -0.6691
16957TIP3    H172362   2.520   1.862  18.010  0.5951  0.6560 -1.7704
16957TIP3    H272363   2.391   1.783  18.014  0.2468  1.2537  0.1691
16958TIP3   OH272364   1.643   2.475  31.226 -0.1342  0.1943  0.1394
16958TIP3    H172365   1.620   2.414  31.297  1.4658 -2.7727 -1.6731
16958TIP3    H272366   1.738   2.464  31.216 -0.2858  0.7063 -2.2930
16959TIP3   OH272367   1.539   1.667  37.029 -0.2120  0.6028 -0.0414
16959TIP3    H172368   1.471   1.630  37.086 -0.2597  1.5649  0.5553
16959TIP3    H272369   1.491   1.710  36.958 -0.1679 -0.1301 -0.5230
16960TIP3   OH272370   0.067   0.793   4.550  0.3638 -0.1558 -0.2627
16960TIP3    H172371   0.005   0.796   4.478  0.2144  1.7973 -0.1044
16960TIP3    H272372   0.122   0.871   4.538  1.5676 -0.8278  0.6570
16961TIP3   OH272373   2.420   2.219  90.403  0.5054 -0.1953  0.3005
16961TIP3    H172374   2.474   2.150  90.364 -0.7965 -0.6337 -0.7872
16961TIP3    H272375   2.385   2.268  90.329  1.2398  1.5486  1.0448
16962TIP3   OH272376   0.523   1.845   8.561  0.1189  0.2094 -0.1797
16962TIP3    H172377   0.515   1.938   8.538  0.7800  0.4203  0.4192
16962TIP3    H272378   0.606   1.818   8.523 -1.0631 -0.7478 -2.2886
16963TIP3   OH272379   0.610   1.968  20.389  0.1985 -0.0409 -0.4199
16963TIP3    H172380   0.554   1.922  20.328 -1.4677  0.2636  0.8176
16963TIP3    H272381   0.697   1.929  20.377 -0.5345 -1.3977 -1.4816
16964TIP3   OH272382   1.004   1.767 110.883  0.1271 -0.0518  0.5757
16964TIP3    H172383   1.096   1.789 110.897  0.4222 -0.3318 -0.8587
16964TIP3    H272384   0.963   1.850 110.859  0.2434 -0.1541  0.0302
16965TIP3   OH272385   0.839   2.380 102.021  0.3213  0.3002 -0.1144
16965TIP3    H172386   0.804   2.429 102.095 -1.4160 -1.6472  0.4541
16965TIP3    H272387   0.927   2.353 102.049  0.2079  0.7216  0.6662
16966TIP3   OH272388   2.480   1.352  13.479  0.1491 -0.5107 -0.0091
16966TIP3    H172389   2.574   1.346  13.495  0.2354 -1.8991 -0.8056
16966TIP3    H272390   2.469   1.428  13.422  0.6494  0.2943  0.9584
16967TIP3   OH272391   1.250   1.651  27.839 -0.0657 -0.6470  0.2081
16967TIP3    H172392   1.321   1.674  27.899  0.0340  0.8330 -0.4351
16967TIP3    H272393   1.193   1.728  27.840 -0.9103 -1.2612 -0.3580
16968TIP3   OH272394   1.682   2.073   2.574 -0.8190  0.3946  0.0897
16968TIP3    H172395   1.602   2.072   2.522 -2.1916 -1.7328  2.0289
16968TIP3    H272396   1.668   2.143   2.638 -1.7222 -0.6809  1.1328
16969TIP3   OH272397   2.378   2.642  95.877  0.2089  0.6058 -0.3055
16969TIP3    H172398   2.468   2.615  95.858  0.8550  2.7195 -0.5150
16969TIP3    H272399   2.377   2.652  95.972 -0.0065 -0.0089 -0.2388
16970TIP3   OH272400   1.167   1.950   4.193 -0.1563  0.5393  0.0638
16970TIP3    H172401   1.236   1.893   4.228 -0.4473  0.8700  1.2295
16970TIP3    H272402   1.162   2.022   4.256  0.6851  2.2579 -1.7155
16971TIP3   OH272403   0.239   1.058 110.489  0.2104 -0.4258 -0.7167
16971TIP3    H172404   0.239   1.118 110.563 -0.8427 -1.2678  0.0030
16971TIP3    H272405   0.147   1.052 110.462  0.2910 -1.6470 -0.7990
16972TIP3   OH272406   0.527   1.899  32.589  0.6374  0.0556  0.3925
16972TIP3    H172407   0.510   1.903  32.495  0.2091 -1.7923  0.3686
16972TIP3    H272408   0.443   1.920  32.630  1.0882  2.0264  0.4262
16973TIP3   OH272409   0.766   0.412  57.076 -0.3067  0.7190 -0.3987
16973TIP3    H172410   0.695   0.428  57.014  1.0354  0.9842 -1.9446
16973TIP3    H272411   0.825   0.352  57.030  0.9804  1.3245  0.4104
16974TIP3   OH272412   1.314   0.233   3.596 -0.8322  0.0200  0.7298
16974TIP3    H172413   1.229   0.195   3.617 -1.1909 -0.4977 -1.3837
16974TIP3    H272414   1.294   0.300   3.530  0.4528 -0.9456 -0.7181
16975TIP3   OH272415   0.511   1.318  51.627 -0.9111 -0.0139  0.4216
16975TIP3    H172416   0.543   1.237  51.588 -0.4755  0.2965  0.1223
16975TIP3    H272417   0.587   1.377  51.626 -1.3008  0.4948  0.3665
16976TIP3   OH272418   0.389   1.869  79.833 -0.1899 -0.6354  0.3183
16976TIP3    H172419   0.434   1.927  79.894 -1.9957  0.6638  0.5059
16976TIP3    H272420   0.397   1.782  79.872 -3.5444  0.4324  4.0155
16977TIP3   OH272421   1.374   0.555  95.589  0.1321 -0.0499 -0.2556
16977TIP3    H172422   1.385   0.600  95.672  0.4616  2.2319 -1.4578
16977TIP3    H272423   1.453   0.575  95.540 -0.5645 -0.3375 -1.5525
16978TIP3   OH272424   0.991   0.307  18.081  0.3233  0.1021 -0.4116
16978TIP3    H172425   0.908   0.342  18.049  0.1661  0.0528 -0.0615
16978TIP3    H272426   1.046   0.384  18.094 -0.2417  0.2886  0.9775
16979TIP3   OH272427   1.432   0.106  33.484 -0.3140  0.1465 -0.7772
16979TIP3    H172428   1.521   0.117  33.519 -0.8028  1.3161  0.1426
16979TIP3    H272429   1.400   0.026  33.525 -0.5472  1.0125  0.8216
16980TIP3   OH272430   1.697   2.112  77.776  0.1731 -0.0940  0.3381
16980TIP3    H172431   1.640   2.064  77.837  0.4690  0.4564  1.0583
16980TIP3    H272432   1.639   2.134  77.703 -0.3642 -0.1548  0.7297
16981TIP3   OH272433   1.882   1.224  84.152 -0.3309  0.1575  0.1929
16981TIP3    H172434   1.869   1.140  84.197  0.4552  0.9792  2.0531
16981TIP3    H272435   1.851   1.289  84.215 -1.3953  1.2735 -1.4102
16982TIP3   OH272436   0.364   2.367  24.714  0.1187 -0.5438  0.5761
16982TIP3    H172437   0.424   2.325  24.652  2.2526 -0.0362  2.1705
16982TIP3    H272438   0.317   2.295  24.755 -0.0085 -0.9976 -0.3540
16983TIP3   OH272439   1.983   1.662 111.463 -0.2025  0.2967  0.0410
16983TIP3    H172440   1.905   1.651 111.517 -0.6094  2.5234  0.0166
16983TIP3    H272441   1.953   1.712 111.387  1.0032  0.0926 -0.5995
16984TIP3   OH272442   1.340   2.006  86.191  0.4927  0.5032 -0.3517
16984TIP3    H172443   1.340   2.101  86.191 -1.5459  0.5738 -1.7599
16984TIP3    H272444   1.268   1.982  86.249  0.5372 -0.1440 -0.5552
16985TIP3   OH272445   1.006   1.657 110.532  0.0140  0.0629 -0.0332
16985TIP3    H172446   1.063   1.713 110.480 -3.0560  1.7198 -1.8642
16985TIP3    H272447   0.972   1.715 110.600 -0.3612 -0.6191  0.3667
16986TIP3   OH272448   2.501   1.088  35.195  0.3365 -0.0107 -0.2720
16986TIP3    H172449   2.466   1.158  35.251 -0.9917  0.9279 -2.1497
16986TIP3    H272450   2.426   1.061  35.141  1.5419 -0.8609 -1.5765
16987TIP3   OH272451   1.551   1.673  84.831 -0.0708  0.0825 -0.0023
16987TIP3    H172452   1.637   1.705  84.803  0.4367 -1.1318  0.1006
16987TIP3    H272453   1.562   1.579  84.838 -1.9658 -0.3377 -1.8801
16988TIP3   OH272454   0.203   0.877  86.298 -0.3803  0.6349  0.1142
16988TIP3    H172455   0.147   0.873  86.376  0.2506  0.5955  0.5670
16988TIP3    H272456   0.291   0.863  86.331 -0.2395 -0.6969 -0.7736
16989TIP3   OH272457   1.359   0.596  18.375 -0.0825 -0.1695  0.0117
16989TIP3    H172458   1.350   0.560  18.464 -0.2667 -1.5306 -0.5278
16989TIP3    H272459   1.443   0.642  18.377  0.1762 -0.6491  0.7484
16990TIP3   OH272460   1.082   0.875  18.966  0.4438 -0.3179  0.1903
16990TIP3    H172461   1.055   0.828  19.045  0.1504  0.6614  0.6834
16990TIP3    H272462   1.168   0.910  18.987  0.5159 -0.3514 -0.0520
16991TIP3   OH272463   1.336   2.521  24.127 -0.4290  0.1025 -0.1967
16991TIP3    H172464   1.274   2.450  24.113  0.4371 -0.2837 -2.4771
16991TIP3    H272465   1.282   2.600  24.132 -1.1566 -0.2215 -2.2251
16992TIP3   OH272466   0.260   1.656  62.953  0.4856  0.4133 -0.0092
16992TIP3    H172467   0.354   1.644  62.939  0.2490 -0.1088 -1.2694
16992TIP3    H272468   0.218   1.601  62.888 -0.7213  0.0359  1.0339
16993TIP3   OH272469   0.702   0.750  97.492  0.2214 -0.2102  0.1682
16993TIP3    H172470   0.707   0.660  97.524 -0.4841 -0.8248 -1.3474
16993TIP3    H272471   0.699   0.803  97.571 -3.0258 -1.7225  1.2484
16994TIP3   OH272472   0.535   1.646   7.698 -0.0878  0.6071 -0.0674
16994TIP3    H172473   0.560   1.645   7.791  0.9530  2.1592 -0.2954
16994TIP3    H272474   0.441   1.662   7.699  0.0461  1.4054  0.7116
16995TIP3   OH272475   0.735   0.813  80.738  0.1562  0.4113  0.0097
16995TIP3    H172476   0.692   0.895  80.762 -0.6258  0.3052 -0.9253
16995TIP3    H272477   0.689   0.785  80.659  2.8796  0.9964 -1.9056
16996TIP3   OH272478   0.529   2.558   9.009 -0.1030  0.3888  0.3115
16996TIP3    H172479   0.623   2.541   8.996  0.1609  0.1004  2.2808
16996TIP3    H272480   0.520   2.653   8.997  0.3735  0.3889 -0.1316
16997TIP3   OH272481   2.611   1.934   6.610  0.2729 -0.1505  0.2754
16997TIP3    H172482   2.671   2.008   6.605 -0.3008  0.2793 -0.3493
16997TIP3    H272483   2.617   1.905   6.701 -0.5141  1.5403  0.9069
16998TIP3   OH272484   1.831   0.317  32.605  0.7155 -0.2412 -0.0290
16998TIP3    H172485   1.886   0.366  32.544  0.8577  0.2383  0.4778
16998TIP3    H272486   1.875   0.233  32.615  0.8260 -0.2270 -0.3984
16999TIP3   OH272487   1.201   0.340  98.210 -0.1930 -0.3429 -0.6243
16999TIP3    H172488   1.247   0.402  98.152 -1.7146  1.1596 -0.3192
16999TIP3    H272489   1.225   0.254  98.176  0.6689  0.4379 -2.1447
17000TIP3   OH272490   0.524   2.064  98.863 -0.1662 -0.1394  0.1312
17000TIP3    H172491   0.449   2.123  98.870 -1.0023 -1.1660 -0.0149
17000TIP3    H272492   0.513   2.002  98.935 -0.6404 -1.5822 -1.1288
17001TIP3   OH272493   1.903   0.099 110.682 -0.0868  0.0122  0.6229
17001TIP3    H172494   1.887   0.010 110.650 -0.2628 -0.0909  0.9949
17001TIP3    H272495   1.922   0.150 110.603  1.4138 -0.6463  0.5199
17002TIP3   OH272496   0.204   2.396  63.601 -0.5424  0.1586  0.1166
17002TIP3    H172497   0.144   2.435  63.538  0.1503 -0.1881 -0.7830
17002TIP3    H272498   0.277   2.457  63.606  1.0964 -1.4159 -2.1621
17003TIP3   OH272499   1.687   1.739  90.224 -0.0213 -0.1345 -0.1344
17003TIP3    H172500   1.642   1.776  90.148 -1.3143 -0.0171  0.6798
17003TIP3    H272501   1.728   1.659  90.191 -2.2668 -1.1903 -0.5286
17004TIP3   OH272502   0.374   0.086   6.071  0.1949 -0.2965 -0.2734
17004TIP3    H172503   0.347   0.018   6.009 -0.4122 -0.8224  0.5445
17004TIP3    H272504   0.347   0.053   6.156 -0.2865  1.0568  0.1321
17005TIP3   OH272505   2.131   2.232  32.294  0.5969  0.0145 -0.2401
17005TIP3    H172506   2.165   2.188  32.216  2.1340 -0.4216  0.6229
17005TIP3    H272507   2.123   2.162  32.359 -2.3932  0.0264 -0.4581
17006TIP3   OH272508   0.310   0.792  28.595 -0.2094 -0.0558  0.1846
17006TIP3    H172509   0.236   0.788  28.655 -0.7364 -1.9240 -0.5183
17006TIP3    H272510   0.386   0.805  28.652 -0.7955 -0.8185  1.1970
17007TIP3   OH272511   2.000   0.332   8.468 -0.1928 -0.1769  0.3832
17007TIP3    H172512   1.950   0.304   8.546  1.8020 -0.8187  1.4976
17007TIP3    H272513   2.011   0.251   8.417 -1.1107  0.1606 -0.3907
17008TIP3   OH272514   2.536   0.417  88.343 -0.4311 -0.0029  0.0945
17008TIP3    H172515   2.561   0.334  88.382  0.4916 -0.1117 -0.7078
17008TIP3    H272516   2.565   0.411  88.252  1.0195  1.7479  0.3831
17009TIP3   OH272517   0.351   2.484 102.547 -0.3344  0.0314 -0.0402
17009TIP3    H172518   0.330   2.473 102.640 -2.4127 -1.1677 -0.6024
17009TIP3    H272519   0.444   2.506 102.547  0.1196 -1.4789  2.2449
17010TIP3   OH272520   0.898   0.572   7.035  0.3534  0.0050  0.4303
17010TIP3    H172521   0.821   0.553   6.982  0.0271 -2.7859  1.7566
17010TIP3    H272522   0.972   0.553   6.977  0.0143 -0.7269  0.2258
17011TIP3   OH272523   1.296   0.354  13.852 -0.2600 -0.3736 -0.1922
17011TIP3    H172524   1.390   0.375  13.851 -0.4402  0.4841  0.2465
17011TIP3    H272525   1.293   0.262  13.881  0.3331  0.5965  3.5305
17012TIP3   OH272526   0.164   1.644  17.256 -0.3809 -0.7533 -0.0368
17012TIP3    H172527   0.120   1.625  17.338  0.5862  0.6536  0.8523
17012TIP3    H272528   0.219   1.566  17.240 -0.0935 -0.7793  0.9922
17013TIP3   OH272529   1.100   1.385   7.363 -0.4000  0.5402  0.0144
17013TIP3    H172530   1.015   1.402   7.322 -0.8438 -0.4291  0.4942
17013TIP3    H272531   1.120   1.295   7.338  1.1658  1.1983 -1.2599
17014TIP3   OH272532   1.094   2.386  51.765 -0.3091  0.5544  0.1626
17014TIP3    H172533   1.038   2.428  51.830 -0.8996  0.4917 -0.2976
17014TIP3    H272534   1.094   2.293  51.789 -0.0673  0.6156  0.4056
17015TIP3   OH272535   1.728   1.471  92.131  0.2514  1.0919 -0.4493
17015TIP3    H172536   1.813   1.511  92.113  0.6175  0.3735 -0.3781
17015TIP3    H272537   1.736   1.438  92.221  0.0784  0.5832 -0.6169
17016TIP3   OH272538   1.116   2.509   1.771  0.4429  0.0434  0.1875
17016TIP3    H172539   1.036   2.463   1.798  0.1225  0.7121  0.4128
17016TIP3    H272540   1.097   2.542   1.684  1.1316 -1.2951 -0.5055
17017TIP3   OH272541   2.395   1.156  75.564  0.3664  0.0427  0.4411
17017TIP3    H172542   2.348   1.130  75.484 -1.2782 -0.8359  1.6358
17017TIP3    H272543   2.463   1.090  75.574 -1.4226 -1.7623  1.4219
17018TIP3   OH272544   0.124   1.395  77.411 -0.0211 -0.0844 -0.2621
17018TIP3    H172545   0.050   1.455  77.398  0.0168  0.0499  0.1215
17018TIP3    H272546   0.120   1.336  77.336  0.2140  0.6862 -0.8998
17019TIP3   OH272547   0.347   1.703  76.834  0.4964 -0.2911 -0.6488
17019TIP3    H172548   0.388   1.656  76.761  0.7064  0.2923 -0.9134
17019TIP3    H272549   0.277   1.754  76.792 -0.0704 -0.7583 -0.2939
17020TIP3   OH272550   0.326   2.683  28.144 -0.7287 -0.2694  0.5349
17020TIP3    H172551   0.300   2.661  28.234 -1.5037  0.3694  0.4783
17020TIP3    H272552   0.421   2.693  28.149 -0.6195 -1.4285  1.0159
17021TIP3   OH272553   2.595   2.084  27.783  0.0586 -0.0702  0.0841
17021TIP3    H172554   2.558   2.171  27.793  1.2326  0.7460 -2.0324
17021TIP3    H272555   2.622   2.058  27.872 -0.8390  1.4412  0.8298
17022TIP3   OH272556   1.854   1.378  26.437 -0.0739  0.1202  0.1914
17022TIP3    H172557   1.878   1.471  26.442  0.3373  0.0375 -0.2645
17022TIP3    H272558   1.900   1.345  26.360 -0.1306 -0.4918  0.4166
17023TIP3   OH272559   1.667   1.821 103.146 -0.2977 -0.2716  0.3335
17023TIP3    H172560   1.588   1.802 103.197 -0.6095  0.0878 -0.0083
17023TIP3    H272561   1.657   1.913 103.120  0.7094  0.0845  1.1328
17024TIP3   OH272562   1.968   0.468  16.545  0.2996  0.6494  0.3541
17024TIP3    H172563   1.966   0.524  16.467 -0.6247 -1.4691 -1.2656
17024TIP3    H272564   1.938   0.524  16.616 -0.5841  2.1928 -1.1609
17025TIP3   OH272565   0.503   0.169  22.669 -0.2259  0.1428 -0.2565
17025TIP3    H172566   0.568   0.232  22.638  1.4847 -2.2114 -1.8364
17025TIP3    H272567   0.419   0.208  22.643  0.7952  1.4163 -1.9278
17026TIP3   OH272568   2.500   2.240  20.813 -0.0270 -0.1052 -0.0355
17026TIP3    H172569   2.462   2.184  20.745  0.7048 -1.1733  0.4065
17026TIP3    H272570   2.506   2.184  20.890 -0.2314  0.8978  0.7358
17027TIP3   OH272571   1.046   2.553  78.699  0.2319  0.3088 -0.1660
17027TIP3    H172572   1.107   2.578  78.630 -1.9178 -1.2834 -2.8161
17027TIP3    H272573   1.087   2.478  78.742  0.3989 -0.4443 -1.5962
17028TIP3   OH272574   2.046   1.323  11.435  0.3191  0.3130 -0.1379
17028TIP3    H172575   2.035   1.399  11.491  0.1736 -0.3593  0.7646
17028TIP3    H272576   2.089   1.258  11.490  1.9542  0.2746 -1.3635
17029TIP3   OH272577   0.808   2.293   2.003  0.4967 -0.3528  0.1000
17029TIP3    H172578   0.787   2.383   1.980  1.4228 -0.0934  0.2238
17029TIP3    H272579   0.899   2.296   2.033  0.5127 -1.3114  0.1950
17030TIP3   OH272580   0.010   2.483  21.808  0.2301  0.0911 -0.1456
17030TIP3    H172581  -0.048   2.558  21.822 -1.4670 -0.6547 -2.5927
17030TIP3    H272582  -0.047   2.406  21.813  1.1629 -0.7448 -1.4878
17031TIP3   OH272583   0.423   2.365  41.800  0.3567 -0.0423  0.2586
17031TIP3    H172584   0.380   2.387  41.883  0.5360 -1.3589  0.7206
17031TIP3    H272585   0.447   2.273  41.809 -0.3702 -0.4531 -1.5936
17032TIP3   OH272586   0.216   1.143  12.277  0.3109  0.4888 -0.3344
17032TIP3    H172587   0.144   1.092  12.240  0.1893  0.0391  0.4891
17032TIP3    H272588   0.208   1.229  12.236 -0.9840  0.5903  0.0753
17033TIP3   OH272589   2.076   0.529  73.737  0.5586 -0.2788  0.1833
17033TIP3    H172590   2.050   0.549  73.827 -1.9259  0.9101 -0.7090
17033TIP3    H272591   2.149   0.589  73.719 -0.7459  1.5117  0.5724
17034TIP3   OH272592   1.645   1.865  93.914  0.4962  0.0659  0.1028
17034TIP3    H172593   1.553   1.892  93.906  1.0093  1.6118 -1.0022
17034TIP3    H272594   1.641   1.783  93.963 -1.4796  0.0536  0.0178
17035TIP3   OH272595   2.514   1.449  95.237 -0.1055 -0.0781 -0.0083
17035TIP3    H172596   2.510   1.359  95.205 -0.3845 -0.2308  0.4418
17035TIP3    H272597   2.465   1.499  95.173  0.7111 -0.1141 -0.6854
17036TIP3   OH272598   0.445   0.714  21.108 -0.3548  0.0810 -0.4797
17036TIP3    H172599   0.485   0.765  21.038 -0.2382 -0.7144 -1.0092
17036TIP3    H272600   0.515   0.702  21.172 -0.0083 -0.4944 -0.9568
17037TIP3   OH272601   0.645   0.635   2.056  0.0323  0.3062  0.2716
17037TIP3    H172602   0.672   0.585   1.979  1.1218  1.5634 -0.2018
17037TIP3    H272603   0.644   0.571   2.127  1.0588 -0.4557 -0.3734
17038TIP3   OH272604   0.665   1.343   1.932  0.2251  0.4124 -0.0913
17038TIP3    H172605   0.733   1.382   1.879 -1.1406  2.9710 -0.1155
17038TIP3    H272606   0.663   1.395   2.013 -0.8773 -0.3752  0.4330
17039TIP3   OH272607   2.493   2.151  24.467 -0.3292  0.1931  0.9007
17039TIP3    H172608   2.436   2.132  24.541 -1.4626 -0.2494 -0.0579
17039TIP3    H272609   2.438   2.198  24.405  0.6340  0.6574  0.3712
17040TIP3   OH272610   0.323   2.412 105.540 -0.1648 -0.1504 -0.6941
17040TIP3    H172611   0.330   2.437 105.632  1.3916 -0.1797 -0.7682
17040TIP3    H272612   0.230   2.417 105.521 -0.3705  1.4525  0.4387
17041TIP3   OH272613   1.838   1.745  48.180 -0.4319 -0.3606  1.4557
17041TIP3    H172614   1.784   1.743  48.258  0.0409  0.0657  1.7995
17041TIP3    H272615   1.918   1.791  48.206 -0.7805  0.8984  0.4106
17042TIP3   OH272616   1.589   0.818  57.862  1.1194  0.2759  0.9789
17042TIP3    H172617   1.540   0.749  57.818  3.1031 -0.8117  0.3297
17042TIP3    H272618   1.561   0.899  57.820 -0.4014 -0.2319  0.9549
17043TIP3   OH272619   1.138   2.668   7.938 -0.2919 -0.0254  0.1093
17043TIP3    H172620   1.155   2.733   8.006 -0.4805 -0.2350  0.3594
17043TIP3    H272621   1.223   2.657   7.894  0.0048 -0.4021  0.7608
17044TIP3   OH272622   0.613   1.907   7.591 -0.1767 -0.2992  0.2169
17044TIP3    H172623   0.686   1.932   7.647  0.4634 -0.7423 -0.4001
17044TIP3    H272624   0.601   1.813   7.608  0.6563 -0.6642 -1.0656
17045TIP3   OH272625   2.212   2.524 106.005 -0.6289 -0.0002  0.4868
17045TIP3    H172626   2.170   2.497 105.923  0.7449 -1.1594  0.1180
17045TIP3    H272627   2.225   2.442 106.053 -0.9442  0.6152  1.6430
17046TIP3   OH272628   1.453   0.361  27.607 -0.3898  0.5767 -0.2735
17046TIP3    H172629   1.413   0.439  27.569  0.8228  1.1200 -0.5092
17046TIP3    H272630   1.547   0.374  27.594 -0.0173  0.0776  1.5691
17047TIP3   OH272631   0.737   0.560  20.537  0.4378  0.1446  0.2203
17047TIP3    H172632   0.816   0.596  20.495 -0.8200  2.0022 -0.6929
17047TIP3    H272633   0.674   0.551  20.465 -1.4859  2.5437  1.4666
17048TIP3   OH272634   1.578   1.636  89.310  0.7799  0.0692 -0.1139
17048TIP3    H172635   1.527   1.618  89.231 -0.5578  1.5786  0.3722
17048TIP3    H272636   1.554   1.725  89.335  0.6166 -0.6052  2.3975
17049TIP3   OH272637   0.504   2.379  35.123  0.4221  0.3584  0.5541
17049TIP3    H172638   0.580   2.431  35.098  0.3513  0.9419  1.5147
17049TIP3    H272639   0.484   2.407  35.213 -0.2842 -0.5367  0.6890
17050TIP3   OH272640   2.503   0.884  16.327 -0.5194 -0.2684 -0.2808
17050TIP3    H172641   2.486   0.977  16.345  1.1997 -0.0375  0.2873
17050TIP3    H272642   2.469   0.838  16.404 -1.6832 -0.1755 -0.7115
17051TIP3   OH272643   1.046   0.612  93.299  0.1808 -0.0227  0.3684
17051TIP3    H172644   1.063   0.676  93.230 -0.4182 -1.1397 -0.8453
17051TIP3    H272645   0.954   0.624  93.322 -0.4156 -1.5728 -1.0870
17052TIP3   OH272646   1.460   0.692  24.967  0.1123  0.1358 -0.3110
17052TIP3    H172647   1.451   0.741  25.048  1.6364 -1.2301  0.7446
17052TIP3    H272648   1.470   0.601  24.994  1.5746 -0.2562 -1.9554
17053TIP3   OH272649   0.503   2.248  24.007  0.0918  0.2653  0.2503
17053TIP3    H172650   0.557   2.176  24.040 -1.0731 -0.1910  1.2111
17053TIP3    H272651   0.480   2.299  24.085  1.0258  1.8219 -0.4231
17054TIP3   OH272652   0.165   0.596  31.200  0.0590  0.0642  0.0247
17054TIP3    H172653   0.112   0.625  31.125 -0.8291 -1.0152  0.2140
17054TIP3    H272654   0.152   0.501  31.203 -1.2696  0.2349  2.5274
17055TIP3   OH272655   0.167   1.780  88.517 -0.1706 -0.3519  0.2624
17055TIP3    H172656   0.237   1.740  88.465  0.0118  0.8395 -0.4417
17055TIP3    H272657   0.194   1.765  88.608  0.3543 -0.9983  0.0070
17056TIP3   OH272658   0.946   2.019  90.014  0.2441 -0.3618 -0.3121
17056TIP3    H172659   0.952   1.933  90.057 -0.3512  0.0864  0.6986
17056TIP3    H272660   0.867   2.012  89.960  0.2804 -0.4999 -0.3472
17057TIP3   OH272661   0.452   1.505  79.359 -0.2524 -0.1282  0.4327
17057TIP3    H172662   0.439   1.572  79.292 -0.6368 -1.3953 -0.8297
17057TIP3    H272663   0.539   1.469  79.340 -0.0142  0.0613  1.1480
17058TIP3   OH272664   0.282   1.222  48.181  0.2791 -0.0329 -0.9051
17058TIP3    H172665   0.254   1.313  48.172  0.0126 -0.0594 -0.3776
17058TIP3    H272666   0.288   1.208  48.276 -0.1309 -0.6941 -0.9699
17059TIP3   OH272667   1.092   0.724  22.292 -0.6810 -0.1618 -0.1446
17059TIP3    H172668   1.134   0.640  22.274  1.5410  0.8989 -0.3131
17059TIP3    H272669   1.052   0.749  22.209  1.5302  0.4027 -1.1394
17060TIP3   OH272670   0.741   0.934  27.366 -0.1361 -0.2431  0.0087
17060TIP3    H172671   0.722   0.844  27.339  1.0043 -0.2204 -0.9476
17060TIP3    H272672   0.671   0.986  27.326  0.0200 -0.5374 -0.6517
17061TIP3   OH272673   1.134   0.078  82.430  0.1676  0.1653  0.2833
17061TIP3    H172674   1.097   0.008  82.376 -1.1137  1.0825 -0.0965
17061TIP3    H272675   1.129   0.045  82.519 -1.3353  0.1051  0.2123
17062TIP3   OH272676   0.241   1.646  25.197  0.3216  0.6187  0.1484
17062TIP3    H172677   0.177   1.704  25.156  0.6420  0.9341  0.0905
17062TIP3    H272678   0.191   1.595  25.260 -0.1846  0.1133 -0.6525
17063TIP3   OH272679   0.344   0.771  79.438 -0.1007 -0.4927  0.2492
17063TIP3    H172680   0.282   0.788  79.508  0.0506  0.3090  0.1936
17063TIP3    H272681   0.395   0.852  79.430  0.7641 -1.0383  0.1025
17064TIP3   OH272682   1.059   0.896  92.185  0.3488  0.1814 -0.3330
17064TIP3    H172683   1.013   0.940  92.256 -1.9272 -0.8659 -1.0478
17064TIP3    H272684   1.148   0.885  92.216 -0.5166 -0.0634  2.2751
17065TIP3   OH272685   0.370   1.209  34.045  0.0285  0.6894  0.2418
17065TIP3    H172686   0.427   1.229  34.119 -0.3341  0.3251  0.6294
17065TIP3    H272687   0.301   1.276  34.048 -0.5406  0.1020  0.8444
17066TIP3   OH272688   2.040   0.889  57.436 -0.5148 -0.2774  0.7229
17066TIP3    H172689   2.116   0.849  57.393  1.1804  0.7599  2.5278
17066TIP3    H272690   2.045   0.981  57.411 -2.9391 -0.6445 -1.4438
17067TIP3   OH272691   1.119   0.457   3.807 -0.3167 -0.3618  0.1346
17067TIP3    H172692   1.106   0.497   3.721 -0.9654  1.0979  0.8604
17067TIP3    H272693   1.042   0.402   3.819  0.0550 -1.0187 -0.4413
17068TIP3   OH272694   2.525   0.177  78.793 -0.0867  0.3900  0.7023
17068TIP3    H172695   2.444   0.139  78.758  0.7469 -0.1235 -0.7850
17068TIP3    H272696   2.579   0.192  78.716  0.4500  2.6937  1.4546
17069TIP3   OH272697   0.619   2.124  73.610  0.0268 -0.0246  0.0916
17069TIP3    H172698   0.600   2.032  73.593 -0.7718  0.4483 -1.9718
17069TIP3    H272699   0.533   2.163  73.628  0.3851  0.2922  1.1624
17070TIP3   OH272700   0.817   2.542  29.203  0.2749  0.1883 -0.4065
17070TIP3    H172701   0.765   2.522  29.281  0.8130 -1.8321 -0.5313
17070TIP3    H272702   0.755   2.537  29.131  0.3262 -0.7808 -0.3970
17071TIP3   OH272703   0.789   2.060  96.877 -0.3403 -0.4695 -0.2222
17071TIP3    H172704   0.838   2.131  96.836 -0.8121 -0.0089  0.0127
17071TIP3    H272705   0.744   2.100  96.950  0.8634 -1.3740  1.0774
17072TIP3   OH272706   0.129   1.086 109.863 -0.6056  0.2109  0.1046
17072TIP3    H172707   0.193   1.053 109.800 -0.2155  0.0786  0.5608
17072TIP3    H272708   0.121   1.179 109.844  0.1384  0.3433  0.3904
17073TIP3   OH272709   1.693   0.657   4.215  0.0900 -0.0068  0.0000
17073TIP3    H172710   1.747   0.726   4.252 -0.9833  0.7852  0.1281
17073TIP3    H272711   1.753   0.583   4.204  0.9129  0.4413  1.2703
17074TIP3   OH272712   0.241   0.887 100.779 -0.3721 -0.2919 -0.4556
17074TIP3    H172713   0.258   0.968 100.826 -0.1902  0.2457 -1.4186
17074TIP3    H272714   0.178   0.840 100.834 -0.0219  0.2301  0.3963
17075TIP3   OH272715   1.273   0.985  91.754  0.2278 -0.0828  0.2163
17075TIP3    H172716   1.179   0.970  91.747  0.0140  1.3650 -0.5181
17075TIP3    H272717   1.289   1.062  91.698  1.6767  0.3370  1.1534
17076TIP3   OH272718   1.217   0.230  29.657 -0.1321 -0.5360 -0.7067
17076TIP3    H172719   1.138   0.253  29.704  1.2745 -0.8966  2.0476
17076TIP3    H272720   1.197   0.146  29.614 -1.8159  0.3784 -1.8016
17077TIP3   OH272721   1.915   2.372  84.118  0.7694  0.8230 -0.2936
17077TIP3    H172722   1.920   2.367  84.214 -0.8009 -4.1743 -0.1691
17077TIP3    H272723   2.002   2.401  84.090  2.7211 -1.5940  2.6431
17078TIP3   OH272724   0.017   0.754  34.938 -0.1435 -0.1228 -0.4274
17078TIP3    H172725   0.047   0.815  35.005  1.1775 -0.3698 -0.7685
17078TIP3    H272726  -0.059   0.797  34.898  0.3200  0.9547 -0.1697
17079TIP3   OH272727   1.806   2.302   8.131  0.3152  0.3315  0.1871
17079TIP3    H172728   1.874   2.266   8.188  0.1763 -1.0770 -0.4994
17079TIP3    H272729   1.816   2.254   8.049 -1.3965  0.2332  0.0120
17080TIP3   OH272730   2.152   1.759  24.179 -0.1575  0.0130  0.2073
17080TIP3    H172731   2.205   1.759  24.099 -0.7966 -1.0498 -0.2272
17080TIP3    H272732   2.143   1.667  24.203 -1.4023  0.1988  0.5412
17081TIP3   OH272733   2.330   2.652  79.321 -0.4775  0.3483  0.0550
17081TIP3    H172734   2.370   2.707  79.389 -0.8457 -1.1710  1.5601
17081TIP3    H272735   2.383   2.669  79.243  0.5630  1.4299  0.9551
17082TIP3   OH272736   0.302   2.307  94.585 -0.6271  0.0164 -0.0531
17082TIP3    H172737   0.350   2.348  94.514 -1.5420 -0.5015 -0.9936
17082TIP3    H272738   0.369   2.279  94.647  0.2334 -0.1360 -1.0331
17083TIP3   OH272739   1.378   0.900  88.573 -0.5886 -0.4020  0.2974
17083TIP3    H172740   1.289   0.936  88.562  0.2071  1.3374 -0.9547
17083TIP3    H272741   1.394   0.906  88.667 -2.0926 -1.5477  0.6695
17084TIP3   OH272742   1.587   0.758  88.862  0.1385  0.5994 -0.5352
17084TIP3    H172743   1.588   0.713  88.947 -0.3271  1.2258 -0.1799
17084TIP3    H272744   1.495   0.762  88.838  0.1963  1.0861 -0.6997
17085TIP3   OH272745   0.106   2.673  97.107 -0.3255  0.0793  0.6684
17085TIP3    H172746   0.066   2.611  97.047 -0.5518  0.8807 -0.0302
17085TIP3    H272747   0.038   2.691  97.172 -0.3122 -0.2834  0.7789
17086TIP3   OH272748   0.982   0.639 104.297 -0.5039 -0.2506  0.5029
17086TIP3    H172749   0.952   0.614 104.210  1.1459  0.3098 -0.2634
17086TIP3    H272750   0.992   0.735 104.293 -1.6599 -0.0378  1.7420
17087TIP3   OH272751   0.550   2.520  13.543  0.2733  0.7097  0.2514
17087TIP3    H172752   0.646   2.524  13.540  0.2663  0.7322  0.0240
17087TIP3    H272753   0.522   2.559  13.460  0.0977 -0.4776 -0.2672
17088TIP3   OH272754   0.562   1.523   7.955 -0.5480  0.4755  0.1690
17088TIP3    H172755   0.571   1.473   8.036  2.3669 -2.5419 -1.7303
17088TIP3    H272756   0.480   1.492   7.916  0.4532 -1.8787 -0.2336
17089TIP3   OH272757   2.117   2.007  86.214  0.4840  0.0086  0.6992
17089TIP3    H172758   2.133   1.952  86.291 -1.6337  0.6443  1.6699
17089TIP3    H272759   2.046   1.964  86.167  1.6337 -0.2774 -0.8625
17090TIP3   OH272760   0.427   1.806  19.623 -0.2168  0.2695 -0.0768
17090TIP3    H172761   0.459   1.888  19.586 -0.4010  0.4436  0.1433
17090TIP3    H272762   0.461   1.738  19.565  0.6043  0.4421  0.2000
17091TIP3   OH272763   2.574   0.118   9.799 -0.9561 -0.2371  0.4044
17091TIP3    H172764   2.603   0.036   9.839 -1.8096 -0.6791  0.1321
17091TIP3    H272765   2.517   0.091   9.727 -0.4443  0.5795 -0.3323
17092TIP3   OH272766   2.106   0.078  20.500  0.2460 -0.6240 -0.1520
17092TIP3    H172767   2.016   0.082  20.467  0.6012  1.8790 -1.0253
17092TIP3    H272768   2.145   0.161  20.473  2.7646 -1.5296  0.4365
17093TIP3   OH272769   0.216   2.041   2.622  0.4602  0.0003 -0.4765
17093TIP3    H172770   0.148   2.109   2.627 -0.0058 -0.5502  1.0041
17093TIP3    H272771   0.181   1.978   2.559 -0.7868 -0.6419  0.7890
17094TIP3   OH272772   2.629   0.720   6.580 -0.2483 -0.6512  0.2781
17094TIP3    H172773   2.566   0.665   6.535  0.0330 -1.1647  0.5022
17094TIP3    H272774   2.712   0.703   6.536 -0.3886  0.6014 -0.5198
17095TIP3   OH272775   0.314   2.287  80.350  0.0147 -0.1081  0.4630
17095TIP3    H172776   0.220   2.307  80.346  0.0820  0.2840 -3.0053
17095TIP3    H272777   0.354   2.366  80.385 -0.8921 -0.0787  1.4822
17096TIP3   OH272778   0.919   0.136  22.849  0.0107  0.6866 -0.2436
17096TIP3    H172779   0.868   0.142  22.768 -1.8949 -0.2803  0.8103
17096TIP3    H272780   0.937   0.043  22.859 -1.2482  0.5493  1.2362
17097TIP3   OH272781   0.693   2.264  22.702  0.0014  0.2109  0.0128
17097TIP3    H172782   0.679   2.169  22.708  0.0329  0.2649  1.1140
17097TIP3    H272783   0.607   2.302  22.719 -0.1052  0.3817 -0.8666
17098TIP3   OH272784   1.828   1.141 106.334 -0.3747  0.0495 -0.1148
17098TIP3    H172785   1.911   1.177 106.303 -0.6038 -0.7399 -1.7683
17098TIP3    H272786   1.765   1.213 106.322 -0.3826 -0.1161 -1.2088
17099TIP3   OH272787   0.587   2.496  17.224  0.4127 -0.6776  0.1994
17099TIP3    H172788   0.592   2.423  17.163 -1.7113 -1.3827  0.7885
17099TIP3    H272789   0.594   2.574  17.169 -1.1551 -1.2945 -0.9352
17100TIP3   OH272790   2.033   0.916  63.255 -0.7574  0.4192  0.6427
17100TIP3    H172791   2.128   0.911  63.252 -0.7821 -0.1901  0.7149
17100TIP3    H272792   2.009   0.971  63.180 -0.3611  0.4239  0.5156
17101TIP3   OH272793   2.032   1.514   0.613 -0.3691  0.4057 -0.6010
17101TIP3    H172794   2.089   1.488   0.540 -0.4602  1.6340 -1.1380
17101TIP3    H272795   1.960   1.451   0.611 -0.8040  0.8956 -2.1174
17102TIP3   OH272796   2.546   1.012  87.774  0.7437 -0.3909 -0.1532
17102TIP3    H172797   2.615   0.991  87.836  0.9321  1.1955  0.2125
17102TIP3    H272798   2.558   1.104  87.754 -0.9943 -0.1812 -0.4288
17103TIP3   OH272799   1.725   0.362  27.578  0.4805 -0.2364 -0.5230
17103TIP3    H172800   1.788   0.306  27.534  1.1461 -0.3106  0.5015
17103TIP3    H272801   1.771   0.395  27.655 -0.1807  1.0374 -0.6462
17104TIP3   OH272802   1.409   2.465   4.890  0.4943 -0.2582  0.2422
17104TIP3    H172803   1.430   2.374   4.869  0.9136 -0.0500 -0.2799
17104TIP3    H272804   1.489   2.514   4.866  0.0193  0.3358 -0.1732
17105TIP3   OH272805   1.137   2.198   6.895  0.2769  0.4384  0.3684
17105TIP3    H172806   1.120   2.190   6.989 -1.2570 -1.8414 -0.0238
17105TIP3    H272807   1.060   2.241   6.860  0.4496  0.4653  0.0189
17106TIP3   OH272808   1.400   2.099  89.592 -0.3744  0.2640 -0.2985
17106TIP3    H172809   1.405   2.134  89.503 -0.2901  0.0859 -0.3668
17106TIP3    H272810   1.478   2.044  89.600 -1.0870 -0.8151 -0.5891
17107TIP3   OH272811   0.585   1.786  98.322  0.5327  0.5542 -0.0689
17107TIP3    H172812   0.668   1.758  98.284  1.4565 -0.1936  2.2958
17107TIP3    H272813   0.609   1.859  98.379 -0.6577  1.1755 -0.3412
17108TIP3   OH272814   2.268   1.924  37.489 -0.1749  0.2090 -0.0007
17108TIP3    H172815   2.278   2.016  37.465 -1.3201  0.3462 -0.0001
17108TIP3    H272816   2.174   1.908  37.484  0.0690 -1.1298 -0.5749
17109TIP3   OH272817   1.666   1.976 105.818 -0.0535  0.1818 -0.5236
17109TIP3    H172818   1.747   1.931 105.842 -0.1393  0.2494 -0.1044
17109TIP3    H272819   1.643   2.028 105.895  1.3127  2.8369 -1.7487
17110TIP3   OH272820   1.992   0.519  87.660 -0.2938 -0.3711 -0.1916
17110TIP3    H172821   2.087   0.508  87.666 -0.4652 -1.7741  0.3647
17110TIP3    H272822   1.957   0.444  87.708 -1.6982 -0.5578 -1.4647
17111TIP3   OH272823   1.210   0.065 104.806 -0.6158  0.4634 -0.4896
17111TIP3    H172824   1.208   0.110 104.722  0.3627 -0.4954 -1.0500
17111TIP3    H272825   1.254  -0.018 104.788 -1.5845 -0.3380  0.7075
17112TIP3   OH272826   1.780   0.067   3.264 -0.0107 -0.1670  0.0670
17112TIP3    H172827   1.793   0.133   3.195 -0.5658 -0.4373 -0.2992
17112TIP3    H272828   1.868   0.037   3.284  0.3726  1.4161  0.9690
17113TIP3   OH272829   2.300   1.480  94.008  0.7166 -0.1879  0.5827
17113TIP3    H172830   2.380   1.430  93.991  0.2686 -0.8958  0.5060
17113TIP3    H272831   2.229   1.423  93.977  0.1881  0.4774  0.5418
17114TIP3   OH272832   1.539   0.553   7.722 -0.2372  0.0115 -0.0716
17114TIP3    H172833   1.567   0.461   7.727  0.8095  0.3480  0.3467
17114TIP3    H272834   1.557   0.588   7.809 -2.4598  0.1274  0.4063
17115TIP3   OH272835   0.214   0.391  35.716 -0.2022 -0.3161 -0.4665
17115TIP3    H172836   0.150   0.338  35.763 -0.6534  1.5294  1.0882
17115TIP3    H272837   0.263   0.436  35.784  2.2373 -0.9921 -1.6537
17116TIP3   OH272838   0.025   2.032  79.923 -0.3451  0.7449  0.9416
17116TIP3    H172839   0.092   2.052  79.989  0.8516  1.2476 -0.3509
17116TIP3    H272840   0.057   2.075  79.843 -1.6946  0.0982  0.0050
17117TIP3   OH272841   1.119   1.628  27.000 -0.3091 -0.6044  0.3224
17117TIP3    H172842   1.109   1.723  26.998  1.9846 -0.3185 -0.2277
17117TIP3    H272843   1.180   1.611  27.072  0.0274 -1.5680 -0.1667
17118TIP3   OH272844   2.223   2.174  78.057 -0.4437  0.2318 -0.1718
17118TIP3    H172845   2.239   2.222  77.975  0.4597  0.7192  0.2773
17118TIP3    H272846   2.164   2.230  78.107 -1.1893 -0.1758 -0.5765
17119TIP3   OH272847   0.599   1.015  19.792  0.3744 -0.1473 -0.0780
17119TIP3    H172848   0.509   1.032  19.762  0.5118 -1.3080 -1.2508
17119TIP3    H272849   0.597   1.035  19.885 -0.7196  1.2744 -0.3615
17120TIP3   OH272850   0.138   1.075  18.166 -0.2911 -0.3837  0.1081
17120TIP3    H172851   0.192   0.995  18.167 -2.3630 -1.8859  2.0707
17120TIP3    H272852   0.089   1.069  18.084  0.3892 -0.5228 -0.2996
17121TIP3   OH272853   1.859   1.586  16.795  0.4311 -0.1591 -0.4441
17121TIP3    H172854   1.816   1.523  16.737 -1.1224 -0.5268  1.0194
17121TIP3    H272855   1.923   1.534  16.843  2.0181  0.2266 -2.0453
17122TIP3   OH272856   1.767   0.658   7.617 -0.0034 -0.1586  0.3044
17122TIP3    H172857   1.824   0.628   7.687  0.1937 -1.2789 -0.3116
17122TIP3    H272858   1.679   0.649   7.652  0.1032 -0.4813  0.4937
17123TIP3   OH272859   1.269   0.864 104.295  0.1650 -0.0279 -0.1866
17123TIP3    H172860   1.309   0.827 104.374  0.8654  2.5250  0.7637
17123TIP3    H272861   1.178   0.880 104.319 -0.1244 -1.0270 -0.5781
17124TIP3   OH272862   0.683   0.411 100.785  0.3451 -0.8133 -0.1552
17124TIP3    H172863   0.668   0.470 100.860  1.5902  0.9991 -1.2602
17124TIP3    H272864   0.775   0.423 100.763  0.3128 -2.2747 -1.2174
17125TIP3   OH272865   0.554   0.989  75.805  0.2960 -0.0796 -0.2012
17125TIP3    H172866   0.569   0.896  75.791 -1.3047 -0.4565  0.4082
17125TIP3    H272867   0.480   1.010  75.748 -1.9784 -0.1347  2.5295
17126TIP3   OH272868   2.595   0.944  13.440 -0.1906 -0.1674  0.3606
17126TIP3    H172869   2.530   0.873  13.442 -0.5876  0.2047  0.7020
17126TIP3    H272870   2.571   0.996  13.364 -1.1715  0.7840  1.2919
17127TIP3   OH272871   0.233   1.248   6.346 -0.6590 -0.1409 -0.2014
17127TIP3    H172872   0.260   1.241   6.438 -0.1982  0.8196 -0.2478
17127TIP3    H272873   0.226   1.342   6.330  0.3527 -0.2488 -1.4578
17128TIP3   OH272874   2.397   1.787 103.098 -0.2390 -0.1978  0.4460
17128TIP3    H172875   2.316   1.823 103.134  0.1321  0.0697  1.0313
17128TIP3    H272876   2.462   1.855 103.112  0.2652 -0.7210  0.7089
17129TIP3   OH272877   1.624   0.793  14.782 -0.0384  0.3444  0.0623
17129TIP3    H172878   1.590   0.724  14.725 -0.5095 -0.1821  0.9671
17129TIP3    H272879   1.682   0.844  14.726 -0.1750 -0.4138 -0.7800
17130TIP3   OH272880   1.531   1.327 100.190 -0.1576  0.0707 -0.2280
17130TIP3    H172881   1.614   1.279 100.186 -0.3823 -0.2213 -2.1473
17130TIP3    H272882   1.531   1.383 100.112 -1.1405  1.1417  0.5011
17131TIP3   OH272883   2.273   1.032  17.686 -0.2254 -0.0622 -0.0781
17131TIP3    H172884   2.184   1.069  17.680  0.4583  2.3384  2.4441
17131TIP3    H272885   2.330   1.108  17.681  1.5673 -1.2915  0.7383
17132TIP3   OH272886   1.660   1.512  23.234 -0.0999  0.2142 -0.2969
17132TIP3    H172887   1.714   1.436  23.216 -0.6975  0.0151 -1.3627
17132TIP3    H272888   1.716   1.587  23.211  0.3700  0.0907  0.4302
17133TIP3   OH272889   2.357   1.434 108.379  0.2959  0.4638  0.1913
17133TIP3    H172890   2.416   1.503 108.410  1.2147  0.6152 -1.6926
17133TIP3    H272891   2.413   1.378 108.325 -0.8362 -0.7075  0.1759
17134TIP3   OH272892   2.661   1.972 108.921 -0.5199  0.2962 -0.7971
17134TIP3    H172893   2.622   1.885 108.913  0.9695 -0.8343  2.5326
17134TIP3    H272894   2.755   1.957 108.907  0.0016  0.9570  1.6094
17135TIP3   OH272895   0.579   0.971  99.514 -0.0410 -0.2474  0.1739
17135TIP3    H172896   0.531   1.026  99.452 -0.1094 -1.0619 -0.5098
17135TIP3    H272897   0.565   0.882  99.483  0.0025 -0.6634  1.3165
17136TIP3   OH272898   0.956   0.778  82.555  0.3920  0.1903  0.2957
17136TIP3    H172899   0.939   0.870  82.535  1.2858  0.3206  0.0912
17136TIP3    H272900   1.027   0.780  82.619 -0.5763 -0.3214  1.4087
17137TIP3   OH272901   1.923   0.337  22.493  0.2227  0.6915  0.0870
17137TIP3    H172902   1.890   0.248  22.478  1.6177  0.1013  0.3580
17137TIP3    H272903   1.994   0.326  22.555 -0.8831  2.2717  1.7238
17138TIP3   OH272904   0.178   2.261   4.233 -0.3889 -0.2661  0.1126
17138TIP3    H172905   0.139   2.348   4.231 -1.1015 -0.5435  1.0204
17138TIP3    H272906   0.140   2.216   4.157 -0.2624  0.1124 -0.1767
17139TIP3   OH272907   2.274   0.762 102.146  0.6426  0.4010  0.0240
17139TIP3    H172908   2.187   0.769 102.107  0.0714  0.5516  1.2536
17139TIP3    H272909   2.278   0.672 102.179 -0.4165  1.2857  2.9111
17140TIP3   OH272910   1.765   2.320  81.455  0.1609 -0.3618  0.3127
17140TIP3    H172911   1.681   2.301  81.498  0.8814 -0.1190  1.8652
17140TIP3    H272912   1.760   2.271  81.372 -0.3151 -2.8279  1.6855
17141TIP3   OH272913   0.238   2.163 102.970 -0.1331 -0.1581  0.3249
17141TIP3    H172914   0.312   2.130 103.022 -0.0219 -0.1348  0.1813
17141TIP3    H272915   0.274   2.235 102.919 -0.2391 -0.1893  0.2057
17142TIP3   OH272916   2.278   1.813  28.459  0.2379 -0.3218 -0.2708
17142TIP3    H172917   2.365   1.834  28.492 -0.3201 -1.0213  1.7852
17142TIP3    H272918   2.239   1.898  28.438  0.6066  0.1714  0.9771
17143TIP3   OH272919   1.410   0.761 106.478  0.1241 -0.0779  0.2564
17143TIP3    H172920   1.416   0.773 106.573  1.1518  0.5250  0.1359
17143TIP3    H272921   1.456   0.837 106.442  1.3166 -1.2150 -0.6842
17144TIP3   OH272922   0.993   1.543  24.149 -0.2598 -0.1358  0.2317
17144TIP3    H172923   0.902   1.532  24.177 -0.3194 -1.9429 -0.5156
17144TIP3    H272924   1.044   1.539  24.231 -0.9040  2.4291  0.8181
17145TIP3   OH272925   0.997   0.506  20.840 -0.2715  0.0323 -0.4701
17145TIP3    H172926   1.078   0.463  20.869 -0.9430 -0.2821  1.0368
17145TIP3    H272927   1.024   0.558  20.765  1.4550  0.3575  0.3084
17146TIP3   OH272928   0.127   1.476  33.510  0.1986 -0.3263  0.3256
17146TIP3    H172929   0.106   1.570  33.513 -0.3349 -0.4557  2.1450
17146TIP3    H272930   0.089   1.446  33.428  0.1730  1.0074 -0.1855
17147TIP3   OH272931   1.119   0.025 100.875  0.1207 -0.3262  0.3713
17147TIP3    H172932   1.066  -0.045 100.912 -0.8194  0.0476 -0.2499
17147TIP3    H272933   1.117   0.094 100.942  0.4602 -0.5991  0.6684
17148TIP3   OH272934   2.003   2.055  77.863 -0.0500  0.0122 -0.3283
17148TIP3    H172935   2.076   2.052  77.802  0.9851  0.3724  0.8394
17148TIP3    H272936   1.925   2.048  77.808  0.7996  1.4499 -1.7855
17149TIP3   OH272937   0.072   2.634  22.148 -0.3270  0.4247 -0.0980
17149TIP3    H172938   0.111   2.669  22.228  0.7885 -1.2818  0.1654
17149TIP3    H272939   0.133   2.565  22.120 -2.2049 -1.0419 -0.7542
17150TIP3   OH272940   1.042   0.196  33.107 -0.4247  0.2982  0.2533
17150TIP3    H172941   1.112   0.204  33.171  1.8503  2.2755 -2.2186
17150TIP3    H272942   1.032   0.102  33.093  1.4853 -0.0544  0.9972
17151TIP3   OH272943   0.477   1.456  25.504  0.0664  0.1990  0.0692
17151TIP3    H172944   0.421   1.514  25.557  0.1610  0.5340 -0.1923
17151TIP3    H272945   0.497   1.507  25.426  0.3585 -0.0977 -0.0514
17152TIP3   OH272946   2.323   1.660  13.710 -0.6183 -0.0388  0.2412
17152TIP3    H172947   2.391   1.629  13.771  0.4425 -0.8231 -1.2802
17152TIP3    H272948   2.252   1.691  13.767  1.0643  0.9820  1.8997
17153TIP3   OH272949   2.000   0.081  81.945 -0.1002  0.2013  0.3709
17153TIP3    H172950   2.039   0.156  81.901  2.1057 -0.0719  1.6815
17153TIP3    H272951   1.991   0.015  81.877 -2.2563  1.6352 -0.8461
17154TIP3   OH272952   0.948   0.406  99.200  0.0685 -0.0866 -0.0147
17154TIP3    H172953   0.906   0.447  99.275  0.6438 -1.2503  0.9872
17154TIP3    H272954   0.925   0.313  99.208  0.0138 -0.2054 -1.3711
17155TIP3   OH272955   1.861   1.545  85.717 -0.7487  0.4616  0.0737
17155TIP3    H172956   1.800   1.537  85.644  0.1452  0.0487 -0.6374
17155TIP3    H272957   1.944   1.572  85.677 -0.3779  0.7416  0.9967
17156TIP3   OH272958   1.189   1.259 101.722 -0.0475  0.0121 -0.2311
17156TIP3    H172959   1.263   1.200 101.739 -0.2675 -0.2924 -0.3260
17156TIP3    H272960   1.126   1.240 101.791  1.2799  2.5557  1.8732
17157TIP3   OH272961   2.683   2.646  76.510  0.2516  0.4764  0.0960
17157TIP3    H172962   2.632   2.566  76.518  0.5202  0.4020  1.2852
17157TIP3    H272963   2.657   2.698  76.587  2.2552  0.2509  0.9694
17158TIP3   OH272964   0.453   1.942  97.008 -0.2925  0.3981  0.0532
17158TIP3    H172965   0.467   1.894  97.090  0.5677  0.3462 -0.1203
17158TIP3    H272966   0.416   2.026  97.036 -2.2666 -0.4999  0.3267
17159TIP3   OH272967   2.487   0.829  20.056 -0.3000  0.0662 -0.0801
17159TIP3    H172968   2.434   0.861  20.130  0.0780 -0.3395  0.3717
17159TIP3    H272969   2.576   0.823  20.091 -0.0744  0.0823 -0.6367
17160TIP3   OH272970   0.996   0.785  36.270 -0.3700  0.6559  0.2045
17160TIP3    H172971   1.053   0.845  36.320 -1.3482  1.8530 -0.0842
17160TIP3    H272972   0.936   0.749  36.336 -0.2360  0.5156  0.2545
17161TIP3   OH272973   0.345   1.138 101.809 -0.1755  0.2812  0.1241
17161TIP3    H172974   0.382   1.193 101.740 -1.8324  0.4396 -0.7012
17161TIP3    H272975   0.250   1.146 101.796 -0.4972 -0.3406  1.9230
17162TIP3   OH272976   1.991   1.105 100.786 -0.6402  0.0455 -0.2497
17162TIP3    H172977   2.016   1.044 100.856  0.1855 -1.1532 -1.5373
17162TIP3    H272978   1.902   1.079 100.762 -0.6784  0.0283 -0.0867
17163TIP3   OH272979   1.634   0.081  76.467 -0.0121 -0.1904  0.3116
17163TIP3    H172980   1.566   0.135  76.506 -0.1583 -0.8837  1.0288
17163TIP3    H272981   1.716   0.116  76.501  0.1290  1.4483 -1.5201
17164TIP3   OH272982   2.207   2.483  32.694  0.1294 -0.2136 -0.0568
17164TIP3    H172983   2.214   2.487  32.599 -1.8757 -0.7133 -0.2717
17164TIP3    H272984   2.252   2.402  32.718 -0.8363 -0.9951 -0.7912
17165TIP3   OH272985   1.172   1.699 105.787 -0.4161  0.1865 -0.1573
17165TIP3    H172986   1.165   1.628 105.851 -1.4513  1.0797  0.7651
17165TIP3    H272987   1.175   1.779 105.841 -1.1830  0.9546 -1.2063
17166TIP3   OH272988   2.572   0.217  96.194 -0.2951  0.1058  0.0930
17166TIP3    H172989   2.538   0.252  96.276 -1.3109  1.0748 -0.7095
17166TIP3    H272990   2.610   0.293  96.149 -1.1047 -0.0953 -0.9813
17167TIP3   OH272991   0.393   0.836  28.867  0.6821 -0.2922 -0.4731
17167TIP3    H172992   0.363   0.756  28.911  1.0391  0.6407  1.5796
17167TIP3    H272993   0.481   0.814  28.836  0.5400 -0.8879 -0.4662
17168TIP3   OH272994   0.745   0.055  17.493 -0.5751 -0.5127 -0.4841
17168TIP3    H172995   0.785   0.098  17.418 -0.8667  2.7119  1.0391
17168TIP3    H272996   0.799  -0.022  17.508  3.2595  1.9109 -0.4203
17169TIP3   OH272997   2.375   1.177  38.301 -0.1271  0.3507 -0.0943
17169TIP3    H172998   2.361   1.251  38.361 -0.9861  0.6769 -0.6770
17169TIP3    H272999   2.386   1.218  38.216  2.0898 -0.0424 -0.0581
17170TIP3   OH273000   0.635   2.297  33.513 -0.4540  0.0314  0.1510
17170TIP3    H173001   0.661   2.339  33.431  0.4410 -0.5581  0.1196
17170TIP3    H273002   0.579   2.225  33.487  0.5625 -0.7125 -0.0184
17171TIP3   OH273003   2.390   0.359  26.302  0.8859  0.0593  0.0285
17171TIP3    H173004   2.422   0.280  26.258 -0.5516 -1.3758  1.3925
17171TIP3    H273005   2.422   0.350  26.392 -2.4425 -1.0668  1.2682
17172TIP3   OH273006   1.953   0.469 103.077  0.0432  0.8202 -0.3877
17172TIP3    H173007   2.023   0.525 103.111  0.4674 -0.3124  0.6857
17172TIP3    H273008   1.953   0.393 103.134 -1.3687  0.2875 -1.0344
17173TIP3   OH273009   2.387   0.902  39.783 -0.2489 -0.3981  0.0984
17173TIP3    H173010   2.309   0.849  39.799 -3.6764  3.9044 -0.4743
17173TIP3    H273011   2.426   0.915  39.870 -2.5095  0.4030  1.0581
17174TIP3   OH273012   1.786   2.181  46.090 -0.4473 -0.2880 -0.0694
17174TIP3    H173013   1.876   2.197  46.120 -0.7071  0.8271  0.1321
17174TIP3    H273014   1.732   2.241  46.141 -1.6543 -2.6213  1.5895
17175TIP3   OH273015   0.935   2.157   0.773 -0.4671 -0.0814 -0.6697
17175TIP3    H173016   0.881   2.222   0.818  0.2319 -1.1173  1.8572
17175TIP3    H273017   0.877   2.081   0.763 -0.4645 -0.0376 -0.9967
17176TIP3   OH273018   1.875   2.657  16.174 -0.2588  0.5567  0.1056
17176TIP3    H173019   1.853   2.567  16.196 -0.4432  0.5073 -0.2725
17176TIP3    H273020   1.798   2.690  16.129 -0.1407  0.8625  0.1247
17177TIP3   OH273021   1.100   1.615  85.099  0.6574  0.2045 -0.3177
17177TIP3    H173022   1.074   1.696  85.055  1.9299  0.1744 -1.1892
17177TIP3    H273023   1.102   1.550  85.029 -0.1242 -0.5368  0.3327
17178TIP3   OH273024   0.264   0.774  27.973 -0.4758  0.3930 -0.0688
17178TIP3    H173025   0.313   0.848  28.009 -0.0700 -0.8227  2.0664
17178TIP3    H273026   0.172   0.803  27.976 -0.4302  0.4778  1.7581
17179TIP3   OH273027   0.611   2.208  86.259 -0.0737  0.0311 -0.1172
17179TIP3    H173028   0.637   2.226  86.169  4.0301  0.0191  0.8519
17179TIP3    H273029   0.674   2.142  86.289  0.3672  1.8427  3.4627
17180TIP3   OH273030   1.230   1.268 100.768  0.1310 -0.1472 -0.4015
17180TIP3    H173031   1.219   1.178 100.800 -0.4827 -0.0062 -0.1937
17180TIP3    H273032   1.284   1.259 100.690  1.1756 -0.5676  0.3452
17181TIP3   OH273033   1.277   1.550  86.336 -0.0289 -0.5444  0.4226
17181TIP3    H173034   1.330   1.589  86.266 -0.8884  0.1395  0.1320
17181TIP3    H273035   1.230   1.478  86.293 -1.8922  0.9547 -0.1878
17182TIP3   OH273036   2.668   1.686   7.007 -0.0697 -0.2091  0.7825
17182TIP3    H173037   2.624   1.744   7.069 -1.9078 -0.9876  0.2681
17182TIP3    H273038   2.720   1.627   7.062 -1.7223 -0.9298  1.6289
17183TIP3   OH273039   0.299   2.376   0.987 -0.1209 -0.3067 -0.0398
17183TIP3    H173040   0.328   2.467   0.994 -1.0687 -0.0099  0.1777
17183TIP3    H273041   0.243   2.375   0.910  1.5556 -1.1839 -1.3109
17184TIP3   OH273042   1.511   0.928  37.857  0.0914  0.7237 -0.3778
17184TIP3    H173043   1.505   1.004  37.915  1.7650  1.0479 -0.5873
17184TIP3    H273044   1.522   0.966  37.770  0.0060  0.2324 -0.6066
17185TIP3   OH273045   0.726   2.295  25.706 -0.0694 -0.0270  0.6105
17185TIP3    H173046   0.711   2.369  25.646  1.3084 -1.7402 -2.0534
17185TIP3    H273047   0.773   2.334  25.780  1.9780  1.6199 -1.3915
17186TIP3   OH273048   0.330   0.745  90.699 -0.2181 -0.4310  0.0362
17186TIP3    H173049   0.423   0.750  90.722 -0.3241  2.0036  0.2106
17186TIP3    H273050   0.322   0.794  90.617 -1.3202 -0.8128 -0.1045
17187TIP3   OH273051   2.210   2.375  95.896 -0.5193 -0.0044  0.1140
17187TIP3    H173052   2.304   2.392  95.896 -0.2570 -1.3608  0.0878
17187TIP3    H273053   2.198   2.305  95.960 -1.3237 -0.7458 -0.8090
17188TIP3   OH273054   1.606   0.116  30.291 -0.3370 -0.3563 -0.0417
17188TIP3    H173055   1.512   0.122  30.275 -0.5907  0.4204  1.5150
17188TIP3    H273056   1.614   0.054  30.364  0.5669 -2.2005 -1.6374
17189TIP3   OH273057   1.459   2.257  17.585 -0.5042 -0.1837 -0.0382
17189TIP3    H173058   1.423   2.204  17.514  0.7368 -0.4939 -0.4543
17189TIP3    H273059   1.387   2.315  17.610 -1.1767 -0.5432 -1.0747
17190TIP3   OH273060   2.227   0.138  47.258 -0.0752 -0.0626  0.5876
17190TIP3    H173061   2.258   0.214  47.208  3.4123 -1.0708  0.9986
17190TIP3    H273062   2.161   0.098  47.202 -3.0762  3.8454  0.8851
17191TIP3   OH273063   1.841   0.976  26.314 -0.0734  0.2220 -0.4160
17191TIP3    H173064   1.933   1.004  26.311 -0.0817  0.2969  0.0586
17191TIP3    H273065   1.816   0.967  26.222  1.4234 -3.0459 -0.6750
17192TIP3   OH273066   1.424   0.650   3.134  0.3028  0.1978 -0.2562
17192TIP3    H173067   1.462   0.623   3.050 -0.1048 -0.0494 -0.3653
17192TIP3    H273068   1.474   0.602   3.199 -0.0071 -0.3500 -0.4164
17193TIP3   OH273069   1.956   0.174 109.600  0.2346 -0.4791  0.0799
17193TIP3    H173070   1.886   0.202 109.542 -0.4969  0.7157  1.4638
17193TIP3    H273071   1.920   0.185 109.688  1.8831 -0.5854  0.8109
17194TIP3   OH273072   2.074   0.198  25.432 -0.1535 -0.3039  0.3787
17194TIP3    H173073   2.002   0.156  25.478 -0.4376 -0.1604  0.0764
17194TIP3    H273074   2.093   0.139  25.359 -0.4870  0.0277  0.0108
17195TIP3   OH273075   2.435   1.982  63.493  0.0764 -0.1621  0.3836
17195TIP3    H173076   2.422   2.019  63.406  2.3288 -0.6543 -0.2184
17195TIP3    H273077   2.458   1.890  63.478  1.1702 -0.0920  1.4153
17196TIP3   OH273078   1.725   2.511  35.175  0.1425 -0.0138 -0.0428
17196TIP3    H173079   1.716   2.425  35.135  1.6325 -0.5192  0.6348
17196TIP3    H273080   1.779   2.497  35.252 -2.5059  0.9734  2.1430
17197TIP3   OH273081   1.711   1.558  14.759 -0.7660 -0.5389  0.6198
17197TIP3    H173082   1.757   1.493  14.812 -0.4616 -1.0115 -0.2083
17197TIP3    H273083   1.776   1.589  14.696 -0.8076  0.8343  1.2081
17198TIP3   OH273084   1.861   1.276  79.242  0.1135  0.1773 -0.2494
17198TIP3    H173085   1.802   1.265  79.167  0.2528  0.4948 -0.4035
17198TIP3    H273086   1.913   1.353  79.221  0.1281  0.2914  0.1903
17199TIP3   OH273087   2.628   1.391  89.088 -0.0747  0.4622 -0.4892
17199TIP3    H173088   2.631   1.297  89.108  0.0605  0.2547 -1.4338
17199TIP3    H273089   2.549   1.402  89.035 -1.7545  1.4070  2.0317
17200TIP3   OH273090   0.743   2.347  85.138 -0.8049  0.9305  0.0240
17200TIP3    H173091   0.651   2.362  85.159 -0.8299  1.2207 -0.2958
17200TIP3    H273092   0.790   2.386  85.212 -0.9124  1.4915 -0.1998
17201TIP3   OH273093   0.039   2.300 103.814 -0.0723 -0.0507  0.3657
17201TIP3    H173094   0.076   2.275 103.729 -1.1486 -0.2768 -0.0509
17201TIP3    H273095  -0.055   2.283 103.805 -0.4582  1.6266  0.9882
17202TIP3   OH273096   1.395   0.516  58.522  0.9809  0.4190 -0.6309
17202TIP3    H173097   1.414   0.578  58.452  0.2180 -0.0673 -1.2733
17202TIP3    H273098   1.354   0.441  58.479  0.9124 -0.0869  0.2723
17203TIP3   OH273099   1.332   0.660  94.599  0.1563 -0.0426 -0.8753
17203TIP3    H173100   1.308   0.677  94.508 -2.6697 -1.1117 -0.4267
17203TIP3    H273101   1.404   0.598  94.593  1.0625  1.0705 -2.3425
17204TIP3   OH273102   1.657   1.384  75.115 -0.3552  0.1473  0.1551
17204TIP3    H173103   1.715   1.321  75.157  1.8810  1.7999 -0.2472
17204TIP3    H273104   1.673   1.373  75.021 -1.7765 -0.3129 -0.0533
17205TIP3   OH273105   0.111   0.325 111.424  0.0781  0.1134  0.4238
17205TIP3    H173106   0.138   0.250 111.372 -1.6597  1.8974 -3.4857
17205TIP3    H273107   0.019   0.308 111.446 -0.8663  1.6233 -1.9500
17206TIP3   OH273108   1.903   2.219  23.764  0.2727  0.2469 -0.7202
17206TIP3    H173109   1.855   2.176  23.692 -0.5316  0.5545 -0.3772
17206TIP3    H273110   1.835   2.249  23.824  0.7990  2.1915 -1.0378
17207TIP3   OH273111   1.454   2.488  82.484 -0.1571  0.4549  0.0447
17207TIP3    H173112   1.390   2.442  82.429  0.2268  1.1316 -1.0156
17207TIP3    H273113   1.537   2.478  82.437  0.4804 -0.2088  1.2789
17208TIP3   OH273114   1.859   0.047  25.874 -0.2153  0.4850  0.0515
17208TIP3    H173115   1.769   0.017  25.864  0.3109 -1.0774 -0.1856
17208TIP3    H273116   1.885   0.015  25.960 -0.4827  2.6533  1.0248
17209TIP3   OH273117   0.449   2.679   6.812 -0.0656  0.1804  0.2028
17209TIP3    H173118   0.478   2.607   6.868  1.1856 -0.1907 -0.8708
17209TIP3    H273119   0.408   2.636   6.737 -1.9471  0.6773  0.9007
17210TIP3   OH273120   0.049   1.147  13.263 -0.0085 -0.3626 -0.0408
17210TIP3    H173121  -0.030   1.098  13.240 -1.7721  1.7806  1.0570
17210TIP3    H273122   0.071   1.195  13.183 -0.2356 -0.4497 -0.1571
17211TIP3   OH273123   2.566   2.432  20.298  0.7478  0.0786 -0.2566
17211TIP3    H173124   2.630   2.375  20.340  1.4720  0.4634 -0.8067
17211TIP3    H273125   2.483   2.413  20.342  0.7694 -2.0458 -1.0371
17212TIP3   OH273126   2.457   2.465  19.441 -0.0054  0.3480  0.2471
17212TIP3    H173127   2.490   2.436  19.356  1.0981  1.5413  0.2334
17212TIP3    H273128   2.365   2.486  19.425 -0.1334 -0.5778 -0.3478
17213TIP3   OH273129   1.934   1.708  73.683 -0.9272  0.2258  0.0671
17213TIP3    H173130   1.956   1.739  73.596 -1.6909  1.8578  0.4228
17213TIP3    H273131   1.898   1.785  73.728 -1.3335 -0.7818  1.5400
17214TIP3   OH273132   0.129   2.312  34.733  0.6695 -0.3137  0.5818
17214TIP3    H173133   0.198   2.303  34.667 -0.4476  0.5071 -0.7410
17214TIP3    H273134   0.173   2.353  34.808  1.8770 -0.9504  0.2470
17215TIP3   OH273135   0.424   1.340  52.764  0.9074  0.3055  0.7337
17215TIP3    H173136   0.437   1.422  52.812 -1.0500  2.1383 -1.6044
17215TIP3    H273137   0.432   1.365  52.672 -1.8672 -1.6516 -0.1483
17216TIP3   OH273138   1.810   0.141   3.647  0.2846  0.2039 -1.1052
17216TIP3    H173139   1.761   0.108   3.722  0.1200  0.5585 -1.0520
17216TIP3    H273140   1.743   0.164   3.583  0.3472  1.0581 -0.8836
17217TIP3   OH273141   1.718   1.850  11.582 -0.0058  0.0804  0.2683
17217TIP3    H173142   1.727   1.915  11.652  0.4316  0.6979 -0.3445
17217TIP3    H273143   1.637   1.875  11.536 -1.9466 -2.0260  2.2455
17218TIP3   OH273144   1.346   1.974   6.119  0.4077 -0.0944  0.6597
17218TIP3    H173145   1.386   2.060   6.129  1.6801 -0.7428  1.3725
17218TIP3    H273146   1.369   1.947   6.030 -1.5695  1.0384 -0.2667
17219TIP3   OH273147   1.786   0.891  99.697 -0.0854 -0.1698  0.3608
17219TIP3    H173148   1.742   0.814  99.731  1.5100 -0.9956  0.6316
17219TIP3    H273149   1.759   0.895  99.605 -1.5235 -0.0242  0.7594
17220TIP3   OH273150   1.820   0.592  89.400 -0.2117 -0.3988  0.3731
17220TIP3    H173151   1.816   0.660  89.468 -0.8282 -0.3881  0.3278
17220TIP3    H273152   1.729   0.568  89.384  0.0552 -2.3389  1.4791
17221TIP3   OH273153   1.838   2.525  75.403 -0.0304 -0.3861  0.0563
17221TIP3    H173154   1.782   2.461  75.446  0.8597 -0.8513  0.5734
17221TIP3    H273155   1.802   2.534  75.315  0.0066 -1.8580 -0.1439
17222TIP3   OH273156   1.048   2.521  37.476 -0.0147  0.1029 -0.4420
17222TIP3    H173157   1.010   2.463  37.410 -0.7075  0.4874 -0.3905
17222TIP3    H273158   0.974   2.574  37.506  0.5953  0.9864 -0.4697
17223TIP3   OH273159   1.915   1.211   3.048  0.1631 -0.0496 -0.0360
17223TIP3    H173160   1.906   1.258   3.131 -0.5432 -0.2204 -0.0085
17223TIP3    H273161   2.010   1.203   3.035  0.2899  1.0219  0.1486
17224TIP3   OH273162   0.942   0.572  87.805 -0.3941 -0.0717 -0.3033
17224TIP3    H173163   0.913   0.490  87.765 -1.2481 -0.6688  1.4306
17224TIP3    H273164   0.892   0.578  87.887  2.6961  0.0202  1.7352
17225TIP3   OH273165   2.662   2.509  16.012  0.2473  0.1348  0.2138
17225TIP3    H173166   2.751   2.523  15.980  1.1026 -0.5892  2.1026
17225TIP3    H273167   2.607   2.513  15.934  2.0909 -0.7287 -1.2117
17226TIP3   OH273168   1.948   0.778 111.362 -0.0391  0.1152 -0.4741
17226TIP3    H173169   1.907   0.719 111.299 -2.1509 -0.5729  1.3930
17226TIP3    H273170   2.027   0.732 111.390  0.1768 -0.1987 -1.5488
17227TIP3   OH273171   1.703   1.581  51.872 -0.6067 -0.7735 -0.3467
17227TIP3    H173172   1.668   1.506  51.824  0.1493 -0.6750 -1.0880
17227TIP3    H273173   1.771   1.544  51.928  1.0465 -0.4685 -2.0353
17228TIP3   OH273174   2.014   0.884 109.706  0.2225  0.0480 -0.1393
17228TIP3    H173175   2.051   0.811 109.656 -1.1580 -0.9216  0.1713
17228TIP3    H273176   2.072   0.893 109.782  0.3409 -0.8185 -0.1141
17229TIP3   OH273177   1.053   0.285  23.800  0.2729  0.2213  0.2440
17229TIP3    H173178   0.967   0.267  23.762 -1.1892  2.2358  2.3419
17229TIP3    H273179   1.077   0.372  23.766  1.0858  0.0611  0.3719
17230TIP3   OH273180   2.419   1.855  20.519  0.5152 -0.1692  0.1195
17230TIP3    H173181   2.384   1.771  20.490 -2.6033  1.4724 -1.4016
17230TIP3    H273182   2.485   1.878  20.454  0.0844 -0.6424 -0.4869
17231TIP3   OH273183   2.259   1.905  89.643 -0.7301 -0.0367  0.4877
17231TIP3    H173184   2.262   1.933  89.551  1.7370 -0.3142  0.4083
17231TIP3    H273185   2.244   1.986  89.692  0.2165  0.5100 -0.0816
17232TIP3   OH273186   1.896   1.361  81.917  0.4893 -0.3178  0.4882
17232TIP3    H173187   1.859   1.303  81.850  0.7992 -0.3543  0.3461
17232TIP3    H273188   1.865   1.325  82.000  0.6230 -0.6471  0.3930
17233TIP3   OH273189   0.330   0.550  88.394 -0.3507  0.1746  0.0875
17233TIP3    H173190   0.289   0.581  88.475  0.9361  2.2903  0.0131
17233TIP3    H273191   0.417   0.522  88.421 -0.3556 -0.3017 -0.3864
17234TIP3   OH273192   0.211   1.710  21.009  0.0020 -0.2179 -0.1830
17234TIP3    H173193   0.151   1.676  20.943  0.2575 -0.8621 -0.0851
17234TIP3    H273194   0.298   1.691  20.975  0.1327 -1.1015  0.6077
17235TIP3   OH273195   1.866   1.694 110.203 -0.8310  0.2074 -0.4156
17235TIP3    H173196   1.820   1.743 110.271  0.1799  0.3474  0.1923
17235TIP3    H273197   1.799   1.675 110.137 -2.3252 -1.6147  1.4885
17236TIP3   OH273198   2.551   2.209  34.837  0.2107  0.5737 -0.1123
17236TIP3    H173199   2.598   2.209  34.920 -0.0433 -1.3360  0.0775
17236TIP3    H273200   2.617   2.188  34.772 -0.3169 -2.3992  0.1899
17237TIP3   OH273201   1.359   1.907  84.119 -0.3647 -0.4001 -0.4270
17237TIP3    H173202   1.308   1.844  84.170  0.4200  0.4528  1.4731
17237TIP3    H273203   1.295   1.949  84.062 -1.6877  0.1035  1.3465
17238TIP3   OH273204   2.289   2.214 102.227  0.5886  0.0515 -0.4113
17238TIP3    H173205   2.351   2.161 102.277  0.7819  1.0672  0.4573
17238TIP3    H273206   2.310   2.196 102.135  0.8670 -1.1064 -0.1400
17239TIP3   OH273207   2.064   2.211  75.544  0.7529  0.4265 -0.3677
17239TIP3    H173208   2.055   2.267  75.622  1.3851  0.2314 -0.1532
17239TIP3    H273209   2.098   2.128  75.578 -1.8422 -0.7478 -0.4227
17240TIP3   OH273210   2.230   2.652  82.287  0.2518 -0.3714  0.3948
17240TIP3    H173211   2.177   2.718  82.331 -0.1221 -0.3123 -0.1265
17240TIP3    H273212   2.249   2.587  82.354  2.3929  1.2630  1.4877
17241TIP3   OH273213   0.738   0.685  15.904 -0.3281  0.3745  0.1562
17241TIP3    H173214   0.669   0.747  15.879 -0.8548 -0.8266 -1.5670
17241TIP3    H273215   0.692   0.602  15.916  0.4827  0.1035  1.6377
17242TIP3   OH273216   2.664   1.551   6.602  0.3075 -0.1589 -0.0217
17242TIP3    H173217   2.694   1.467   6.638 -2.0767 -0.2341  2.0798
17242TIP3    H273218   2.589   1.575   6.657 -2.8530  0.4824 -4.1332
17243TIP3   OH273219   0.610   0.314  91.681  0.3273 -0.0973 -0.2627
17243TIP3    H173220   0.564   0.367  91.745 -1.8257 -0.3743 -1.4906
17243TIP3    H273221   0.607   0.225  91.716 -0.7729 -0.2343 -0.6703
17244TIP3   OH273222   1.161   2.549  91.150  0.0101 -0.3998 -0.1203
17244TIP3    H173223   1.215   2.497  91.090  0.8311  1.6449 -1.2643
17244TIP3    H273224   1.224   2.585  91.213 -0.0446  1.4087 -1.0255
17245TIP3   OH273225   0.732   0.943  75.116  0.1352 -0.4823 -0.6346
17245TIP3    H173226   0.733   0.986  75.202 -0.6190 -0.3280 -0.6925
17245TIP3    H273227   0.750   0.851  75.134  1.7092 -0.1701 -0.4850
17246TIP3   OH273228   2.122   0.649  30.066  0.4762  0.2029  0.0876
17246TIP3    H173229   2.184   0.703  30.114  0.9782 -0.4825  0.2125
17246TIP3    H273230   2.154   0.560  30.075  0.6092  0.0482 -1.5437
17247TIP3   OH273231   1.051   0.933  15.299  0.0434  0.1635 -0.0288
17247TIP3    H173232   1.107   1.009  15.316  0.6105 -0.0507 -0.8564
17247TIP3    H273233   1.038   0.935  15.204 -0.5485 -0.3541  0.0419
17248TIP3   OH273234   0.905   0.765   3.378  0.0046 -0.1900 -0.0265
17248TIP3    H173235   0.880   0.705   3.307 -1.0669  0.4097 -0.1775
17248TIP3    H273236   0.822   0.798   3.411  0.5489  0.4790  0.6996
17249TIP3   OH273237   2.595   0.793  30.024 -0.1981  0.4170 -0.4203
17249TIP3    H173238   2.609   0.781  30.117  0.0016  0.9358 -0.3809
17249TIP3    H273239   2.533   0.866  30.018 -0.1715  0.4185 -0.6948
17250TIP3   OH273240   2.560   2.440 101.582 -0.2331 -0.2950  0.3926
17250TIP3    H173241   2.623   2.459 101.512  1.2942  1.5762  2.1318
17250TIP3    H273242   2.544   2.525 101.623 -1.5799 -1.2304  1.9313
17251TIP3   OH273243   2.464   1.915   7.907 -0.1597  0.1725 -0.5397
17251TIP3    H173244   2.501   1.953   7.987 -1.4903  0.2538  0.0584
17251TIP3    H273245   2.473   1.821   7.918  1.3310  0.2114 -1.1424
17252TIP3   OH273246   1.155   0.691  29.061  0.1369  0.2999  0.0585
17252TIP3    H173247   1.085   0.721  29.003  0.5323  0.3671 -0.3944
17252TIP3    H273248   1.111   0.639  29.128 -0.4885  1.3393  0.4755
17253TIP3   OH273249   0.039   0.178  15.307  0.2722 -0.2450  0.2653
17253TIP3    H173250   0.032   0.131  15.224  0.2396 -0.0829  0.1755
17253TIP3    H273251   0.088   0.257  15.285 -0.1706  0.0391  0.2993
17254TIP3   OH273252   0.998   0.003  29.953  0.0096  0.3874  0.1571
17254TIP3    H173253   1.087   0.036  29.968  0.3058  0.5970 -1.7958
17254TIP3    H273254   0.948   0.033  30.029  1.0533  2.4858  0.0824
17255TIP3   OH273255   1.520   0.174  92.374 -0.2614 -0.5578  0.1256
17255TIP3    H173256   1.516   0.138  92.286 -2.6328  0.3842 -0.2403
17255TIP3    H273257   1.463   0.117  92.426 -0.2060 -0.1503  0.6442
17256TIP3   OH273258   1.189   2.578  85.871  0.2531  0.0705  0.4673
17256TIP3    H173259   1.246   2.508  85.838  0.6791  1.0461 -0.9945
17256TIP3    H273260   1.245   2.656  85.868  0.1158  0.3358  3.0348
17257TIP3   OH273261   0.702   0.745  89.207 -0.2452 -0.6999 -0.4921
17257TIP3    H173262   0.637   0.711  89.146 -0.2196  0.9768 -1.5192
17257TIP3    H273263   0.659   0.820  89.249  0.8741  0.2421 -0.9618
17258TIP3   OH273264   0.076   2.271  47.648  0.4898 -0.0895  0.1112
17258TIP3    H173265   0.031   2.310  47.723  1.1671  0.4269  0.2512
17258TIP3    H273266   0.021   2.294  47.573 -0.0226 -0.3361  0.4039
17259TIP3   OH273267   0.292   1.792  16.856  0.1836 -0.0348 -0.1491
17259TIP3    H173268   0.268   1.820  16.944  0.4417  1.0658 -0.4098
17259TIP3    H273269   0.232   1.840  16.799 -0.6577 -1.5060 -0.5443
17260TIP3   OH273270   1.027   2.680 105.309  0.4941 -0.3193 -0.4970
17260TIP3    H173271   1.051   2.594 105.273 -1.5347 -0.7108 -1.0684
17260TIP3    H273272   0.947   2.663 105.359 -0.7426  1.4301 -1.7727
17261TIP3   OH273273   2.261   2.120 100.829 -0.0537 -0.2316  0.1044
17261TIP3    H173274   2.295   2.095 100.915  0.0863  2.8336  1.0781
17261TIP3    H273275   2.173   2.082 100.826  1.4406 -4.1534 -0.4177
17262TIP3   OH273276   1.072   1.502  93.616 -0.0222 -0.4773  0.1488
17262TIP3    H173277   0.994   1.548  93.585  0.4774  0.2424 -0.0593
17262TIP3    H273278   1.048   1.468  93.702 -0.8485 -1.0006 -0.2795
17263TIP3   OH273279   0.648   1.754  23.238  0.7998  0.3872  0.0130
17263TIP3    H173280   0.645   1.683  23.173 -0.2751  0.7483 -0.3529
17263TIP3    H273281   0.567   1.803  23.224  0.2922  0.1771  1.9637
17264TIP3   OH273282   1.708   0.537  84.958 -0.2863 -0.3244  0.1348
17264TIP3    H173283   1.685   0.523  85.050 -2.8074 -0.4670 -0.4404
17264TIP3    H273284   1.778   0.602  84.961 -0.4473 -0.1716  2.1524
17265TIP3   OH273285   0.330   0.358   6.070 -0.2861 -0.0429 -0.1463
17265TIP3    H173286   0.252   0.373   6.017  0.7776 -0.0876 -1.7975
17265TIP3    H273287   0.351   0.266   6.057  0.3396  0.0944 -0.1651
17266TIP3   OH273288   0.688   0.380  89.252  0.3131 -0.1620  0.3045
17266TIP3    H173289   0.603   0.365  89.294  0.4193 -2.2423 -0.1147
17266TIP3    H273290   0.684   0.330  89.171  1.5489  0.6093 -0.2661
17267TIP3   OH273291   1.769   2.550   7.865 -0.5304  0.1699  0.7430
17267TIP3    H173292   1.710   2.533   7.938  0.2858  1.7014  1.8290
17267TIP3    H273293   1.759   2.644   7.848 -0.4377 -0.0837 -0.9093
17268TIP3   OH273294   1.543   0.478   3.306  0.1202  0.4977  0.2611
17268TIP3    H173295   1.637   0.493   3.310 -0.0563  1.6176  0.5230
17268TIP3    H273296   1.532   0.386   3.330  1.2245  0.0612 -0.7844
17269TIP3   OH273297   1.927   0.703  76.573  0.0538  0.1896  0.5272
17269TIP3    H173298   1.980   0.674  76.498 -0.2388  0.6843  0.1207
17269TIP3    H273299   1.916   0.625  76.627 -2.0008 -0.8848 -1.2854
17270TIP3   OH273300   0.916   1.990  13.869 -0.4467 -0.1714 -0.2668
17270TIP3    H173301   0.975   1.996  13.944 -0.4809  2.2727 -0.3488
17270TIP3    H273302   0.970   2.013  13.794 -1.6039  3.3603 -0.2011
17271TIP3   OH273303   0.339   1.435  89.666 -0.7768  0.2718 -0.3958
17271TIP3    H173304   0.409   1.385  89.624  0.4108  0.0704  1.6869
17271TIP3    H273305   0.264   1.376  89.667  0.2364 -1.0678  0.9010
17272TIP3   OH273306   1.074   2.334 110.700 -0.2466  0.7644 -0.0640
17272TIP3    H173307   1.123   2.278 110.760 -1.1724  0.0794  0.0803
17272TIP3    H273308   1.111   2.314 110.613  0.0668  0.6420  0.0963
17273TIP3   OH273309   1.925   0.689  27.075  0.3541 -0.4245  0.0149
17273TIP3    H173310   1.940   0.782  27.056 -1.4080 -0.2640 -0.7346
17273TIP3    H273311   2.000   0.664  27.129  0.5015  1.6284  0.8679
17274TIP3   OH273312   1.180   0.663  73.679  0.1201  0.3801  0.4199
17274TIP3    H173313   1.270   0.688  73.657 -0.0338  0.1381 -0.5460
17274TIP3    H273314   1.146   0.623  73.599 -0.0572 -1.8137  1.5154
17275TIP3   OH273315   2.206   2.377  84.142  0.0494  0.7611 -0.1127
17275TIP3    H173316   2.200   2.417  84.229  1.2422  1.7785 -0.4679
17275TIP3    H273317   2.298   2.349  84.135  0.1945  1.4869 -1.3716
17276TIP3   OH273318   0.669   0.491  27.920 -0.2356  0.1753 -0.2079
17276TIP3    H173319   0.702   0.577  27.946  0.1806  0.2721 -1.0181
17276TIP3    H273320   0.741   0.431  27.943 -0.7141 -0.0397  0.8031
17277TIP3   OH273321   2.585   1.413  80.139  0.0838 -0.7305 -0.2556
17277TIP3    H173322   2.623   1.338  80.094 -0.1253  0.1982 -2.0743
17277TIP3    H273323   2.622   1.489  80.094 -0.1120  0.2589  1.1954
17278TIP3   OH273324   0.571   1.294  82.902 -0.4909 -0.5610  0.4008
17278TIP3    H173325   0.597   1.223  82.843 -1.0340  0.0795 -0.6548
17278TIP3    H273326   0.487   1.266  82.938  0.2940 -1.3956  1.6729
17279TIP3   OH273327   1.288   0.441  32.962 -0.1827 -0.1089 -0.2717
17279TIP3    H173328   1.300   0.439  33.057 -1.9692 -0.3005 -0.0169
17279TIP3    H273329   1.303   0.533  32.938  0.2381 -0.0501  0.1938
17280TIP3   OH273330   1.525   2.194 102.403  0.8432  0.2051 -0.0668
17280TIP3    H173331   1.534   2.105 102.439 -0.6845  0.3557  0.7479
17280TIP3    H273332   1.542   2.184 102.309  0.9283 -0.8987  0.0531
17281TIP3   OH273333   2.579   2.663  89.202 -0.0223  0.4029 -0.3504
17281TIP3    H173334   2.519   2.592  89.180  1.5869 -0.7270 -1.3745
17281TIP3    H273335   2.596   2.653  89.296  0.2604 -0.6556 -0.5056
17282TIP3   OH273336   0.597   2.279  20.458  0.2100  0.2897 -0.6955
17282TIP3    H173337   0.572   2.188  20.471  2.3091 -0.1239  0.9739
17282TIP3    H273338   0.514   2.326  20.452 -0.9608 -1.3723  1.2569
17283TIP3   OH273339   1.051   1.192  86.018  0.5713  0.3473  0.3140
17283TIP3    H173340   1.055   1.176  85.923  0.1636  0.7160  0.2298
17283TIP3    H273341   0.968   1.154  86.045  1.0816 -0.5340  0.6757
17284TIP3   OH273342   1.305   1.130  31.469  0.6285 -0.0800 -0.2692
17284TIP3    H173343   1.280   1.190  31.539  3.0515  0.3251  0.3295
17284TIP3    H273344   1.258   1.049  31.489 -1.1921  0.9779 -0.0189
17285TIP3   OH273345   0.825   1.819   2.934  0.1011  0.1606  0.7272
17285TIP3    H173346   0.834   1.866   3.017  1.7102  2.6066 -0.7100
17285TIP3    H273347   0.761   1.869   2.885  2.2209  1.3044 -1.0366
17286TIP3   OH273348   0.140   0.884  13.596  0.4261  0.1776 -0.3221
17286TIP3    H173349   0.073   0.922  13.539  0.2814  0.3052 -0.0700
17286TIP3    H273350   0.222   0.899  13.550  0.2726 -0.0866 -0.6928
17287TIP3   OH273351   2.562   1.034   7.845  0.0631  0.0413  0.6458
17287TIP3    H173352   2.500   1.082   7.791  0.9679 -0.0178 -0.4788
17287TIP3    H273353   2.525   1.038   7.933 -0.1579  2.3200  0.5078
17288TIP3   OH273354   0.809   0.085  98.614  0.1766 -0.1296 -0.0403
17288TIP3    H173355   0.724   0.098  98.572  0.3336 -0.6551 -0.5502
17288TIP3    H273356   0.805   0.135  98.695 -0.6193 -0.1487 -0.0612
17289TIP3   OH273357   0.992   1.978   9.168 -0.1705  0.4187 -0.1971
17289TIP3    H173358   0.934   1.931   9.228  2.8877 -1.5929  1.4877
17289TIP3    H273359   1.050   1.910   9.133  0.6000  2.1449 -2.5278
17290TIP3   OH273360   0.629   2.503  87.957  0.1375  1.0521  0.1232
17290TIP3    H173361   0.576   2.448  87.900 -0.6177  1.1650  0.7094
17290TIP3    H273362   0.667   2.443  88.021 -1.2570  1.2840  1.2059
17291TIP3   OH273363   1.131   2.019  96.792  0.5944 -0.1649 -0.0091
17291TIP3    H173364   1.202   1.965  96.826  0.0891 -0.6685  0.2587
17291TIP3    H273365   1.146   2.105  96.830 -0.4009 -0.8930  2.2149
17292TIP3   OH273366   2.479   1.652  16.470 -0.0208 -0.2500  0.2490
17292TIP3    H173367   2.535   1.645  16.548  0.2948 -1.2925 -0.0478
17292TIP3    H273368   2.501   1.736  16.432  2.2455 -1.1068 -0.4961
17293TIP3   OH273369   0.478   0.356  32.282 -0.1036  0.3615  0.2192
17293TIP3    H173370   0.535   0.287  32.316 -0.3298 -0.2629 -0.6196
17293TIP3    H273371   0.528   0.436  32.292 -0.2315  0.2486  2.1695
17294TIP3   OH273372   0.500   1.079  33.173 -0.4263  0.8374  0.9222
17294TIP3    H173373   0.523   1.088  33.081  2.3738 -2.4063  1.0976
17294TIP3    H273374   0.568   1.130  33.219  1.0091 -1.2093  1.2029
17295TIP3   OH273375   2.317   2.053 102.616  0.2167 -0.0137 -0.1725
17295TIP3    H173376   2.376   2.093 102.680 -0.5846 -0.3324  0.7765
17295TIP3    H273377   2.296   1.968 102.653 -0.2983 -0.1790 -0.8389
17296TIP3   OH273378   1.849   1.801  81.962  0.0395  0.4725 -0.0254
17296TIP3    H173379   1.875   1.717  82.000 -2.2749  0.2715  1.3551
17296TIP3    H273380   1.867   1.865  82.030  0.0965  0.8007 -0.3520
17297TIP3   OH273381   1.357   1.422   1.995  0.2277  0.0710 -0.1567
17297TIP3    H173382   1.304   1.458   2.067 -0.3369 -0.2712 -0.4000
17297TIP3    H273383   1.447   1.427   2.028  0.2185  2.0492 -0.3169
17298TIP3   OH273384   1.945   0.727 108.513 -0.6923 -0.2985 -0.6210
17298TIP3    H173385   1.876   0.754 108.573  0.4411  0.3694  0.4000
17298TIP3    H273386   1.985   0.651 108.555  0.6554  0.6775 -0.0762
17299TIP3   OH273387   0.270   2.247  29.913 -0.0225 -0.5754 -0.0949
17299TIP3    H173388   0.346   2.202  29.876 -0.5176 -1.1821 -0.4029
17299TIP3    H273389   0.283   2.241  30.008 -0.2226 -1.6522 -0.1189
17300TIP3   OH273390   0.067   1.256  85.026  0.6475 -0.1920  0.1114
17300TIP3    H173391   0.061   1.295  85.114  0.9562  0.7413 -0.2549
17300TIP3    H273392   0.016   1.176  85.031  1.1104 -0.4358  1.3021
17301TIP3   OH273393   1.431   1.638 110.577  0.6581 -0.0291  0.3185
17301TIP3    H173394   1.375   1.632 110.654 -0.4188  0.1474 -0.4306
17301TIP3    H273395   1.402   1.717 110.532  1.0710 -0.2946 -0.4332
17302TIP3   OH273396   0.021   1.871  63.072  0.0675 -0.0721  0.6917
17302TIP3    H173397  -0.029   1.925  63.133  0.9307  0.5613  0.8679
17302TIP3    H273398   0.036   1.927  62.996 -0.3448 -0.5981  0.2143
17303TIP3   OH273399   0.565   1.458  25.847 -0.0377 -0.4436 -0.6759
17303TIP3    H173400   0.623   1.395  25.889 -0.7411 -0.4102  0.3842
17303TIP3    H273401   0.523   1.505  25.920  0.4161  1.2194 -1.4285
17304TIP3   OH273402   1.060   2.609 110.526  0.0259  0.8056  0.2610
17304TIP3    H173403   1.149   2.602 110.493  0.5444 -0.5660  1.8521
17304TIP3    H273404   1.064   2.577 110.616 -2.2186 -0.1303  0.1090
17305TIP3   OH273405   2.414   1.531  89.499 -0.0239 -0.5602 -0.1732
17305TIP3    H173406   2.485   1.520  89.563  0.7554  0.5269 -0.8098
17305TIP3    H273407   2.459   1.549  89.416 -1.0416 -0.3652 -0.7026
17306TIP3   OH273408   2.553   0.023  97.250 -0.1150  0.2211  0.1756
17306TIP3    H173409   2.462   0.052  97.263 -0.1750 -0.6497  2.0267
17306TIP3    H273410   2.572  -0.030  97.328  1.5713 -0.6580 -0.7935
17307TIP3   OH273411   1.521   0.500   9.231 -0.4777 -0.0818  0.5606
17307TIP3    H173412   1.539   0.430   9.294  2.1755 -1.2315 -1.2850
17307TIP3    H273413   1.597   0.559   9.239 -0.5819  0.2752 -0.8124
17308TIP3   OH273414   2.222   0.075  68.027 -0.1614  0.3039  0.1351
17308TIP3    H173415   2.282   0.144  67.999  0.4984 -1.0663 -2.1123
17308TIP3    H273416   2.261   0.039  68.106  0.2513  1.5222  0.5048
17309TIP3   OH273417   0.036   2.255  23.885 -0.0290  0.5672  0.1793
17309TIP3    H173418  -0.041   2.312  23.890  0.4275  1.3964 -1.5007
17309TIP3    H273419   0.078   2.265  23.971 -1.9467 -0.2178  1.2865
17310TIP3   OH273420   1.521   0.275 108.875 -0.3679  0.7312 -0.2645
17310TIP3    H173421   1.453   0.342 108.880 -1.2977 -0.2869  3.0517
17310TIP3    H273422   1.600   0.324 108.852 -1.3093  2.7610  0.5290
17311TIP3   OH273423   1.897   0.632   9.795 -0.2625  0.5369  0.1997
17311TIP3    H173424   1.985   0.620   9.832 -0.3325  1.0520  0.5425
17311TIP3    H273425   1.884   0.727   9.797 -1.2995  0.3924  1.2663
17312TIP3   OH273426   1.839   0.829  74.572  0.1537 -0.3883 -0.0748
17312TIP3    H173427   1.914   0.873  74.612 -0.0890 -0.0757  0.0426
17312TIP3    H273428   1.807   0.770  74.640 -1.1534  1.1903  0.7713
17313TIP3   OH273429   0.811   1.303  10.501  0.0388 -0.7416  0.5486
17313TIP3    H173430   0.901   1.322  10.477 -0.0301  0.2734  1.0332
17313TIP3    H273431   0.813   1.216  10.540  0.5891 -1.2731 -0.6257
17314TIP3   OH273432   0.388   0.783  69.000 -0.3428  0.8277 -0.3613
17314TIP3    H173433   0.428   0.866  68.972  1.3112 -0.6107 -2.5254
17314TIP3    H273434   0.339   0.753  68.924 -2.1350  0.4523  0.8927
17315TIP3   OH273435   2.306   0.991 105.654  0.0858  0.0606 -0.0452
17315TIP3    H173436   2.384   0.981 105.599  0.3010  0.6235  0.1530
17315TIP3    H273437   2.279   0.902 105.674 -0.1467 -0.1684 -1.2728
17316TIP3   OH273438   0.979   1.514  23.033  0.6813 -0.1608 -0.0693
17316TIP3    H173439   1.014   1.525  23.121  0.4945  1.9688 -0.2153
17316TIP3    H273440   1.057   1.513  22.977  0.7429 -0.5594  0.0153
17317TIP3   OH273441   2.274   0.620  21.665  0.1532 -0.0174 -0.4869
17317TIP3    H173442   2.314   0.574  21.591  0.7224  0.2168 -0.3330
17317TIP3    H273443   2.310   0.576  21.742  0.6898  0.6580 -0.3405
17318TIP3   OH273444   2.389   0.928  78.751 -0.7622 -0.0499  0.4758
17318TIP3    H173445   2.385   0.904  78.844 -0.1045 -1.5765  0.1502
17318TIP3    H273446   2.440   1.008  78.749  2.0995 -1.7082  1.2261
17319TIP3   OH273447   1.588   1.063  10.174 -0.0366 -0.3895  0.2187
17319TIP3    H173448   1.580   0.975  10.212  0.3594 -0.7082 -0.4207
17319TIP3    H273449   1.676   1.091  10.198 -1.1601  1.1404  3.1015
17320TIP3   OH273450   2.117   1.100  24.418  0.5208  0.5468 -0.1581
17320TIP3    H173451   2.104   1.134  24.330 -1.3431  0.4427  0.0317
17320TIP3    H273452   2.173   1.165  24.461  1.4628  0.5847 -1.4106
17321TIP3   OH273453   2.503   1.783  10.268 -0.2588 -0.0680  0.1350
17321TIP3    H173454   2.447   1.769  10.344  1.0071  1.1619  1.3539
17321TIP3    H273455   2.548   1.700  10.254 -2.1026 -0.9961 -0.7042
17322TIP3   OH273456   1.357   0.696   2.370 -0.4509 -0.3833 -0.1811
17322TIP3    H173457   1.327   0.608   2.393 -0.4844 -1.0877 -2.6946
17322TIP3    H273458   1.452   0.694   2.382 -0.3766 -0.9732 -0.8398
17323TIP3   OH273459   0.979   2.634 109.723 -0.2131 -0.4381  0.0398
17323TIP3    H173460   0.893   2.655 109.686  0.1666  0.6592 -0.2533
17323TIP3    H273461   1.008   2.557 109.675 -0.3873  0.0789 -0.9194
17324TIP3   OH273462   2.500   1.640  68.698 -0.4962  0.5036 -0.5682
17324TIP3    H173463   2.503   1.682  68.784 -1.0839 -1.9849  0.7457
17324TIP3    H273464   2.409   1.649  68.671 -0.2269  1.6384 -1.1563
17325TIP3   OH273465   0.052   1.640  96.005  0.2345  0.0861 -0.3777
17325TIP3    H173466   0.009   1.684  96.079 -0.6536 -1.3104 -0.0196
17325TIP3    H273467   0.118   1.585  96.046  0.2348 -0.1441 -0.6945
17326TIP3   OH273468   2.629   0.998   5.545  0.3113  0.4085  0.2760
17326TIP3    H173469   2.624   1.087   5.581  0.7645  1.0391 -1.1686
17326TIP3    H273470   2.723   0.980   5.538  0.2660  0.7348 -1.5748
17327TIP3   OH273471   2.425   1.363  30.993 -0.3737 -0.6247  0.1408
17327TIP3    H173472   2.470   1.385  30.911 -0.2602  0.6363  0.5107
17327TIP3    H273473   2.336   1.340  30.966 -0.5164  0.3748 -0.3135
17328TIP3   OH273474   0.783   1.397  83.346 -0.1664 -0.1724 -0.2300
17328TIP3    H173475   0.709   1.439  83.303 -1.8441 -1.1127  1.5981
17328TIP3    H273476   0.763   1.304  83.343  0.8472 -0.4358  0.4991
17329TIP3   OH273477   2.177   0.508   0.566  0.3770 -0.2943 -0.2598
17329TIP3    H173478   2.259   0.509   0.518  0.4265 -0.9128 -0.1918
17329TIP3    H273479   2.202   0.491   0.657  0.2921  0.9423  0.0171
17330TIP3   OH273480   2.043   1.821 109.866 -0.7558  0.3237  0.0581
17330TIP3    H173481   2.025   1.887 109.799 -1.1200  0.4036  0.2275
17330TIP3    H273482   2.130   1.788 109.845  0.2811  2.1923  1.0556
17331TIP3   OH273483   0.674   1.642  11.501  0.7536 -0.0930  0.1604
17331TIP3    H173484   0.623   1.655  11.581  0.6890 -0.5513  0.1984
17331TIP3    H273485   0.609   1.617  11.435  0.9903 -1.3567  0.3739
17332TIP3   OH273486   0.664   0.411  22.199 -0.3418 -0.0379 -0.1364
17332TIP3    H173487   0.716   0.339  22.162  1.7131  1.4487 -0.3031
17332TIP3    H273488   0.707   0.432  22.282 -1.8320  0.0433  0.6503
17333TIP3   OH273489   1.866   0.303   2.659 -0.7781  0.1000 -0.5463
17333TIP3    H173490   1.960   0.314   2.645 -0.4319  0.1262  1.4344
17333TIP3    H273491   1.829   0.290   2.572  1.0776 -0.0419 -1.3426
17334TIP3   OH273492   0.356   2.113  68.295 -0.1324 -0.4285  0.6354
17334TIP3    H173493   0.389   2.156  68.374 -0.9110  0.4933  0.4812
17334TIP3    H273494   0.266   2.088  68.318 -0.1434 -0.7392  0.2618
17335TIP3   OH273495   1.601   1.269  90.554 -0.0906 -0.3453 -0.5166
17335TIP3    H173496   1.542   1.217  90.608 -1.9744  1.4923 -0.6532
17335TIP3    H273497   1.543   1.329  90.507  1.7938  0.5282 -1.8519
17336TIP3   OH273498   1.290   0.291   5.660  0.3097 -0.1777  0.4889
17336TIP3    H173499   1.197   0.314   5.658  0.3237 -0.1964 -1.5256
17336TIP3    H273500   1.298   0.233   5.736 -0.9860  1.1181  1.6829
17337TIP3   OH273501   2.225   1.734  20.045 -0.0870 -0.1241 -0.4453
17337TIP3    H173502   2.246   1.662  20.104 -1.6047 -0.7052 -0.5719
17337TIP3    H273503   2.269   1.712  19.963 -0.5987 -0.9551 -0.5035
17338TIP3   OH273504   1.743   1.643  10.623 -0.4087  0.0650 -0.1594
17338TIP3    H173505   1.742   1.662  10.530 -0.7682  0.3009 -0.1096
17338TIP3    H273506   1.821   1.687  10.656  0.5299 -1.2198 -0.5928
17339TIP3   OH273507   1.328   0.659  81.971 -0.1460  0.3030  0.7199
17339TIP3    H173508   1.392   0.715  81.927  1.4824 -0.6586  1.7586
17339TIP3    H273509   1.243   0.688  81.938  0.9057  0.4391 -2.1251
17340TIP3   OH273510   2.168   0.151  40.991  0.3983 -0.3325 -0.4052
17340TIP3    H173511   2.134   0.211  41.058  1.8376 -0.9394  0.9144
17340TIP3    H273512   2.090   0.103  40.962 -0.9762  2.6342 -2.1178
17341TIP3   OH273513   0.371   2.146  73.266 -1.0557 -0.3400  0.7259
17341TIP3    H173514   0.329   2.223  73.305 -1.3700 -1.3145  2.3824
17341TIP3    H273515   0.465   2.167  73.266 -1.1546  0.1073  0.9893
17342TIP3   OH273516   1.462   0.201  77.360  0.1640  0.0849 -0.4674
17342TIP3    H173517   1.503   0.283  77.333  0.4819  0.1403  0.1772
17342TIP3    H273518   1.377   0.201  77.315  0.1458  0.7792 -0.4449
17343TIP3   OH273519   2.438   1.864  79.324  0.3557 -0.0657  0.3509
17343TIP3    H173520   2.466   1.870  79.415  1.0547 -0.1160  0.1514
17343TIP3    H273521   2.389   1.944  79.308 -1.6515 -1.0015  1.3757
17344TIP3   OH273522   0.856   1.419  13.970  0.1222  0.1861 -0.7290
17344TIP3    H173523   0.836   1.512  13.967 -0.2676  0.1007 -2.7399
17344TIP3    H273524   0.844   1.394  14.061 -0.6215  1.9142 -0.3126
17345TIP3   OH273525   0.125   1.588  76.079 -0.2113 -0.4605  0.2629
17345TIP3    H173526   0.209   1.561  76.119  1.6024  3.5167 -0.4312
17345TIP3    H273527   0.078   1.505  76.066  3.0729 -2.8120  1.7666
17346TIP3   OH273528   1.709   1.303 107.655  0.0542  0.2814  0.2031
17346TIP3    H173529   1.630   1.307 107.710  0.0579 -1.4065  0.3889
17346TIP3    H273530   1.769   1.366 107.695 -0.4170  0.0114  1.3806
17347TIP3   OH273531   0.785   2.019  31.203 -0.0973 -0.3718 -0.4545
17347TIP3    H173532   0.769   1.955  31.273  0.0461 -1.3459 -1.2952
17347TIP3    H273533   0.875   2.002  31.175  1.8353  3.3318  2.4652
17348TIP3   OH273534   2.023   1.896  18.400 -0.5439  0.5764  0.4297
17348TIP3    H173535   1.973   1.937  18.471  0.5729 -0.1764  1.6964
17348TIP3    H273536   2.018   1.802  18.419  0.1183  0.3978 -0.2485
17349TIP3   OH273537   1.986   2.243 109.516 -0.1105 -0.2699 -0.0610
17349TIP3    H173538   1.991   2.325 109.467 -0.3315  0.2284  0.7379
17349TIP3    H273539   1.892   2.228 109.529 -0.1321 -1.1910 -1.0669
17350TIP3   OH273540   2.232   1.978 108.315  0.2634 -0.2538  0.4212
17350TIP3    H173541   2.270   1.912 108.257  0.3040  0.6051 -0.5491
17350TIP3    H273542   2.140   1.955 108.320  0.1720 -0.0676 -0.3559
17351TIP3   OH273543   1.851   0.017 109.265 -0.2822 -0.4508  0.0382
17351TIP3    H173544   1.838  -0.078 109.269 -0.1387 -0.5866 -1.8667
17351TIP3    H273545   1.946   0.028 109.273 -0.4163 -0.3298  1.7873
17352TIP3   OH273546   0.717   1.532   7.534 -0.5913 -0.0927  0.7662
17352TIP3    H173547   0.676   1.509   7.450 -0.7309  0.6403  0.6254
17352TIP3    H273548   0.648   1.576   7.583 -0.2046  0.4681  0.8262
17353TIP3   OH273549   1.031   2.519  31.133 -0.0988  0.1396  0.4400
17353TIP3    H173550   0.970   2.451  31.163 -1.0533  0.1257 -1.3678
17353TIP3    H273551   1.095   2.526  31.203 -1.2186 -1.0710  1.6565
17354TIP3   OH273552   0.220   0.921  84.190 -0.2681  0.1093 -0.1545
17354TIP3    H173553   0.126   0.919  84.169 -0.1344 -0.3778 -0.7648
17354TIP3    H273554   0.256   0.983  84.127 -0.0206 -0.5615 -0.6931
17355TIP3   OH273555   0.605   1.712  93.687 -0.0912  0.2172  0.5889
17355TIP3    H173556   0.690   1.689  93.651  0.0839  0.8399  0.5903
17355TIP3    H273557   0.544   1.650  93.647  0.5357 -1.0628  1.5448
17356TIP3   OH273558   0.594   0.265   1.465  0.1021 -0.2747 -0.3995
17356TIP3    H173559   0.560   0.332   1.406 -0.5157 -0.1565  0.0819
17356TIP3    H273560   0.686   0.289   1.477  0.2630 -0.3611 -1.3871
17357TIP3   OH273561   2.330   1.540  34.922 -0.4680 -0.0056 -0.4336
17357TIP3    H173562   2.256   1.582  34.879 -2.0398 -3.1042 -1.0097
17357TIP3    H273563   2.376   1.494  34.852  1.7456  1.3527  0.0197
17358TIP3   OH273564   2.207   0.555  11.124 -0.1902 -0.1282  0.2790
17358TIP3    H173565   2.128   0.532  11.172 -1.1550  1.4262 -0.4729
17358TIP3    H273566   2.201   0.504  11.043 -0.1872 -0.3718  0.4333
17359TIP3   OH273567   2.357   1.057  35.823  0.4418 -0.1267 -0.2395
17359TIP3    H173568   2.404   1.133  35.789  1.0888 -1.1094 -1.6378
17359TIP3    H273569   2.422   1.010  35.876  0.2703 -0.1064 -0.0083
17360TIP3   OH273570   1.979   0.793 105.350 -0.4383  0.0158  0.1062
17360TIP3    H173571   1.941   0.774 105.436  0.1177 -0.2492  0.2949
17360TIP3    H273572   2.070   0.764 105.357 -0.8679 -1.8108 -1.1754
17361TIP3   OH273573   2.273   1.981  91.572 -0.6601  0.0948  0.0739
17361TIP3    H173574   2.317   2.033  91.639  1.8955 -1.0515 -0.5852
17361TIP3    H273575   2.275   2.036  91.493 -1.9672  0.6942  0.4305
17362TIP3   OH273576   0.425   2.604  52.974  0.3995 -0.0271 -0.4627
17362TIP3    H173577   0.353   2.616  52.912 -1.3794 -4.6337  0.2797
17362TIP3    H273578   0.479   2.535  52.934  0.6644 -1.2629  1.8383
17363TIP3   OH273579   1.116   1.287  86.280  0.2931 -0.0332 -0.3488
17363TIP3    H173580   1.024   1.274  86.305  0.3267  1.2217  0.5180
17363TIP3    H273581   1.113   1.294  86.184 -0.3907 -0.8720 -0.4039
17364TIP3   OH273582   1.351   0.916  12.569  1.1246 -0.1809 -0.1378
17364TIP3    H173583   1.314   0.905  12.482  0.6199 -2.0229  0.2598
17364TIP3    H273584   1.348   1.010  12.585 -2.1620 -0.0673 -0.7017
17365TIP3   OH273585   0.656   1.206   7.281  0.4435  0.2904 -0.0605
17365TIP3    H173586   0.653   1.298   7.254  0.5141 -0.0475 -1.2724
17365TIP3    H273587   0.588   1.164   7.229 -1.5642  0.1211  2.4797
17366TIP3   OH273588   2.446   1.216  93.920  0.2645  0.0285 -0.4074
17366TIP3    H173589   2.444   1.280  93.849  0.0784  0.5502  0.0559
17366TIP3    H273590   2.459   1.132  93.877 -1.7196  0.0793 -1.2474
17367TIP3   OH273591   0.825   0.229  67.023  0.0271 -0.3810 -0.2936
17367TIP3    H173592   0.896   0.287  66.994 -0.1155  0.1860  0.4661
17367TIP3    H273593   0.856   0.141  67.000  0.6642 -0.0860 -0.6005
17368TIP3   OH273594   1.473   2.385  98.816 -0.2388 -0.0590  0.4861
17368TIP3    H173595   1.448   2.391  98.908  1.5039 -0.1645  0.9977
17368TIP3    H273596   1.447   2.469  98.778  0.1095  0.4527  1.3585
17369TIP3   OH273597   1.018   2.586  24.583  0.6863  0.6009  0.1090
17369TIP3    H173598   1.035   2.535  24.662  1.2039  1.4210  0.5346
17369TIP3    H273599   1.100   2.582  24.534 -0.0236 -0.9931 -1.0384
17370TIP3   OH273600   0.164   0.278   0.436  0.4376 -0.1406 -0.0638
17370TIP3    H173601   0.209   0.215   0.379  0.2691  0.5500 -0.9810
17370TIP3    H273602   0.216   0.278   0.517  0.9695 -0.7667 -0.3925
17371TIP3   OH273603   2.533   2.630  75.420  0.4215 -0.6358 -0.2594
17371TIP3    H173604   2.443   2.600  75.431 -0.3122  0.3104 -3.0068
17371TIP3    H273605   2.582   2.551  75.397  0.0449 -0.9200 -0.1005
17372TIP3   OH273606   0.708   2.042  36.181 -0.1381  0.6568 -0.0141
17372TIP3    H173607   0.666   1.959  36.158  0.1639  0.3896  0.3850
17372TIP3    H273608   0.768   2.059  36.108  1.0357 -0.3379  0.6883
17373TIP3   OH273609   0.675   0.774  24.464 -0.2178  0.3028 -0.1395
17373TIP3    H173610   0.636   0.813  24.385 -1.0940 -1.2118 -0.4756
17373TIP3    H273611   0.770   0.784  24.450 -0.3913  2.0551 -0.3172
17374TIP3   OH273612   1.747   2.438  94.537  0.2060 -0.0309  0.1465
17374TIP3    H173613   1.700   2.392  94.468 -1.2149  1.1346  0.2709
17374TIP3    H273614   1.796   2.506  94.492 -0.6094  0.6385  0.2284
17375TIP3   OH273615   1.234   1.448 111.053 -0.0653 -0.4664 -0.6242
17375TIP3    H173616   1.227   1.453 111.148  0.9451  0.3958 -0.5775
17375TIP3    H273617   1.304   1.386 111.037  1.4529  1.2045 -0.7234
17376TIP3   OH273618   0.140   1.731   7.399  0.0196  0.0860 -0.3120
17376TIP3    H173619   0.183   1.805   7.357 -0.3795  0.2233 -0.4888
17376TIP3    H273620   0.119   1.672   7.326 -0.7974  0.3855 -0.3257
17377TIP3   OH273621   1.087   1.282  22.271  0.2855 -0.5495  0.4703
17377TIP3    H173622   1.164   1.241  22.232  0.4972 -0.2655  0.5817
17377TIP3    H273623   1.015   1.257  22.214  0.5510 -0.3627  0.0492
17378TIP3   OH273624   2.427   2.659  74.710 -0.3605 -0.3922 -0.0067
17378TIP3    H173625   2.425   2.649  74.615 -0.5091  0.8005 -0.1385
17378TIP3    H273626   2.345   2.619  74.740 -0.2127 -0.9695 -0.3428
17379TIP3   OH273627   1.677   2.144 111.510  0.6809 -0.2406  0.1547
17379TIP3    H173628   1.714   2.069 111.556  0.4513 -1.2036 -1.1586
17379TIP3    H273629   1.734   2.155 111.434 -0.8420 -0.8707 -1.1463
17380TIP3   OH273630   1.882   2.208  97.770  0.2293  0.3082 -0.0357
17380TIP3    H173631   1.857   2.271  97.703 -0.3524  0.3970  0.2592
17380TIP3    H273632   1.810   2.145  97.772  0.1080  0.4536  0.6764
17381TIP3   OH273633   0.683   1.869  12.245  0.3544  0.3681 -0.1098
17381TIP3    H173634   0.662   1.952  12.202 -0.3458  0.5677  0.5844
17381TIP3    H273635   0.768   1.884  12.286  0.0715  0.8604  0.3051
17382TIP3   OH273636   1.844   0.396  88.917 -0.1166  0.4489 -0.2327
17382TIP3    H173637   1.760   0.362  88.885 -0.0488  0.1355 -0.0844
17382TIP3    H273638   1.857   0.478  88.869  0.3358 -0.3653 -1.5539
17383TIP3   OH273639   1.810   2.579 105.493 -0.3504 -0.2241 -0.0100
17383TIP3    H173640   1.767   2.598 105.410 -1.0682  1.5137  0.7173
17383TIP3    H273641   1.856   2.660 105.516  0.7315 -1.0286  0.7764
17384TIP3   OH273642   1.419   1.143  87.130  0.3459 -0.1462  0.3427
17384TIP3    H173643   1.420   1.055  87.166 -1.0500 -1.6201 -2.8038
17384TIP3    H273644   1.326   1.160  87.111  0.3348  2.7369  2.3186
17385TIP3   OH273645   1.239   2.273  23.196 -0.6195 -0.1332  0.1990
17385TIP3    H173646   1.174   2.202  23.200 -0.1260 -0.5411  1.9907
17385TIP3    H273647   1.322   2.230  23.218 -0.1620  0.8285  0.3994
17386TIP3   OH273648   0.396   2.220  12.550 -0.1793 -0.5335  0.3226
17386TIP3    H173649   0.488   2.194  12.546 -0.0701 -0.3205  1.2143
17386TIP3    H273650   0.379   2.262  12.466  0.3908 -1.0647 -0.0622
17387TIP3   OH273651   1.554   1.993 111.204 -0.2361 -0.4352  0.6411
17387TIP3    H173652   1.591   1.960 111.286  0.1813 -1.0388  0.2220
17387TIP3    H273653   1.477   1.938 111.188 -1.9939  1.4433  2.0286
17388TIP3   OH273654   2.256   0.349 103.154  0.5268 -0.1055 -0.0324
17388TIP3    H173655   2.286   0.403 103.082  1.4522  0.0513  0.4630
17388TIP3    H273656   2.335   0.318 103.197 -0.0014 -0.7884  0.4798
17389TIP3   OH273657   1.253   1.069  19.974  0.6368  0.2837 -0.3950
17389TIP3    H173658   1.231   1.122  19.898  0.7696 -0.4719 -0.9678
17389TIP3    H273659   1.221   1.120  20.049  1.7138  1.6557 -0.8472
17390TIP3   OH273660   1.547   0.025 109.335  0.1727 -0.4323  0.2178
17390TIP3    H173661   1.518   0.069 109.255 -0.9085  1.5661  1.6207
17390TIP3    H273662   1.640   0.046 109.341  0.4341 -1.1840 -0.8303
17391TIP3   OH273663   1.969   0.444  21.336  0.1534 -0.3818  0.0605
17391TIP3    H173664   2.000   0.511  21.276  2.4470 -0.8570  0.6197
17391TIP3    H273665   2.025   0.368  21.319  0.3285 -0.8106  2.1705
17392TIP3   OH273666   0.003   0.094  36.347 -0.4999 -0.0623  0.4300
17392TIP3    H173667  -0.038   0.015  36.382 -0.5922  0.1305  0.7660
17392TIP3    H273668   0.004   0.081  36.252 -2.6589  0.5416  0.2676
17393TIP3   OH273669   2.578   1.364  80.661  0.0122 -0.0719  0.0759
17393TIP3    H173670   2.605   1.423  80.590 -1.3050  0.8998  0.3335
17393TIP3    H273671   2.545   1.287  80.616 -1.1844  0.6967 -0.4131
17394TIP3   OH273672   0.619   0.539  51.936 -0.5198 -0.4726 -0.5993
17394TIP3    H173673   0.666   0.505  52.012 -2.2088 -1.5403  0.0482
17394TIP3    H273674   0.683   0.538  51.865  0.4788 -1.6699  0.2654
17395TIP3   OH273675   0.139   1.853  74.966 -0.0110  0.0657  0.5579
17395TIP3    H173676   0.077   1.784  74.991  0.4636  0.3296  2.6303
17395TIP3    H273677   0.198   1.860  75.041  1.7382  0.7414 -0.8203
17396TIP3   OH273678   2.406   1.704  97.352 -0.3736  0.3379 -0.2590
17396TIP3    H173679   2.380   1.736  97.438  1.4069 -0.6611  0.6987
17396TIP3    H273680   2.330   1.721  97.296 -1.8233  0.3812  1.6440
17397TIP3   OH273681   1.771   2.015  13.145 -0.2599  0.0068  0.1487
17397TIP3    H173682   1.684   2.021  13.184  0.0301  1.5124  0.6518
17397TIP3    H273683   1.755   2.026  13.051 -0.5488  1.2971  0.3277
17398TIP3   OH273684   2.529   1.228  76.507  0.7093  0.5995 -0.1127
17398TIP3    H173685   2.461   1.220  76.575  1.2333  0.3928  0.3906
17398TIP3    H273686   2.577   1.145  76.512 -0.7257 -0.4717 -2.3886
17399TIP3   OH273687   0.351   1.343 105.788  0.3357 -0.0733  0.6148
17399TIP3    H173688   0.424   1.401 105.764  0.9896 -0.5248  1.4638
17399TIP3    H273689   0.306   1.389 105.859  0.7391 -0.5000  1.1570
17400TIP3   OH273690   1.332   0.757  35.503 -0.3220 -0.1856  0.0990
17400TIP3    H173691   1.321   0.695  35.575  2.2814 -1.7527 -0.7135
17400TIP3    H273692   1.418   0.795  35.517 -1.2483  2.1976 -0.2809
17401TIP3   OH273693   0.868   0.399  27.131 -0.3419 -0.1704 -0.1405
17401TIP3    H173694   0.874   0.330  27.064 -0.4491  0.1010 -0.4324
17401TIP3    H273695   0.775   0.405  27.150 -0.4148  0.4087 -0.6600
17402TIP3   OH273696   2.449   0.229 109.386 -0.1997 -0.1978  0.6514
17402TIP3    H173697   2.461   0.225 109.481 -0.0655  0.8242  0.6825
17402TIP3    H273698   2.370   0.176 109.370 -1.0861  0.8038  1.5041
17403TIP3   OH273699   0.347   0.688  82.872 -0.4174  0.1831 -0.1348
17403TIP3    H173700   0.410   0.748  82.912  0.1096  0.4548 -1.3235
17403TIP3    H273701   0.310   0.639  82.945 -0.4245  1.5452  0.8119
17404TIP3   OH273702   2.058   2.463  74.535  0.2610  0.7030 -0.3466
17404TIP3    H173703   2.027   2.472  74.625 -1.1638 -0.1147 -0.7126
17404TIP3    H273704   2.152   2.450  74.543  0.0438 -0.2520  1.0991
17405TIP3   OH273705   2.638   0.821  84.005  0.4151 -0.1247 -0.0980
17405TIP3    H173706   2.549   0.813  84.040  0.6691  0.2737  0.6610
17405TIP3    H273707   2.675   0.733  84.011  1.3077  0.3376  3.0261
17406TIP3   OH273708   2.644   2.668   5.435  0.1157  0.4701 -0.2070
17406TIP3    H173709   2.624   2.604   5.504  1.6276 -1.1548 -1.1760
17406TIP3    H273710   2.739   2.680   5.442  0.0668  1.4181 -1.0644
17407TIP3   OH273711   2.470   1.835  83.429 -0.5970 -0.4698  0.5522
17407TIP3    H173712   2.474   1.776  83.353  0.9777  0.0565  0.1925
17407TIP3    H273713   2.547   1.890  83.421  0.2505 -1.1340  3.1536
17408TIP3   OH273714   2.298   1.386  36.238  0.7311 -0.4768  0.3663
17408TIP3    H173715   2.321   1.296  36.261 -1.0101 -0.7069  1.4630
17408TIP3    H273716   2.238   1.377  36.164  0.3916 -0.2350  0.6111
17409TIP3   OH273717   1.875   0.846  76.084 -0.1129 -0.4249  0.1026
17409TIP3    H173718   1.814   0.920  76.088  0.6338  0.3244 -1.2042
17409TIP3    H273719   1.878   0.811  76.173 -2.6094 -0.6581  0.1565
17410TIP3   OH273720   0.413   0.560  63.608 -0.2526 -0.2117 -0.9238
17410TIP3    H173721   0.460   0.482  63.577 -1.9557 -0.9460 -1.7782
17410TIP3    H273722   0.393   0.609  63.528  2.2511  2.0862 -0.3291
17411TIP3   OH273723   1.559   2.665  11.050  0.3211  0.2788 -0.7833
17411TIP3    H173724   1.490   2.717  11.092  1.1554  0.2186  0.7226
17411TIP3    H273725   1.521   2.640  10.965 -1.0446  1.2352 -0.4974
17412TIP3   OH273726   2.634   0.085  98.835  0.1964 -0.0398 -0.2827
17412TIP3    H173727   2.579   0.012  98.808 -0.1575  0.1727 -0.1361
17412TIP3    H273728   2.715   0.074  98.785 -0.7784  0.8861 -2.1339
17413TIP3   OH273729   0.976   0.687  12.586  0.1431 -0.1304 -0.1757
17413TIP3    H173730   0.922   0.700  12.508 -1.5959  0.7370  1.1172
17413TIP3    H273731   0.915   0.694  12.659  2.1907  2.8399  1.4929
17414TIP3   OH273732   1.192   1.674   5.926  0.2614 -0.6827 -0.0096
17414TIP3    H173733   1.257   1.674   5.855  0.0991  1.4607 -0.2359
17414TIP3    H273734   1.113   1.711   5.886  0.3165  1.0566  1.3593
17415TIP3   OH273735   1.407   0.581  62.931 -0.5790 -0.6220 -0.0991
17415TIP3    H173736   1.339   0.516  62.949 -1.8983  0.7879  0.2814
17415TIP3    H273737   1.459   0.543  62.861 -0.4035 -2.6942  1.0815
17416TIP3   OH273738   2.174   1.759   9.787 -0.3142 -0.3608  0.8614
17416TIP3    H173739   2.269   1.748   9.782 -0.1793  0.9622  0.0966
17416TIP3    H273740   2.156   1.760   9.881  0.4391 -0.5836  1.0187
17417TIP3   OH273741   1.662   1.066  31.079  0.1430 -0.2169  0.7376
17417TIP3    H173742   1.651   1.049  30.986  0.7060 -0.4862  0.7124
17417TIP3    H273743   1.755   1.089  31.088 -0.4141  2.2720  0.8585
17418TIP3   OH273744   1.139   1.963  88.766  0.6571  0.1249  0.6902
17418TIP3    H173745   1.060   2.011  88.739  0.1344  0.0452  1.9727
17418TIP3    H273746   1.186   1.946  88.685 -0.3321  0.7434 -0.0428
17419TIP3   OH273747   1.682   1.524  11.601 -0.2268 -0.0941  0.2192
17419TIP3    H173748   1.626   1.576  11.544 -1.7610 -1.5957  0.2843
17419TIP3    H273749   1.720   1.587  11.662 -1.6022  1.0261 -0.0356
17420TIP3   OH273750   0.926   1.843  96.700 -0.3851 -0.4497 -0.2024
17420TIP3    H173751   0.996   1.786  96.667 -0.1459  0.1087 -0.6751
17420TIP3    H273752   0.971   1.921  96.730 -0.5688 -1.0364  1.7332
17421TIP3   OH273753   0.372   0.393  34.864 -0.0005  0.6453 -0.9782
17421TIP3    H173754   0.319   0.472  34.850 -0.8149  0.0455 -1.3573
17421TIP3    H273755   0.321   0.342  34.927  0.6263  0.5128 -0.5759
17422TIP3   OH273756   0.421   2.512 106.307 -0.0528  0.6979 -0.7490
17422TIP3    H173757   0.376   2.576 106.363 -1.1771  0.0860 -0.9239
17422TIP3    H273758   0.479   2.565 106.252  1.0841  1.3120  0.9706
17423TIP3   OH273759   1.147   2.454  98.605 -0.4041 -0.6503 -0.1968
17423TIP3    H173760   1.136   2.363  98.630 -1.3782 -0.8696 -1.3622
17423TIP3    H273761   1.221   2.454  98.544  0.9069 -0.3427  1.3153
17424TIP3   OH273762   0.136   2.401 108.090  0.0593 -0.2668  0.3827
17424TIP3    H173763   0.183   2.371 108.167  0.5537 -2.7306 -0.7970
17424TIP3    H273764   0.046   2.411 108.119  0.3552 -0.5154  1.4331
17425TIP3   OH273765   0.809   0.448  76.067 -0.4373  0.0664 -0.3318
17425TIP3    H173766   0.721   0.473  76.095 -1.8622 -1.0625 -3.3109
17425TIP3    H273767   0.834   0.379  76.128 -0.7552  1.6615  1.7119
17426TIP3   OH273768   1.736   0.766  31.497  0.1007 -0.3327 -0.5615
17426TIP3    H173769   1.728   0.708  31.572  2.4461 -0.2299 -0.1703
17426TIP3    H273770   1.723   0.854  31.533  1.3684 -0.2722 -0.2332
17427TIP3   OH273771   2.198   1.724 106.059 -0.0249  0.4868 -0.2221
17427TIP3    H173772   2.115   1.705 106.102 -0.1038 -0.2439 -0.6827
17427TIP3    H273773   2.205   1.820 106.061 -0.5808  0.5226  0.3579
17428TIP3   OH273774   2.574   1.835  79.055 -0.5064 -0.1648  0.0041
17428TIP3    H173775   2.487   1.873  79.042 -1.4515 -3.0881 -4.4207
17428TIP3    H273776   2.634   1.898  79.015 -1.0144  0.2916 -0.0492
17429TIP3   OH273777   0.757   0.386  91.965  0.1202  0.2140  0.5269
17429TIP3    H173778   0.779   0.298  91.995  0.1514 -0.5620 -1.5933
17429TIP3    H273779   0.697   0.420  92.030  1.6388 -0.5904  2.4456
17430TIP3   OH273780   2.650   1.688   3.871 -0.0350  0.2473  0.5507
17430TIP3    H173781   2.720   1.743   3.907  0.0325 -0.4766  1.5733
17430TIP3    H273782   2.673   1.599   3.899  1.0881 -0.7230 -2.9129
17431TIP3   OH273783   0.950   0.094  93.244  0.1021 -0.4577  0.3955
17431TIP3    H173784   0.871   0.051  93.275 -0.4048 -0.9820 -1.4534
17431TIP3    H273785   0.921   0.180  93.214  0.2409 -0.5839 -0.1228
17432TIP3   OH273786   1.045   1.468  11.059 -0.1782  0.1900 -0.3727
17432TIP3    H173787   1.116   1.492  11.119 -1.5868  0.3086  1.3093
17432TIP3    H273788   1.015   1.383  11.090 -1.1362  0.3975 -0.7193
17433TIP3   OH273789   0.959   0.359   1.233  0.5511  0.2476 -0.2177
17433TIP3    H173790   0.937   0.447   1.203  0.9747  0.9887  1.5207
17433TIP3    H273791   0.914   0.350   1.317  0.6932 -1.1150 -0.2616
17434TIP3   OH273792   1.216   0.173  27.561 -0.6466  0.3164 -0.2063
17434TIP3    H173793   1.259   0.099  27.603  1.4930  0.2347 -2.3871
17434TIP3    H273794   1.265   0.250  27.592 -0.6798  0.4861 -0.5685
17435TIP3   OH273795   2.617   0.065  38.273  0.2211 -0.6458  0.0984
17435TIP3    H173796   2.627   0.131  38.341  0.7268 -2.4490  1.8607
17435TIP3    H273797   2.542   0.094  38.222 -0.8674  0.2217  2.0940
17436TIP3   OH273798   2.157   0.922  82.364  0.0134  0.2270  0.0758
17436TIP3    H173799   2.125   0.966  82.444 -0.1481 -1.0970  0.7593
17436TIP3    H273800   2.078   0.891  82.320  0.1951 -1.3340  0.7698
17437TIP3   OH273801   2.382   2.302 104.529  0.0734  0.1749  0.2528
17437TIP3    H173802   2.391   2.209 104.506  0.4437  0.4902 -0.9565
17437TIP3    H273803   2.429   2.348 104.460 -0.1180  1.2679  0.8370
17438TIP3   OH273804   1.453   2.106  30.619 -0.2733 -0.3094 -0.3859
17438TIP3    H173805   1.463   2.117  30.525 -0.5855 -0.3420 -0.4236
17438TIP3    H273806   1.505   2.027  30.639 -0.4804 -0.4975 -0.5837
17439TIP3   OH273807   0.162   1.794  86.291  0.6418 -0.0509 -0.9893
17439TIP3    H173808   0.188   1.836  86.209  0.4262 -1.4235 -1.8009
17439TIP3    H273809   0.194   1.704  86.283  0.9961 -0.1025  0.6336
17440TIP3   OH273810   2.215   1.390  89.173 -0.1435  0.3632  0.3702
17440TIP3    H173811   2.276   1.428  89.111  1.2929  1.1282  2.1809
17440TIP3    H273812   2.270   1.342  89.236 -1.6009 -1.1304  0.5873
17441TIP3   OH273813   0.348   1.838  68.333  0.2861  0.7517 -0.3161
17441TIP3    H173814   0.259   1.856  68.363  0.5567 -1.6083  2.4220
17441TIP3    H273815   0.401   1.905  68.376  0.1420  0.0416  1.0598
17442TIP3   OH273816   0.535   2.649  37.039  0.2646  0.3220  0.0200
17442TIP3    H173817   0.592   2.718  37.005 -0.5502  1.2945  0.5669
17442TIP3    H273818   0.496   2.609  36.962 -0.2649  1.3636 -0.2619
17443TIP3   OH273819   2.539   0.721 104.521  0.3485 -0.2265 -0.1340
17443TIP3    H173820   2.476   0.791 104.541  1.1763  0.4502  0.1507
17443TIP3    H273821   2.623   0.765 104.518  0.6813 -0.9344 -1.6711
17444TIP3   OH273822   0.653   0.468  35.958  0.1500  0.1767 -0.1420
17444TIP3    H173823   0.715   0.540  35.962 -1.7601  2.0040 -1.5862
17444TIP3    H273824   0.707   0.391  35.941  2.0577  1.5769 -0.7390
17445TIP3   OH273825   1.995   2.188   4.425  0.3795 -0.2850  0.5399
17445TIP3    H173826   2.053   2.205   4.351 -0.1393  0.4257  0.2831
17445TIP3    H273827   2.053   2.179   4.500  0.7823  1.4351  0.4704
17446TIP3   OH273828   2.633   1.792  90.805  0.2040  0.2143 -0.2828
17446TIP3    H173829   2.699   1.730  90.833 -1.7457 -0.9695  2.1003
17446TIP3    H273830   2.639   1.793  90.709  2.8908 -0.6129 -0.1784
17447TIP3   OH273831   1.771   0.629  75.548  0.4199 -0.4767  0.2145
17447TIP3    H173832   1.712   0.694  75.508 -0.4122 -0.4807  1.3992
17447TIP3    H273833   1.840   0.681  75.589 -0.4931 -0.2768  1.5604
17448TIP3   OH273834   0.099   0.571   5.401  0.0505  0.4581  0.1606
17448TIP3    H173835   0.011   0.562   5.436 -0.3263  3.3947  0.2117
17448TIP3    H273836   0.089   0.630   5.326  1.8685  0.1241 -0.3977
17449TIP3   OH273837   2.189   0.204  84.764  0.0047  0.1047  0.0780
17449TIP3    H173838   2.161   0.116  84.788  1.1956 -0.2920  0.0705
17449TIP3    H273839   2.178   0.255  84.845  0.8393 -0.4396  0.5419
17450TIP3   OH273840   2.535   0.717  25.603 -0.0017 -1.1132 -0.2683
17450TIP3    H173841   2.476   0.790  25.621 -1.3657 -2.1572 -0.4258
17450TIP3    H273842   2.478   0.644  25.581  1.3471 -2.1875 -0.3370
17451TIP3   OH273843   2.517   0.520  12.849  0.0261  0.1743  0.4104
17451TIP3    H173844   2.575   0.454  12.811 -0.3920 -0.9967  1.7257
17451TIP3    H273845   2.542   0.524  12.941 -0.3486  1.4492  0.4711
17452TIP3   OH273846   2.657   1.136  34.933  0.4220 -0.2197 -0.5587
17452TIP3    H173847   2.693   1.084  34.862 -0.1994 -0.9665 -0.3346
17452TIP3    H273848   2.587   1.083  34.970  1.1615 -0.1555  1.0445
17453TIP3   OH273849   2.613   0.989  17.589  0.4923  0.0693  0.2214
17453TIP3    H173850   2.588   0.997  17.497  0.6987 -1.7745 -0.0228
17453TIP3    H273851   2.548   1.042  17.636  0.2235  0.8131 -0.9469
17454TIP3   OH273852   0.337   2.383  93.196 -0.3658 -0.1090  0.4705
17454TIP3    H173853   0.291   2.309  93.235 -1.7161  0.4649  0.0291
17454TIP3    H273854   0.408   2.344  93.145 -1.5218 -1.1494 -0.3750
17455TIP3   OH273855   0.946   2.668  92.988  0.5012 -0.3616 -0.2671
17455TIP3    H173856   0.950   2.710  93.074  2.0257 -0.6401 -0.1637
17455TIP3    H273857   0.870   2.708  92.945  1.5656  2.1763  0.0094
17456TIP3   OH273858   2.252   0.059  99.622  0.0436 -0.0455 -0.7912
17456TIP3    H173859   2.294   0.145  99.612 -1.8113  1.0412  0.1151
17456TIP3    H273860   2.310   0.009  99.679  0.4240  1.1796 -0.0712
17457TIP3   OH273861   1.825   2.422  82.017 -0.0584  0.0296  0.2161
17457TIP3    H173862   1.884   2.488  82.053  1.6307 -1.8639  1.0913
17457TIP3    H273863   1.882   2.361  81.971 -1.2500 -1.9767  1.2379
17458TIP3   OH273864   1.537   1.073  34.808  0.2875  0.8500 -0.0887
17458TIP3    H173865   1.493   1.075  34.723  1.0299 -0.6503 -0.5302
17458TIP3    H273866   1.468   1.056  34.871  0.0566 -0.4045 -0.6598
17459TIP3   OH273867   0.702   1.553  87.506  0.7415  0.3496 -0.8213
17459TIP3    H173868   0.694   1.464  87.541 -2.1501  1.3017  1.3965
17459TIP3    H273869   0.747   1.601  87.575  0.8705  0.9562 -1.3219
17460TIP3   OH273870   2.036   0.801 102.066  0.4570 -0.0140 -0.1249
17460TIP3    H173871   2.012   0.708 102.064  0.6658 -0.1170 -3.8627
17460TIP3    H273872   1.962   0.843 102.111  0.6101 -1.9348  2.1598
17461TIP3   OH273873   1.045   1.731   7.240 -0.3364  0.4441 -0.2120
17461TIP3    H173874   1.004   1.778   7.313  1.3685 -0.3055  1.3176
17461TIP3    H273875   0.977   1.670   7.210 -1.7439  2.1460 -0.6341
17462TIP3   OH273876   0.438   2.338  51.842  0.2066  0.5189 -0.2691
17462TIP3    H173877   0.408   2.247  51.836  1.5597  0.1477 -2.3218
17462TIP3    H273878   0.461   2.349  51.934  1.1299 -1.6166 -0.1753
17463TIP3   OH273879   1.557   1.359 103.420  0.4205  0.1578 -0.1811
17463TIP3    H173880   1.513   1.302 103.357  0.3714  1.2133 -1.1423
17463TIP3    H273881   1.650   1.344 103.405  0.4455  1.2720 -1.4035
17464TIP3   OH273882   0.305   0.707   1.150  0.7034  0.8095 -0.5072
17464TIP3    H173883   0.265   0.734   1.232 -0.0779 -1.5428 -0.0422
17464TIP3    H273884   0.397   0.729   1.160  0.7926 -0.2483  1.3890
17465TIP3   OH273885   0.590   1.247  28.841  0.0680 -0.3382  0.4812
17465TIP3    H173886   0.667   1.273  28.891  0.4478  1.4106 -0.9171
17465TIP3    H273887   0.573   1.157  28.870  2.7717 -0.8893  0.6987
17466TIP3   OH273888   1.669   0.197  48.302  0.2423 -0.2922  0.3786
17466TIP3    H173889   1.662   0.131  48.233  1.7823 -1.8669  1.6298
17466TIP3    H273890   1.586   0.192  48.350 -0.4961  0.2217 -0.8213
17467TIP3   OH273891   1.917   2.295  35.793  0.6360 -0.0019 -0.0318
17467TIP3    H173892   1.853   2.278  35.862 -0.3838  0.4280 -0.8370
17467TIP3    H273893   2.001   2.272  35.831  0.2321  1.2710  1.7417
17468TIP3   OH273894   1.310   2.495  52.192  0.2849 -0.1375  0.0430
17468TIP3    H173895   1.296   2.524  52.282  0.1521 -1.0983  0.3510
17468TIP3    H273896   1.391   2.537  52.165  1.7229 -1.7880  1.5179
17469TIP3   OH273897   0.786   0.535  90.383  0.0875  0.4097 -0.3457
17469TIP3    H173898   0.871   0.552  90.423 -0.4626  0.9750  0.6355
17469TIP3    H273899   0.792   0.573  90.295  0.6280  1.0593 -0.0386
17470TIP3   OH273900   0.778   1.249  80.848  0.0926 -0.5787 -0.2132
17470TIP3    H173901   0.816   1.302  80.919 -0.9220 -3.1292  2.4184
17470TIP3    H273902   0.851   1.235  80.788  1.4964  0.2465  1.2048
17471TIP3   OH273903   0.499   1.775   7.362 -0.0667  0.2427  0.4655
17471TIP3    H173904   0.535   1.820   7.439 -1.1657 -0.5906  1.5091
17471TIP3    H273905   0.422   1.827   7.338 -0.8434 -0.5643  1.1469
17472TIP3   OH273906   0.725   1.585  27.440 -0.3035 -0.2054  0.4327
17472TIP3    H173907   0.701   1.675  27.462 -1.4625 -0.0329 -1.3578
17472TIP3    H273908   0.814   1.591  27.405 -0.8255  0.4648 -0.8372
17473TIP3   OH273909   1.831   1.789   9.970  0.5509 -0.0947 -0.0816
17473TIP3    H173910   1.778   1.750  10.040  0.5533  0.5506  0.2892
17473TIP3    H273911   1.813   1.735   9.894 -2.2344  1.2351 -0.5008
17474TIP3   OH273912   1.241   0.827 108.134 -0.0881  0.2614  0.3585
17474TIP3    H173913   1.161   0.798 108.091 -0.7228  2.7081 -0.2817
17474TIP3    H273914   1.223   0.820 108.227 -0.0004 -1.7722  0.2619
17475TIP3   OH273915   2.097   0.992 104.911  0.2380 -0.0710 -0.5680
17475TIP3    H173916   2.125   0.924 104.972  0.1308  0.9614  0.6536
17475TIP3    H273917   2.106   0.951 104.825 -2.1839 -2.5232  0.1961
17476TIP3   OH273918   1.708   0.963  89.927  0.1523  1.2423 -0.4508
17476TIP3    H173919   1.793   0.985  89.888  0.4541  1.8513  0.5110
17476TIP3    H273920   1.648   1.030  89.893 -0.1801  0.2900 -1.8433
17477TIP3   OH273921   1.840   0.964  95.288  0.0594  0.0785 -0.0999
17477TIP3    H173922   1.850   1.024  95.362  1.2351 -0.5937  0.3289
17477TIP3    H273923   1.770   1.001  95.235  0.2939  1.4467  0.5147
17478TIP3   OH273924   0.007   1.839  32.782 -0.7403  0.0231 -0.4282
17478TIP3    H173925  -0.009   1.831  32.688  2.0842 -1.7593 -0.8908
17478TIP3    H273926  -0.018   1.754  32.818  0.9882 -0.3985 -0.1226
17479TIP3   OH273927   2.517   1.030  18.219 -0.6071 -0.1121  0.0861
17479TIP3    H173928   2.507   0.959  18.283  2.6582 -1.6456 -0.8384
17479TIP3    H273929   2.539   1.107  18.272 -0.2984 -0.7789  0.9558
17480TIP3   OH273930   0.116   0.839  80.289  0.1029 -0.2340  0.0091
17480TIP3    H173931   0.059   0.878  80.223  1.0752  1.0116 -0.1250
17480TIP3    H273932   0.063   0.839  80.369 -0.3199  0.2811 -0.2602
17481TIP3   OH273933   0.206   0.016  24.446  0.0088  0.1103 -0.0006
17481TIP3    H173934   0.195   0.088  24.384  0.3808  0.3969  0.2597
17481TIP3    H273935   0.247   0.057  24.523  0.5069 -0.4340  0.0320
17482TIP3   OH273936   1.322   0.037 111.802 -0.6906  0.0829  0.5414
17482TIP3    H173937   1.347   0.122 111.766 -1.7867 -0.2954 -1.2308
17482TIP3    H273938   1.320   0.051 111.897 -0.8496  2.0334  0.2962
17483TIP3   OH273939   0.838   0.935   2.965 -0.1226  0.0670  0.1617
17483TIP3    H173940   0.908   0.926   3.030  0.1757 -0.5446 -0.2342
17483TIP3    H273941   0.857   1.017   2.920  0.4341 -0.1647 -0.0389
17484TIP3   OH273942   0.639   1.729 104.436 -0.0945  0.4075 -0.2454
17484TIP3    H173943   0.671   1.817 104.418 -1.8647  0.9362 -1.0740
17484TIP3    H273944   0.616   1.693 104.350  0.1217 -0.6847  0.1282
17485TIP3   OH273945   0.872   1.182  74.684  0.3113  0.0703 -0.3541
17485TIP3    H173946   0.919   1.264  74.678 -0.2628  0.4127 -0.2638
17485TIP3    H273947   0.829   1.185  74.770 -2.4124  1.1706 -1.6245
17486TIP3   OH273948   1.424   1.095  77.363 -0.2736  0.1621  0.2460
17486TIP3    H173949   1.404   1.103  77.456  0.7007  1.8516  0.3475
17486TIP3    H273950   1.454   1.183  77.337  1.7801 -0.8532 -1.0936
17487TIP3   OH273951   2.492   0.023  86.908 -0.1245 -0.4699  0.2875
17487TIP3    H173952   2.566   0.014  86.847  0.0124  0.3420  0.3273
17487TIP3    H273953   2.416   0.027  86.851  0.0246  0.5368  0.1401
17488TIP3   OH273954   1.433   0.808  63.358  0.5095  0.9249  1.0587
17488TIP3    H173955   1.450   0.897  63.386  1.1449  0.3078  2.7757
17488TIP3    H273956   1.426   0.758  63.439  1.1731 -0.7637  0.1369
17489TIP3   OH273957   0.036   1.817  85.712 -0.0153  0.3275 -0.0290
17489TIP3    H173958   0.075   1.861  85.637 -2.2965  1.3505 -0.6978
17489TIP3    H273959  -0.041   1.772  85.677  0.5750 -1.7695  1.1894
17490TIP3   OH273960   1.711   1.954  18.358 -0.3895 -0.1447 -0.1572
17490TIP3    H173961   1.683   1.867  18.389  0.1562  0.0817  1.0138
17490TIP3    H273962   1.643   2.013  18.390 -0.0349  0.0433  0.2390
17491TIP3   OH273963   1.447   1.621  98.112 -0.3656 -0.5485 -0.1357
17491TIP3    H173964   1.518   1.564  98.141 -2.2038 -1.9226  1.9670
17491TIP3    H273965   1.377   1.562  98.086 -1.4906  0.7633 -0.2203
17492TIP3   OH273966   2.539   0.723  10.762 -0.5482 -0.0079 -0.1105
17492TIP3    H173967   2.514   0.642  10.718 -0.1874 -0.6126  0.7607
17492TIP3    H273968   2.612   0.698  10.819  0.1831  1.1254 -0.5069
17493TIP3   OH273969   0.583   0.520  31.861  0.0326  0.7932  0.4868
17493TIP3    H173970   0.533   0.557  31.934  0.4320  2.4755 -0.0420
17493TIP3    H273971   0.539   0.554  31.783  0.3176 -0.0279 -0.0420
17494TIP3   OH273972   1.686   1.629  32.123  0.0200 -0.0405 -0.4649
17494TIP3    H173973   1.719   1.691  32.058  1.0999  0.5201  0.5868
17494TIP3    H273974   1.683   1.545  32.076  1.5706  0.1891 -1.0249
17495TIP3   OH273975   2.440   0.972  80.837  0.4635 -0.2624  0.3519
17495TIP3    H173976   2.439   0.897  80.895 -1.3960  0.4301  1.3029
17495TIP3    H273977   2.473   1.044  80.891  1.6200 -0.2220 -0.3660
17496TIP3   OH273978   0.084   2.081 102.738 -0.0031  0.0235 -0.0948
17496TIP3    H173979   0.128   2.122 102.812  0.9127  1.4799 -1.3790
17496TIP3    H273980   0.036   2.008 102.776  1.1626  0.1765  1.7895
17497TIP3   OH273981   0.550   0.527  75.114 -0.3700 -0.2788 -1.0711
17497TIP3    H173982   0.607   0.576  75.174 -0.4189 -0.4511 -0.8852
17497TIP3    H273983   0.462   0.559  75.133 -0.4777 -0.9061 -0.5012
17498TIP3   OH273984   0.018   0.454  34.657 -0.8267  0.0225 -0.4530
17498TIP3    H173985   0.086   0.387  34.665 -1.6205 -0.6392  1.0735
17498TIP3    H273986  -0.055   0.410  34.613 -0.5694  0.5310 -1.4277
17499TIP3   OH273987   1.202   2.478  34.640  0.0566 -0.0688 -0.2873
17499TIP3    H173988   1.229   2.557  34.594  0.8213  0.3739  0.8613
17499TIP3    H273989   1.118   2.501  34.681  0.1714  0.0887 -0.1377
17500TIP3   OH273990   2.405   0.237 107.604 -0.0103  0.4300  0.0934
17500TIP3    H173991   2.324   0.204 107.642 -0.6032 -0.4010 -1.7900
17500TIP3    H273992   2.408   0.199 107.517  2.3195  0.6120  0.0320
17501TIP3   OH273993   0.410   0.992  79.183  0.4835 -0.1797  0.6246
17501TIP3    H173994   0.358   1.052  79.129  1.4442 -0.4613 -0.6740
17501TIP3    H273995   0.415   1.034  79.268  0.3475  1.1429  0.0039
17502TIP3   OH273996   2.492   2.421  82.403  0.0955 -0.3521 -0.1604
17502TIP3    H173997   2.572   2.475  82.399 -0.0681 -0.1052 -0.1388
17502TIP3    H273998   2.433   2.471  82.460 -1.0772  0.8120 -2.2517
17503TIP3   OH273999   1.762   0.961  26.861  0.0715  0.4781 -0.3225
17503TIP3    H174000   1.812   0.928  26.787  0.5915  0.3496  0.0801
17503TIP3    H274001   1.823   0.959  26.935 -0.6351 -0.0784  0.2718
17504TIP3   OH274002   2.006   0.600  26.364  0.4531  0.1903  0.1484
17504TIP3    H174003   1.928   0.624  26.415  0.0614 -0.9895  0.1385
17504TIP3    H274004   2.050   0.683  26.347 -1.9165  1.2056 -1.6819
17505TIP3   OH274005   2.010   1.672  19.748 -0.1723 -0.6564  0.3117
17505TIP3    H174006   1.976   1.726  19.819 -0.7715  1.0024 -1.1813
17505TIP3    H274007   1.987   1.719  19.668  2.9616 -1.0023 -0.9363
17506TIP3   OH274008   0.064   1.117 107.463 -0.0471  0.4483 -0.2098
17506TIP3    H174009   0.028   1.051 107.523 -0.1530 -0.5602 -1.3395
17506TIP3    H274010   0.011   1.195 107.478 -0.2568  0.1193  0.7994
17507TIP3   OH274011   1.422   0.457  76.266 -0.4073  0.4928  0.3777
17507TIP3    H174012   1.511   0.459  76.232  0.3641 -1.6054  2.0084
17507TIP3    H274013   1.368   0.429  76.192  0.7864 -1.1682  0.0666
17508TIP3   OH274014   2.045   1.187 111.293 -0.7869 -0.0035 -0.6351
17508TIP3    H174015   2.020   1.131 111.220  0.4493  0.8851 -1.8135
17508TIP3    H274016   2.131   1.154 111.320 -0.9697  0.0511  0.0365
17509TIP3   OH274017   2.452   1.221  17.606  0.3005 -0.0099 -0.4832
17509TIP3    H174018   2.414   1.282  17.543  1.5462  0.4446 -0.8059
17509TIP3    H274019   2.473   1.275  17.682 -0.1111 -0.3522 -0.1156
17510TIP3   OH274020   0.610   2.660 106.134  0.4174 -0.0251 -0.2013
17510TIP3    H174021   0.688   2.676 106.188  0.4436 -0.6323 -0.0511
17510TIP3    H274022   0.645   2.640 106.047  0.4116  0.1840 -0.2531
17511TIP3   OH274023   0.253   0.559  77.927 -0.2504 -0.0146  0.4536
17511TIP3    H174024   0.277   0.602  78.010  0.5530  2.3975 -0.9321
17511TIP3    H274025   0.158   0.551  77.930 -0.3007  0.7698  1.2710
17512TIP3   OH274026   0.013   0.520  93.418  0.4055 -0.4115 -0.6153
17512TIP3    H174027   0.054   0.446  93.463 -0.9006 -1.6028 -1.3247
17512TIP3    H274028  -0.062   0.543  93.473  2.3629  2.3343  1.1480
17513TIP3   OH274029   2.001   0.164  26.882  0.0668 -0.1573 -0.4942
17513TIP3    H174030   2.024   0.228  26.814  0.6444 -0.2368 -0.3804
17513TIP3    H274031   1.945   0.212  26.943 -0.5710 -0.1206 -1.0909
17514TIP3   OH274032   0.033   1.459 106.191 -0.7535 -0.1162 -0.0576
17514TIP3    H174033   0.009   1.550 106.205 -1.4628 -0.2978 -0.0681
17514TIP3    H274034   0.057   1.427 106.278  2.9160  0.9973 -0.4878
17515TIP3   OH274035   1.852   2.072  29.567 -0.5303  0.0959 -0.6248
17515TIP3    H174036   1.841   2.149  29.512  0.9219 -0.7365 -2.2122
17515TIP3    H274037   1.797   2.005  29.526  0.4056 -0.4755 -0.9951
17516TIP3   OH274038   1.283   0.733  79.244  0.3429 -0.5472  0.0872
17516TIP3    H174039   1.224   0.800  79.210  0.8180 -0.8990 -1.5275
17516TIP3    H274040   1.370   0.774  79.242  0.6551 -1.2134 -1.0230
17517TIP3   OH274041   1.348   1.373  98.025 -0.1589 -0.0605  0.6657
17517TIP3    H174042   1.260   1.358  98.061 -0.4880  0.4595  0.1073
17517TIP3    H274043   1.391   1.288  98.029 -1.2756 -0.7141 -0.6067
17518TIP3   OH274044   1.857   1.490   8.677 -0.3804 -0.2561 -0.1580
17518TIP3    H174045   1.775   1.490   8.627 -0.3488 -1.7981 -0.2642
17518TIP3    H274046   1.833   1.525   8.763 -1.0642 -0.3547 -0.3063
17519TIP3   OH274047   2.457   1.925  46.936  0.4438  0.8129 -0.7820
17519TIP3    H174048   2.367   1.905  46.960  0.0539  0.8078 -2.1840
17519TIP3    H274049   2.503   1.932  47.020  0.0702 -3.2468 -0.0414
17520TIP3   OH274050   1.582   2.201   8.231  0.2361 -0.3625  0.4756
17520TIP3    H174051   1.596   2.190   8.325  0.0606  0.2605  0.5804
17520TIP3    H274052   1.663   2.242   8.199  0.4440 -0.9129  0.2878
17521TIP3   OH274053   2.666   2.496  73.698  0.1678 -0.0291  0.9130
17521TIP3    H174054   2.614   2.519  73.775 -0.7722  0.7378  0.0711
17521TIP3    H274055   2.609   2.516  73.624  1.3247 -0.0622 -0.0101
17522TIP3   OH274056   1.311   1.221 107.843  0.0851 -0.5950  0.0200
17522TIP3    H174057   1.216   1.228 107.849  0.2076  0.3559  1.2436
17522TIP3    H274058   1.335   1.164 107.916  0.5578  0.3139  0.5890
17523TIP3   OH274059   2.375   2.138  33.688 -0.0294  0.3183 -0.0547
17523TIP3    H174060   2.423   2.142  33.771 -0.3001 -0.9309  0.1844
17523TIP3    H274061   2.289   2.103  33.712  0.0200 -0.4069 -0.9014
17524TIP3   OH274062   1.966   0.399 106.981 -0.4236 -0.5689 -0.3912
17524TIP3    H174063   1.931   0.484 106.954  1.5794 -0.0051 -1.4331
17524TIP3    H274064   2.025   0.374 106.910  3.2009 -0.2462  2.2147
17525TIP3   OH274065   2.155   1.941 103.174  0.1983  0.4660 -0.2575
17525TIP3    H174066   2.069   1.909 103.202  1.0073 -0.6928  1.0071
17525TIP3    H274067   2.141   1.974 103.085 -1.4260 -0.2207 -0.2829
17526TIP3   OH274068   1.506   1.803  98.985 -0.3745 -0.3725  0.3770
17526TIP3    H174069   1.552   1.879  99.019 -0.0531 -0.6512  0.5688
17526TIP3    H274070   1.414   1.829  98.983 -0.0657  0.7958 -1.6168
17527TIP3   OH274071   0.488   1.272 111.275  0.1477 -0.3675  0.3511
17527TIP3    H174072   0.472   1.265 111.369  0.7176 -0.2964  0.4621
17527TIP3    H274073   0.512   1.364 111.261 -2.8054  0.4194 -0.3289
17528TIP3   OH274074   0.133   2.061   9.433 -0.7219  0.2059 -0.3022
17528TIP3    H174075   0.138   2.154   9.452 -0.1034  0.6680 -2.4764
17528TIP3    H274076   0.221   2.027   9.449 -0.6100  0.2782 -0.7394
17529TIP3   OH274077   1.735   0.806   5.079  0.4194 -0.1651  0.5529
17529TIP3    H174078   1.728   0.879   5.018  0.3149 -0.1318  0.6048
17529TIP3    H274079   1.811   0.757   5.049  1.7191  1.0730  1.6853
17530TIP3   OH274080   1.555   0.205 108.172  0.1110  0.2582  0.1407
17530TIP3    H174081   1.620   0.215 108.242  1.4876  0.7764 -1.1533
17530TIP3    H274082   1.536   0.295 108.144  0.8732  0.0247 -1.2439
17531TIP3   OH274083   2.627   1.911   8.790  0.0734 -0.1367  0.2780
17531TIP3    H174084   2.583   1.838   8.746 -0.4255  0.7965 -0.8221
17531TIP3    H274085   2.575   1.988   8.766  0.3237  0.5393  1.7858
17532TIP3   OH274086   1.734   0.673  92.760 -0.2477  0.3053  0.4528
17532TIP3    H174087   1.758   0.653  92.851 -1.7194  0.5376  0.9212
17532TIP3    H274088   1.787   0.613  92.708  0.1176 -0.3180  1.4999
17533TIP3   OH274089   2.592   0.195  81.149  0.2715  0.5293 -0.3849
17533TIP3    H174090   2.560   0.105  81.139 -1.6501  1.1432 -0.2414
17533TIP3    H274091   2.516   0.249  81.129  1.1705  2.1140  0.3162
17534TIP3   OH274092   0.325   1.022  80.946  0.1473  0.3240  0.3372
17534TIP3    H174093   0.298   0.954  81.008 -0.9886  0.1153 -0.3724
17534TIP3    H274094   0.413   0.996  80.919  0.9273  0.7350  2.2841
17535TIP3   OH274095   2.237   2.404  78.426 -0.0785 -0.3696 -0.0239
17535TIP3    H174096   2.313   2.461  78.411  0.6226 -0.9801  1.0708
17535TIP3    H274097   2.274   2.325  78.467 -1.1873 -1.0913 -0.3769
17536TIP3   OH274098   1.257   2.313  77.993 -0.5573 -0.7762 -0.7185
17536TIP3    H174099   1.262   2.217  77.998 -3.0372 -0.9199  0.5581
17536TIP3    H274100   1.337   2.339  77.948  1.2811 -3.2805  0.8622
17537TIP3   OH274101   1.944   0.956  23.326 -0.3978 -0.3050 -0.2013
17537TIP3    H174102   1.999   1.028  23.296 -1.6995  1.1901  0.8242
17537TIP3    H274103   1.979   0.934  23.412 -1.0312  0.2926  0.2246
17538TIP3   OH274104   0.740   0.695  19.066 -0.2417  0.4463  0.4197
17538TIP3    H174105   0.719   0.742  18.985 -1.3245 -0.1878  0.3025
17538TIP3    H274106   0.698   0.746  19.135  1.3228  1.4033  0.6943
17539TIP3   OH274107   1.796   0.899  24.113 -0.1517  0.1057 -0.7616
17539TIP3    H174108   1.730   0.895  24.182  0.7808 -0.4935  0.1285
17539TIP3    H274109   1.757   0.849  24.041 -0.4925 -0.6590 -0.0738
17540TIP3   OH274110   0.621   0.405  83.819 -0.0260 -0.2504  0.0071
17540TIP3    H174111   0.711   0.423  83.846 -0.6020  1.6854  0.8103
17540TIP3    H274112   0.593   0.334  83.877  0.2210  0.7837  1.4423
17541TIP3   OH274113   2.107   2.218  35.953 -0.0686  0.1874  0.3024
17541TIP3    H174114   2.143   2.299  35.990 -0.3974  0.3092  0.3593
17541TIP3    H274115   2.184   2.170  35.923  0.0909  0.8495 -0.4086
17542TIP3   OH274116   0.084   0.869  36.335 -0.6196  0.5948 -0.3099
17542TIP3    H174117   0.116   0.948  36.290 -2.4875 -0.4824 -3.9070
17542TIP3    H274118  -0.008   0.888  36.354 -0.8671 -0.3993 -0.4569
17543TIP3   OH274119   1.985   1.579  86.885  0.1973 -0.5076 -0.3209
17543TIP3    H174120   1.983   1.625  86.801 -0.1930  0.3289  0.1364
17543TIP3    H274121   2.076   1.582  86.912  0.4906 -1.5403 -1.1102
17544TIP3   OH274122   0.741   1.232  63.355 -0.0476  0.2950  0.1074
17544TIP3    H174123   0.732   1.274  63.441 -2.4034  0.1141  0.0115
17544TIP3    H274124   0.835   1.214  63.347  0.3591  1.1748  2.2261
17545TIP3   OH274125   1.996   0.349  19.790  0.0898 -0.2162  0.1234
17545TIP3    H174126   1.943   0.402  19.849  0.4355  0.6971 -0.3622
17545TIP3    H274127   2.062   0.309  19.847 -0.8724 -1.0631  0.6710
17546TIP3   OH274128   0.595   2.622  21.675  0.0017  0.5379  0.1644
17546TIP3    H174129   0.592   2.650  21.766 -0.3545 -1.0016  0.6589
17546TIP3    H274130   0.655   2.547  21.675 -0.6897 -0.0322 -0.6859
17547TIP3   OH274131   1.463   0.736  24.353 -0.2506  0.2182  0.4160
17547TIP3    H174132   1.538   0.771  24.402  0.3273 -0.5705  0.1152
17547TIP3    H274133   1.467   0.778  24.268 -0.5949  0.7346  0.6460
17548TIP3   OH274134   2.388   1.497  88.951  0.2309  0.2006  0.3228
17548TIP3    H174135   2.348   1.579  88.979  0.4120  0.7590 -0.9573
17548TIP3    H274136   2.372   1.494  88.856  1.8627 -0.3144  0.0371
17549TIP3   OH274137   0.473   2.237 104.211  0.0394 -0.0996 -0.2642
17549TIP3    H174138   0.500   2.217 104.121 -0.2205 -0.6760 -0.2203
17549TIP3    H274139   0.532   2.306 104.240 -0.3920  0.6459 -1.1464
17550TIP3   OH274140   0.840   1.475  38.061  0.2359 -0.5317 -0.3477
17550TIP3    H174141   0.897   1.501  37.988 -0.2365 -0.3069 -0.6465
17550TIP3    H274142   0.814   1.385  38.041  0.4978 -0.6411 -0.2022
17551TIP3   OH274143   1.299   1.494 110.357  0.1709 -0.5220  0.6198
17551TIP3    H174144   1.346   1.505 110.440  0.4034  0.4098  0.3763
17551TIP3    H274145   1.292   1.399 110.346  1.1683 -0.6683  1.1284
17552TIP3   OH274146   1.363   0.571   4.605 -0.4966 -0.1902  0.3295
17552TIP3    H174147   1.371   0.495   4.663  2.0550  0.3647  0.8389
17552TIP3    H274148   1.425   0.555   4.534  0.0003  1.3211  0.3725
17553TIP3   OH274149   1.637   0.550  35.639 -0.0077 -0.4579 -0.2017
17553TIP3    H174150   1.702   0.482  35.624 -1.4079 -2.0534  0.7220
17553TIP3    H274151   1.598   0.529  35.723 -2.2101  0.0338 -1.0362
17554TIP3   OH274152   2.322   0.966  28.445  0.2382  0.4389  0.4394
17554TIP3    H174153   2.339   0.885  28.396 -1.4819 -0.2152  0.8679
17554TIP3    H274154   2.399   1.021  28.427  0.7954 -0.7301 -0.9965
17555TIP3   OH274155   0.007   1.884   1.483 -0.2120  0.4655 -0.5964
17555TIP3    H174156   0.059   1.819   1.529  0.2538  0.1805 -1.5035
17555TIP3    H274157  -0.051   1.920   1.550 -0.8257 -1.2185 -0.1661
17556TIP3   OH274158   0.991   1.233  93.336 -0.1959 -0.1450  0.5776
17556TIP3    H174159   0.955   1.149  93.365  0.7453 -1.0317 -0.7225
17556TIP3    H274160   1.074   1.241  93.382  0.5902 -0.8352 -0.6857
17557TIP3   OH274161   1.475   1.369 101.774 -0.0239 -0.1260 -0.5337
17557TIP3    H174162   1.514   1.351 101.860  0.2002 -1.5873 -0.9095
17557TIP3    H274163   1.397   1.421 101.794  1.0780  1.2474  0.3863
17558TIP3   OH274164   0.798   1.622  52.986 -0.3511 -0.5034  0.1540
17558TIP3    H174165   0.873   1.572  53.018  0.1321  0.9314  1.4152
17558TIP3    H274166   0.823   1.648  52.897 -0.3617 -1.9532 -0.2838
17559TIP3   OH274167   0.317   1.553 103.283  0.2753  0.0462 -0.3237
17559TIP3    H174168   0.226   1.553 103.252  0.5005 -0.0667 -1.0152
17559TIP3    H274169   0.310   1.560 103.378 -0.4810 -0.7683 -0.2982
17560TIP3   OH274170   2.593   1.103  87.377 -0.1801  0.1486 -0.2443
17560TIP3    H174171   2.646   1.110  87.457 -1.1775 -0.2211  0.4716
17560TIP3    H274172   2.530   1.176  87.384  0.4084  0.7632 -1.2320
17561TIP3   OH274173   2.035   1.878  34.357 -0.0558 -0.3420  0.6538
17561TIP3    H174174   2.079   1.823  34.421 -0.0544 -0.5253  0.4980
17561TIP3    H274175   2.050   1.967  34.387 -2.1019 -0.4581  2.2681
17562TIP3   OH274176   0.224   0.365  97.020  0.2127 -0.2992 -0.2682
17562TIP3    H174177   0.284   0.436  97.042  0.4487  0.0824 -1.9780
17562TIP3    H274178   0.190   0.335  97.105  1.3901  0.7171  0.6027
17563TIP3   OH274179   0.938   0.923  87.367  0.7283 -0.3339  0.7526
17563TIP3    H174180   0.949   0.842  87.417 -0.3861 -0.9449  0.0391
17563TIP3    H274181   0.869   0.970  87.412  0.5818 -0.3120  0.5092
17564TIP3   OH274182   1.098   1.409  98.296  0.3943 -0.1466  0.5822
17564TIP3    H174183   1.094   1.359  98.215  0.8371 -2.0788  1.6928
17564TIP3    H274184   1.191   1.417  98.315  0.3321  1.1029  0.4502
17565TIP3   OH274185   1.904   2.258  37.808 -0.0602 -0.0194  0.4124
17565TIP3    H174186   1.900   2.317  37.883  0.2010  0.1208  0.3179
17565TIP3    H274187   1.819   2.215  37.806 -0.2246  0.2986  0.5289
17566TIP3   OH274188   0.999   2.584  98.260 -0.1210 -0.5274  0.2063
17566TIP3    H174189   0.910   2.619  98.265  1.3472  3.7223  0.3002
17566TIP3    H274190   1.019   2.557  98.350 -0.5865  0.6431  0.6716
17567TIP3   OH274191   1.121   2.307  20.097  0.1551 -0.3884  0.0890
17567TIP3    H174192   1.060   2.342  20.032 -0.6893 -1.3779  0.3222
17567TIP3    H274193   1.184   2.377  20.110 -0.0131  0.0646 -1.3363
17568TIP3   OH274194   2.496   0.049  23.656  0.3350 -0.1107  0.1183
17568TIP3    H174195   2.572   0.013  23.610  0.6914 -0.7857  1.1980
17568TIP3    H274196   2.444  -0.027  23.681 -1.4771  0.3829 -1.8071
17569TIP3   OH274197   0.951   0.104  11.718 -0.2721  0.1092 -0.3086
17569TIP3    H174198   1.034   0.103  11.671  0.0738 -1.5875  0.2588
17569TIP3    H274199   0.885   0.115  11.650  0.3883  0.9580 -0.8209
17570TIP3   OH274200   0.979   0.423  22.868 -0.7556 -0.1825  0.4901
17570TIP3    H174201   0.996   0.452  22.778  1.7051  1.4839  1.3816
17570TIP3    H274202   0.998   0.329  22.866  1.5683  0.2298 -0.3044
17571TIP3   OH274203   1.116   2.507  84.309  0.1617  0.2759 -0.1248
17571TIP3    H174204   1.041   2.501  84.368  0.1259  0.7443 -0.1162
17571TIP3    H274205   1.193   2.502  84.366  0.1314  0.1032 -0.0979
17572TIP3   OH274206   2.193   0.176  73.197  0.2066 -0.3812  0.2504
17572TIP3    H174207   2.234   0.110  73.142  0.7205  1.7998 -2.2198
17572TIP3    H274208   2.256   0.248  73.200 -1.4193  1.1169  0.4311
17573TIP3   OH274209   1.336   0.531  10.810  0.4632 -0.2985  0.1672
17573TIP3    H174210   1.300   0.500  10.893 -0.7950 -1.2182 -0.6756
17573TIP3    H274211   1.394   0.604  10.834 -0.6118  0.0849  1.7509
17574TIP3   OH274212   0.133   2.102  67.332 -0.7157  0.0852 -0.1816
17574TIP3    H174213   0.199   2.066  67.391 -0.6401 -0.8790 -0.8286
17574TIP3    H274214   0.063   2.134  67.389 -0.1474  0.1810  0.4608
17575TIP3   OH274215   0.531   1.410  16.296  0.3944 -0.7384  0.1419
17575TIP3    H174216   0.502   1.320  16.311 -0.9015 -0.2972  0.3776
17575TIP3    H274217   0.480   1.462  16.358  1.9195  0.0504  0.7844
17576TIP3   OH274218   1.368   2.529  96.091  0.0279 -0.2681  0.1857
17576TIP3    H174219   1.375   2.537  95.996 -0.6682 -0.4335  0.1160
17576TIP3    H274220   1.416   2.604  96.125  1.6070 -1.0374 -0.2475
17577TIP3   OH274221   1.486   2.050 105.622 -0.2170 -0.1420 -0.6949
17577TIP3    H174222   1.554   2.033 105.688  0.4271 -0.4511 -1.4164
17577TIP3    H274223   1.446   1.965 105.607 -1.7303  0.2754  0.7100
17578TIP3   OH274224   1.260   0.873   1.311 -0.0918 -0.5559  0.0243
17578TIP3    H174225   1.244   0.796   1.255  0.4573 -0.7659  0.1539
17578TIP3    H274226   1.313   0.931   1.256 -1.4033  0.2257 -0.4739
17579TIP3   OH274227   0.364   0.768  94.959  0.6535  0.1409  0.3589
17579TIP3    H174228   0.449   0.728  94.938  1.0830  1.8161 -1.3522
17579TIP3    H274229   0.372   0.858  94.928 -1.3008  0.7329  1.4236
17580TIP3   OH274230   1.164   0.515  84.691 -0.4838  0.3347  0.1717
17580TIP3    H174231   1.216   0.459  84.749  0.4371  0.7258 -0.2588
17580TIP3    H274232   1.074   0.505  84.722 -0.1304 -0.2112  1.0503
17581TIP3   OH274233   1.679   0.574   6.737 -0.3430  0.2932 -0.0492
17581TIP3    H174234   1.618   0.629   6.786 -1.7815 -0.1977 -1.2158
17581TIP3    H274235   1.696   0.500   6.795 -2.6397 -0.6695 -0.4928
17582TIP3   OH274236   1.564   1.525  26.727 -0.0776 -0.0662 -0.3958
17582TIP3    H174237   1.586   1.441  26.686  0.3855  1.0935 -2.6637
17582TIP3    H274238   1.469   1.533  26.715  0.1270  0.5203 -1.8759
17583TIP3   OH274239   2.229   0.305  78.905  0.4606  0.4675  0.7863
17583TIP3    H174240   2.313   0.306  78.950  0.5068 -0.1773  0.7234
17583TIP3    H274241   2.221   0.216  78.870  0.1029  0.7469  0.1327
17584TIP3   OH274242   2.298   0.386  40.460 -0.7156 -0.4010 -0.4769
17584TIP3    H174243   2.253   0.470  40.455 -1.9747 -0.9825  0.5261
17584TIP3    H274244   2.269   0.339  40.382 -0.2183 -0.0072 -0.9021
17585TIP3   OH274245   1.458   0.518  15.182  0.3628  0.1338  0.2030
17585TIP3    H174246   1.494   0.478  15.261  0.0743 -0.3932  0.0708
17585TIP3    H274247   1.375   0.556  15.210  0.8904  1.1308  0.4516
17586TIP3   OH274248   0.889   0.963  88.171 -0.0539  0.1625  0.0802
17586TIP3    H174249   0.834   0.953  88.249 -2.6185  0.6103 -1.5580
17586TIP3    H274250   0.924   1.052  88.178 -1.5278  0.7692 -0.0098
17587TIP3   OH274251   0.374   0.946   1.799  0.3445  0.6676 -0.2437
17587TIP3    H174252   0.393   0.853   1.793 -0.6429  0.3868  0.7290
17587TIP3    H274253   0.438   0.980   1.861  0.6031  0.6178 -0.4792
17588TIP3   OH274254   2.560   1.719  97.016  0.4165  0.4054 -0.2779
17588TIP3    H174255   2.603   1.754  97.094  0.9505  2.3207 -1.3818
17588TIP3    H274256   2.570   1.787  96.950 -2.4290  0.0104 -1.2469
17589TIP3   OH274257   1.679   1.392  10.729 -0.1506 -0.3438 -0.4731
17589TIP3    H174258   1.753   1.378  10.788  0.2370 -0.2676 -0.9345
17589TIP3    H274259   1.700   1.473  10.683 -0.5611 -0.2815 -0.5571
17590TIP3   OH274260   0.017   1.865  14.027  0.1652 -0.6270  0.0550
17590TIP3    H174261  -0.059   1.811  14.007 -0.3261 -0.4956  1.4354
17590TIP3    H274262  -0.019   1.940  14.075  1.0912 -0.2346  0.1580
17591TIP3   OH274263   1.132   0.971  18.612  0.4067 -0.1413  0.2364
17591TIP3    H174264   1.083   1.038  18.660  1.0336 -0.1036  0.8474
17591TIP3    H274265   1.076   0.949  18.538 -0.6744 -0.3240  1.0797
17592TIP3   OH274266   2.099   0.104  86.369 -0.1892  0.2763 -0.4086
17592TIP3    H174267   2.107   0.040  86.440  0.3565  0.3908 -0.3646
17592TIP3    H274268   2.189   0.127  86.347 -0.3681  0.5877 -0.8276
17593TIP3   OH274269   0.995   1.387  12.804 -0.2247  0.2165  0.0205
17593TIP3    H174270   1.025   1.388  12.895 -0.4248 -2.1379  0.1731
17593TIP3    H274271   0.899   1.392  12.811 -0.1893  1.7237 -0.1849
17594TIP3   OH274272   0.751   0.386  93.418 -0.4498 -0.7201  0.0084
17594TIP3    H174273   0.684   0.342  93.366 -0.9113  0.7493 -0.7176
17594TIP3    H274274   0.711   0.398  93.504 -0.7527 -0.7174 -0.1357
17595TIP3   OH274275   0.759   1.583  86.733  0.2667 -0.3838  0.0587
17595TIP3    H174276   0.714   1.622  86.808 -0.0592 -1.4058  0.4141
17595TIP3    H274277   0.697   1.591  86.660  0.5695  0.5765 -0.1104
17596TIP3   OH274278   1.583   1.521  91.774  0.1449 -0.4184  0.8019
17596TIP3    H174279   1.605   1.511  91.867 -1.1832 -2.5458  0.9369
17596TIP3    H274280   1.665   1.503  91.728  0.5739 -0.3600  1.5160
17597TIP3   OH274281   1.131   2.047  85.673 -0.0784  0.6515 -0.3849
17597TIP3    H174282   1.118   2.093  85.756 -0.0056 -0.2356  0.1276
17597TIP3    H274283   1.214   2.002  85.684  0.3464  1.1995 -1.2678
17598TIP3   OH274284   1.818   0.975  12.226  0.1596 -0.5948  0.2999
17598TIP3    H174285   1.851   1.065  12.230 -0.9829 -0.0953 -0.6899
17598TIP3    H274286   1.880   0.929  12.170  1.0815 -0.6051  1.2854
17599TIP3   OH274287   0.943   2.279  90.064 -0.6892  0.3622 -0.1305
17599TIP3    H174288   0.945   2.183  90.062 -0.1182  0.3808 -0.5587
17599TIP3    H274289   0.938   2.305  89.972  0.6041  0.7626 -0.1045
17600TIP3   OH274290   2.653   1.595  79.621 -0.0023  0.0211  0.3156
17600TIP3    H174291   2.739   1.632  79.640 -0.0140  0.8834 -1.0958
17600TIP3    H274292   2.593   1.670  79.630 -0.1893  0.1370 -1.4549
17601TIP3   OH274293   0.243   2.191  15.847 -0.5509 -0.0170  0.6007
17601TIP3    H174294   0.227   2.200  15.753 -0.4993  0.2389  0.6159
17601TIP3    H274295   0.157   2.177  15.885 -0.5414 -0.4112  0.4838
17602TIP3   OH274296   2.125   1.963  93.725 -0.0800 -0.1527  0.4760
17602TIP3    H174297   2.108   1.875  93.692  1.1566 -2.0182  4.2932
17602TIP3    H274298   2.045   1.987  93.773  1.0001 -1.0136  2.8239
17603TIP3   OH274299   0.782   1.373  97.850  0.7104 -0.2619  0.0040
17603TIP3    H174300   0.798   1.301  97.912 -1.5860  0.0525  1.0795
17603TIP3    H274301   0.770   1.329  97.766 -1.2535 -1.2748  0.7456
17604TIP3   OH274302   0.208   0.187  13.536 -0.2224 -0.0649  0.1232
17604TIP3    H174303   0.149   0.261  13.522  0.3478  0.1878 -1.0013
17604TIP3    H274304   0.292   0.226  13.557 -0.2042 -0.4220  0.7675
17605TIP3   OH274305   0.059   0.473  80.771 -0.6122  0.6965  0.3597
17605TIP3    H174306   0.054   0.425  80.854  1.9573 -1.6609 -0.6668
17605TIP3    H274307   0.127   0.539  80.785  0.5696 -0.3835 -0.0971
17606TIP3   OH274308   1.638   2.127  17.183  0.2273 -0.1046 -0.2276
17606TIP3    H174309   1.637   2.082  17.098 -2.9553  1.9296 -1.4723
17606TIP3    H274310   1.709   2.190  17.176  0.0694 -0.0351 -1.3872
17607TIP3   OH274311   0.792   1.341  21.866 -0.2058  0.2343 -0.3221
17607TIP3    H174312   0.715   1.312  21.817 -0.2982  0.7424 -0.4817
17607TIP3    H274313   0.857   1.360  21.800  0.4459 -1.2485 -0.1453
17608TIP3   OH274314   0.733   1.581  18.688 -0.6871  0.2670 -0.3452
17608TIP3    H174315   0.823   1.613  18.684 -0.7075  0.2907 -0.6511
17608TIP3    H274316   0.685   1.650  18.734 -0.4108 -0.0745  0.4808
17609TIP3   OH274317   0.191   1.711 107.032 -0.2958 -0.2497 -0.1077
17609TIP3    H174318   0.095   1.717 107.037 -0.3900 -2.2214  1.7623
17609TIP3    H274319   0.211   1.622 107.058  2.0282 -0.2922 -1.7017
17610TIP3   OH274320   0.286   1.173  75.286 -0.4677  0.5628 -0.3718
17610TIP3    H174321   0.229   1.103  75.317  2.7019 -1.9592  0.3100
17610TIP3    H274322   0.242   1.253  75.314 -0.9993 -1.2861  5.4493
17611TIP3   OH274323   0.842   1.513  26.817 -0.4400  0.4317 -0.3820
17611TIP3    H174324   0.758   1.491  26.776 -0.4837  2.4644 -1.5249
17611TIP3    H274325   0.902   1.523  26.743  0.5681  0.0412  0.3681
17612TIP3   OH274326   1.893   0.253 110.466  0.7927 -0.0018  0.3316
17612TIP3    H174327   1.951   0.282 110.395  0.0232  2.0073  0.4526
17612TIP3    H274328   1.810   0.297 110.449 -0.6010 -2.4047  0.4604
17613TIP3   OH274329   1.979   0.930   5.687 -0.0219 -0.3765 -0.2839
17613TIP3    H174330   1.978   0.835   5.702 -0.4257 -0.2802  0.3453
17613TIP3    H274331   2.056   0.945   5.632  1.4369 -0.7808  1.5392
17614TIP3   OH274332   1.272   1.442  91.582  0.2786  0.3276 -0.4636
17614TIP3    H174333   1.210   1.482  91.521 -0.1451  0.5775  0.1235
17614TIP3    H274334   1.217   1.390  91.641  0.4152  1.9339  1.1743
17615TIP3   OH274335   2.416   1.320  32.119 -0.1694 -0.6367 -0.0289
17615TIP3    H174336   2.428   1.410  32.090  0.4833 -0.1851  1.5519
17615TIP3    H274337   2.489   1.304  32.178 -0.8574 -1.8618  0.5222
17616TIP3   OH274338   2.044   0.044 106.310 -0.1916 -0.4535  0.0072
17616TIP3    H174339   2.051  -0.030 106.372 -0.5139  1.3221  2.3143
17616TIP3    H274340   1.952   0.069 106.313 -0.1923 -0.2978 -1.1786
17617TIP3   OH274341   1.263   0.389  18.553 -0.0148 -0.2406  0.2151
17617TIP3    H174342   1.192   0.335  18.584  0.5447 -0.4957  1.0826
17617TIP3    H274343   1.329   0.327  18.520 -0.6659  0.0141 -1.7337
17618TIP3   OH274344   1.190   0.551  15.235  0.0415 -0.3721 -0.9150
17618TIP3    H174345   1.150   0.490  15.172  0.3929 -1.0817 -0.4687
17618TIP3    H274346   1.115   0.597  15.273 -0.1502  0.3870 -2.1539
17619TIP3   OH274347   0.351   0.322  15.800  0.1779 -0.1480  0.2151
17619TIP3    H174348   0.318   0.274  15.875 -0.2517  1.5146  1.1369
17619TIP3    H274349   0.273   0.340  15.747  0.3515 -0.5344 -0.1802
17620TIP3   OH274350   0.879   1.545  80.773 -0.6841 -0.2009  0.2753
17620TIP3    H174351   0.954   1.541  80.832 -0.5745  0.7515  0.2273
17620TIP3    H274352   0.917   1.544  80.686 -0.8201 -1.1581  0.2134
17621TIP3   OH274353   1.821   0.224  91.347  0.3638  0.0618 -0.1029
17621TIP3    H174354   1.781   0.275  91.418  0.5285 -0.0530  0.0714
17621TIP3    H274355   1.747   0.183  91.303  0.2697  0.0087  0.1011
17622TIP3   OH274356   0.579   2.561  87.297 -0.6017 -0.3009 -0.4883
17622TIP3    H174357   0.484   2.565  87.313 -0.6962 -2.6377 -0.0509
17622TIP3    H274358   0.616   2.535  87.381 -0.0299 -3.0630 -1.4978
17623TIP3   OH274359   0.346   2.527  80.660  0.2764  0.1522 -0.3309
17623TIP3    H174360   0.325   2.610  80.704 -0.9848 -0.2671 -0.0963
17623TIP3    H274361   0.302   2.460  80.713  0.0209 -0.5133 -1.3502
17624TIP3   OH274362   1.227   1.894  18.340 -0.0754 -0.0131  0.0455
17624TIP3    H174363   1.302   1.866  18.392 -0.5509 -0.8456  0.2869
17624TIP3    H274364   1.255   1.978  18.302  1.2009 -0.6025 -0.3634
17625TIP3   OH274365   1.798   2.551   2.638 -0.2304  0.3083  0.0702
17625TIP3    H174366   1.801   2.585   2.549 -0.6918 -0.2268 -0.1506
17625TIP3    H274367   1.884   2.572   2.674 -0.5281  1.8087 -0.0191
17626TIP3   OH274368   1.234   0.804  14.959 -0.1065  0.2996  0.0820
17626TIP3    H174369   1.155   0.857  14.973  0.2439  1.1212 -0.8665
17626TIP3    H274370   1.283   0.852  14.892  1.1735 -0.2296  0.6091
17627TIP3   OH274371   1.225   1.441   9.973  0.3317  0.3876  0.8170
17627TIP3    H174372   1.293   1.384  10.007 -0.1774 -1.2103 -0.6858
17627TIP3    H274373   1.235   1.436   9.878 -1.4008  0.7161  0.5894
17628TIP3   OH274374   0.699   2.155 101.890  0.1694  0.2930  0.1158
17628TIP3    H174375   0.754   2.139 101.814  0.5996 -1.1402  0.7040
17628TIP3    H274376   0.736   2.233 101.931  2.1624 -0.9784  0.8336
17629TIP3   OH274377   1.315   1.576  87.446 -0.1757 -0.1850 -0.3452
17629TIP3    H174378   1.400   1.536  87.429  0.2407  0.8691 -0.8698
17629TIP3    H274379   1.251   1.509  87.423  0.5097 -1.1374  0.4642
17630TIP3   OH274380   0.484   1.844   2.102 -0.0568 -0.3653  0.8068
17630TIP3    H174381   0.405   1.800   2.070  0.4804 -0.2154 -0.8330
17630TIP3    H274382   0.555   1.784   2.080  0.4667  0.3575  0.4809
17631TIP3   OH274383   2.423   1.771  79.628  0.7936  0.2151  0.9830
17631TIP3    H174384   2.380   1.856  79.639  0.7798  0.1984  1.0601
17631TIP3    H274385   2.402   1.723  79.708  2.2674  0.7626  1.7143
17632TIP3   OH274386   0.328   0.343  87.650 -0.2195 -0.4127 -0.6866
17632TIP3    H174387   0.383   0.350  87.572  1.3101  0.1847  0.4018
17632TIP3    H274388   0.288   0.429  87.660  1.6052  0.3680  0.5612
17633TIP3   OH274389   2.428   2.533  87.543  0.2040 -0.2113 -0.3897
17633TIP3    H174390   2.349   2.584  87.524  0.0327 -0.6593 -0.9017
17633TIP3    H274391   2.478   2.587  87.604  0.1337  0.6852 -1.1080
17634TIP3   OH274392   0.682   0.028 103.462 -0.2350 -0.0594 -0.2832
17634TIP3    H174393   0.656  -0.063 103.452 -1.1987  0.3886 -2.4815
17634TIP3    H274394   0.657   0.051 103.551  0.1343 -1.9466  0.3345
17635TIP3   OH274395   0.533   1.365  27.142  0.3595  0.0635  0.2456
17635TIP3    H174396   0.496   1.394  27.059  1.4248  0.2776 -0.1773
17635TIP3    H274397   0.618   1.408  27.147  0.6080 -0.4877  1.1274
17636TIP3   OH274398   1.115   2.086  14.682  0.2423 -0.6084  0.1196
17636TIP3    H174399   1.187   2.132  14.725  1.5360 -1.4057 -1.1424
17636TIP3    H274400   1.071   2.039  14.753  0.6553  0.2416  0.9697
17637TIP3   OH274401   2.576   1.953 102.879  0.1733  0.0506 -0.1395
17637TIP3    H174402   2.607   1.951 102.970  0.6829 -2.1257 -0.3185
17637TIP3    H274403   2.487   1.988 102.886 -0.4668 -1.7023  1.4495
17638TIP3   OH274404   2.558   2.675  49.316 -0.0203  0.4596 -0.3087
17638TIP3    H174405   2.513   2.601  49.275  1.2394 -0.2074 -0.5497
17638TIP3    H274406   2.521   2.752  49.274 -2.0562  0.0570  0.6325
17639TIP3   OH274407   1.162   0.019  74.629  0.5142  0.1989 -0.1779
17639TIP3    H174408   1.250   0.017  74.592  0.8697 -1.9965  0.6082
17639TIP3    H274409   1.125  -0.067  74.607 -0.5892  0.2061  1.4407
17640TIP3   OH274410   0.508   0.631  32.294 -0.0752  0.4541 -0.3961
17640TIP3    H174411   0.434   0.636  32.355 -0.9736  0.3067 -1.4340
17640TIP3    H274412   0.585   0.648  32.348 -0.7960 -0.1254  0.8614
17641TIP3   OH274413   1.696   2.481  15.916  0.0136  0.1391 -0.1821
17641TIP3    H174414   1.748   2.561  15.917  0.7432 -0.2916 -1.5414
17641TIP3    H274415   1.701   2.450  15.825  0.5904 -1.9911  0.5361
17642TIP3   OH274416   1.543   0.515  84.752 -0.1658 -0.0679  0.1623
17642TIP3    H174417   1.597   0.507  84.831 -1.4728 -1.1662  0.9764
17642TIP3    H274418   1.504   0.602  84.758 -1.1307 -0.5563  1.3242
17643TIP3   OH274419   1.624   1.314  83.298  0.0842  0.0481 -0.1029
17643TIP3    H174420   1.535   1.338  83.273  0.1808 -0.1044 -0.6018
17643TIP3    H274421   1.617   1.283  83.388 -0.6812 -1.7686 -0.7577
17644TIP3   OH274422   1.569   1.662 108.856 -0.3463 -0.5496  0.2272
17644TIP3    H174423   1.499   1.693 108.912 -2.2839 -2.2819 -1.0725
17644TIP3    H274424   1.645   1.654 108.914 -0.9557  2.0287  1.5337
17645TIP3   OH274425   0.607   0.310  81.988 -0.0123 -0.3470 -0.3409
17645TIP3    H174426   0.546   0.293  82.059  1.3496  1.1844  1.2728
17645TIP3    H274427   0.551   0.334  81.914 -1.3814  1.2199  1.1267
17646TIP3   OH274428   1.518   1.398  32.991  0.2236  0.3981 -0.0294
17646TIP3    H174429   1.428   1.371  33.008  0.3996  0.2174  0.6295
17646TIP3    H274430   1.515   1.494  32.993 -0.2961  0.4571 -1.8523
17647TIP3   OH274431   1.423   1.927 101.012 -0.6843  0.5751  0.2366
17647TIP3    H174432   1.450   1.985 101.083 -0.0502  0.9677 -0.3081
17647TIP3    H274433   1.466   1.843 101.032  0.6592  1.0786 -0.4102
17648TIP3   OH274434   1.341   2.123  34.152 -0.5089  0.3339 -0.3448
17648TIP3    H174435   1.384   2.055  34.100 -1.7107 -0.0519 -0.8887
17648TIP3    H274436   1.247   2.106  34.139 -0.8269  0.9252  1.0706
17649TIP3   OH274437   0.606   0.627 105.312  0.4768 -0.4691 -0.1649
17649TIP3    H174438   0.688   0.662 105.278  1.8789  0.2631  3.5171
17649TIP3    H274439   0.540   0.653 105.247  2.3616  3.5540 -0.7654
17650TIP3   OH274440   1.139   1.013  98.669 -0.4727 -0.0622 -0.2833
17650TIP3    H174441   1.053   0.996  98.709  0.2291 -1.1877  0.8408
17650TIP3    H274442   1.171   0.926  98.644 -0.2210  0.4799 -1.9363
17651TIP3   OH274443   0.905   0.340  11.331  0.2692 -0.1943 -0.3109
17651TIP3    H174444   0.940   0.412  11.278 -0.6404 -0.4644 -1.3314
17651TIP3    H274445   0.897   0.267  11.269  1.4090 -1.2624  0.7623
17652TIP3   OH274446   1.067   0.906  83.679 -0.2336  0.1330  0.1490
17652TIP3    H174447   1.036   0.933  83.766 -2.5142 -3.0004  0.4988
17652TIP3    H274448   1.106   0.819  83.693 -0.8051 -0.5260 -1.9473
17653TIP3   OH274449   2.566   2.047  84.508 -0.2435 -0.6269  0.2408
17653TIP3    H174450   2.532   2.129  84.544  1.6209 -0.2179  1.1686
17653TIP3    H274451   2.499   2.019  84.445 -1.2541  1.2145  0.4374
17654TIP3   OH274452   2.496   1.271  35.807 -0.7240  0.5204 -0.7147
17654TIP3    H174453   2.513   1.247  35.897 -2.3156 -0.3924 -0.6336
17654TIP3    H274454   2.580   1.305  35.775  0.1546 -0.2037  0.7431
17655TIP3   OH274455   2.015   2.132 105.988  0.0470 -0.1523  0.2902
17655TIP3    H174456   2.095   2.099 106.029  0.7773  0.2953 -0.7223
17655TIP3    H274457   1.953   2.060 105.993  0.7894 -0.7962  0.3504
17656TIP3   OH274458   1.342   0.680  10.347 -0.0549 -0.0397  0.0257
17656TIP3    H174459   1.299   0.643  10.424 -1.9684 -1.7024 -1.7460
17656TIP3    H274460   1.283   0.749  10.318 -0.7496 -1.2273 -1.4739
17657TIP3   OH274461   0.974   1.438 103.655  0.3399  0.0576  0.6826
17657TIP3    H174462   0.987   1.371 103.722 -1.1248  0.4155  1.3474
17657TIP3    H274463   0.921   1.395 103.588  0.2167  0.2712  0.6438
17658TIP3   OH274464   2.001   1.256  92.477  0.2069  0.1839  0.2181
17658TIP3    H174465   2.095   1.254  92.458  0.4425 -1.5210  1.3655
17658TIP3    H274466   1.964   1.190  92.419 -0.4511  1.4066 -0.8164
17659TIP3   OH274467   1.855   2.015 107.196 -0.1095 -0.4476  0.2098
17659TIP3    H174468   1.925   1.961 107.158  0.2877 -0.7661  1.3581
17659TIP3    H274469   1.799   1.953 107.241 -1.1297 -0.1857 -0.6571
17660TIP3   OH274470   2.296   2.607  93.581 -0.5119 -0.3395 -0.7415
17660TIP3    H174471   2.357   2.681  93.579  1.0562 -1.5761 -0.3466
17660TIP3    H274472   2.352   2.530  93.588 -2.1709 -1.4327  2.0755
17661TIP3   OH274473   2.182   1.844  47.216 -0.4677 -0.3960  0.1324
17661TIP3    H174474   2.267   1.876  47.186 -0.0575 -0.7746  0.8786
17661TIP3    H274475   2.120   1.874  47.149  0.2821 -0.3095 -0.5300
17662TIP3   OH274476   0.528   1.938  16.811  0.5046 -0.2622  0.8211
17662TIP3    H174477   0.534   1.994  16.888 -0.8754  1.0537  0.0433
17662TIP3    H274478   0.438   1.904  16.813  0.4744 -0.2817 -0.1244
17663TIP3   OH274479   0.719   1.211   5.151  0.0988 -0.5689  0.1954
17663TIP3    H174480   0.801   1.206   5.103  0.3767 -2.9670  0.7682
17663TIP3    H274481   0.654   1.236   5.085  1.1231  0.4546 -0.4586
17664TIP3   OH274482   1.054   0.847  34.494  0.4540 -0.0960  0.0488
17664TIP3    H174483   1.053   0.933  34.453  0.6948 -0.5395 -0.9234
17664TIP3    H274484   0.961   0.827  34.510  0.3320 -0.0180 -0.5226
17665TIP3   OH274485   0.464   1.738  74.137 -0.0261 -0.4606 -0.2502
17665TIP3    H174486   0.454   1.698  74.050  0.3993 -0.9090 -0.0962
17665TIP3    H274487   0.374   1.753  74.167 -0.1937  0.7740 -1.2492
17666TIP3   OH274488   0.443   0.997  12.634  0.2321 -0.7602  0.2873
17666TIP3    H174489   0.395   0.919  12.662  1.5040 -1.7774 -0.2488
17666TIP3    H274490   0.522   0.998  12.687  1.2038 -1.0030 -1.0878
17667TIP3   OH274491   2.178   0.272  91.442  0.1374  0.2843 -0.4390
17667TIP3    H174492   2.096   0.302  91.479  0.4014  0.5744 -0.0873
17667TIP3    H274493   2.246   0.321  91.489  0.5411 -0.3912 -0.2996
17668TIP3   OH274494   0.701   0.136  96.304  0.1694  0.7428 -0.4907
17668TIP3    H174495   0.706   0.194  96.381 -1.3816 -0.1018  0.3089
17668TIP3    H274496   0.786   0.092  96.301 -0.0045  0.1925  1.2671
17669TIP3   OH274497   1.800   0.256  27.040 -0.0627 -0.2663  0.0416
17669TIP3    H174498   1.769   0.338  27.079  1.0304  0.2927 -0.1984
17669TIP3    H274499   1.775   0.188  27.103 -0.2320  0.3644  0.6673
17670TIP3   OH274500   1.252   0.774  36.173 -0.1111  0.4579 -0.3751
17670TIP3    H174501   1.280   0.843  36.234  0.1092  1.4973 -1.5991
17670TIP3    H274502   1.158   0.767  36.187 -0.3318  1.8060 -0.9744
17671TIP3   OH274503   2.481   0.540  69.230  0.6021 -0.8680  0.5480
17671TIP3    H174504   2.477   0.445  69.238 -0.3226 -0.9086 -0.1993
17671TIP3    H274505   2.536   0.569  69.304 -0.9362 -1.7849  2.1099
17672TIP3   OH274506   1.422   1.047  75.897 -0.3470  0.1454 -0.2842
17672TIP3    H174507   1.337   1.030  75.937 -0.1498  0.4089  0.2491
17672TIP3    H274508   1.418   1.139  75.869 -0.5980 -0.1219 -1.1601
17673TIP3   OH274509   2.088   0.715  83.741 -0.1409 -0.2593  0.2451
17673TIP3    H174510   2.119   0.675  83.822  0.9128 -0.2524 -0.1399
17673TIP3    H274511   2.168   0.740  83.694 -0.6580 -1.7077 -1.5128
17674TIP3   OH274512   2.105   1.896  34.971 -0.2400 -0.1768 -0.6351
17674TIP3    H174513   2.140   1.940  35.048 -0.8058 -1.4087  0.3712
17674TIP3    H274514   2.073   1.966  34.914  1.1128  0.8037 -0.2343
17675TIP3   OH274515   2.442   2.279  92.017 -0.0479 -0.3617 -0.6230
17675TIP3    H174516   2.357   2.307  91.983  0.0772  1.1460  0.2176
17675TIP3    H274517   2.479   2.223  91.949 -1.4057 -0.4590 -1.3010
17676TIP3   OH274518   1.542   1.441  29.820  0.5509 -0.1113  0.4141
17676TIP3    H174519   1.471   1.476  29.874 -0.5297 -0.6002 -0.6195
17676TIP3    H274520   1.557   1.509  29.754 -0.2169 -0.7346 -0.4343
17677TIP3   OH274521   0.126   1.431  22.854  0.2413  0.4781  0.1173
17677TIP3    H174522   0.098   1.344  22.827 -1.4811  0.8665  0.5557
17677TIP3    H274523   0.221   1.423  22.867  0.1898 -1.1760 -0.3397
17678TIP3   OH274524   1.232   2.492  21.319  0.1809  0.2282  0.0895
17678TIP3    H174525   1.217   2.459  21.408  1.5496  0.2510  0.3564
17678TIP3    H274526   1.312   2.448  21.291  0.2899  0.9520 -0.7594
17679TIP3   OH274527   0.634   0.826  93.099 -0.1051  0.1091 -0.3475
17679TIP3    H174528   0.613   0.857  93.011 -1.1479  0.7175  0.0975
17679TIP3    H274529   0.664   0.905  93.146 -0.2264 -0.0677  0.0330
17680TIP3   OH274530   0.047   1.738 101.135  0.0768  0.3147  0.1531
17680TIP3    H174531  -0.024   1.727 101.072  0.0857  0.6115  0.0921
17680TIP3    H274532   0.002   1.745 101.220  0.1111 -1.1433  0.3204
17681TIP3   OH274533   1.422   2.138  19.849 -0.3378 -0.4297 -0.0402
17681TIP3    H174534   1.459   2.219  19.883 -0.4451 -1.1727  1.9766
17681TIP3    H274535   1.327   2.150  19.855 -0.5811  0.9590 -3.9672
17682TIP3   OH274536   1.325   2.603   3.267 -0.1546 -0.2534 -0.1146
17682TIP3    H174537   1.284   2.535   3.320 -0.5964  0.3257  0.2989
17682TIP3    H274538   1.419   2.592   3.281 -0.1957 -1.1006 -0.4591
17683TIP3   OH274539   2.475   0.454  83.612 -0.4552 -0.3915 -0.1450
17683TIP3    H174540   2.565   0.480  83.589  0.3111 -1.6932  1.2272
17683TIP3    H274541   2.423   0.481  83.536  1.1059  0.2974 -1.0280
17684TIP3   OH274542   2.285   0.398 109.845  0.2853  0.2610 -0.3662
17684TIP3    H174543   2.282   0.334 109.774 -1.8948  0.2818 -0.3625
17684TIP3    H274544   2.318   0.478 109.804  0.0928 -0.0328 -1.1002
17685TIP3   OH274545   0.297   0.430  21.029 -0.1905  0.1356 -0.0417
17685TIP3    H174546   0.336   0.504  21.075  0.3532 -0.1930  0.0420
17685TIP3    H274547   0.369   0.392  20.979 -0.4252 -0.4188  0.0312
17686TIP3   OH274548   0.866   1.603 105.152  0.0336 -0.6685 -0.2662
17686TIP3    H174549   0.869   1.544 105.077  0.9126 -1.5687  0.4518
17686TIP3    H274550   0.950   1.648 105.151  0.5233 -1.5029  0.7907
17687TIP3   OH274551   1.065   1.806  75.021  0.2312  0.0294 -0.4053
17687TIP3    H174552   1.089   1.882  75.075 -1.3004 -0.1524  0.5978
17687TIP3    H274553   0.970   1.812  75.012  0.1778 -1.3494 -0.9582
17688TIP3   OH274554   1.186   0.719  23.500  0.6436 -0.0679 -0.1355
17688TIP3    H174555   1.160   0.627  23.505 -0.9017  0.2231 -1.6297
17688TIP3    H274556   1.218   0.730  23.410  3.0014  0.3817  0.6793
17689TIP3   OH274557   2.292   0.100  33.002  0.0130 -0.1380 -0.0191
17689TIP3    H174558   2.206   0.059  33.015 -0.2185  0.6488  0.9846
17689TIP3    H274559   2.321   0.124  33.089  0.3520  1.4159 -0.5368
17690TIP3   OH274560   0.971   1.218  87.883 -0.0145  0.0535  0.0229
17690TIP3    H174561   0.954   1.126  87.868 -1.0938  0.1350  0.6019
17690TIP3    H274562   0.894   1.263  87.847 -1.0999  0.4598  2.5724
17691TIP3   OH274563   0.225   1.564   7.139  0.1728  0.0398 -0.2145
17691TIP3    H174564   0.279   1.499   7.093 -1.4750 -1.2718 -0.4091
17691TIP3    H274565   0.267   1.648   7.119  1.7338 -0.8456 -0.8904
17692TIP3   OH274566   0.132   2.353  12.108  0.1071  0.8726  0.2012
17692TIP3    H174567   0.106   2.442  12.129 -1.7118  0.8371 -1.5801
17692TIP3    H274568   0.074   2.327  12.036  1.3288 -1.3532 -0.0849
17693TIP3   OH274569   1.547   0.065  52.560  0.6335  0.1763 -0.0545
17693TIP3    H174570   1.534   0.146  52.610  0.8981 -0.7043  1.4921
17693TIP3    H274571   1.592   0.094  52.480 -1.0546  1.8133 -0.5075
17694TIP3   OH274572   0.559   0.759  97.233  0.2694  0.2441 -0.0288
17694TIP3    H174573   0.568   0.851  97.209 -1.0509  0.9995  2.1140
17694TIP3    H274574   0.585   0.754  97.324 -2.0432 -0.9752  0.6693
17695TIP3   OH274575   0.709   2.060 101.401  0.0463 -0.2707  0.6283
17695TIP3    H174576   0.660   2.025 101.327  2.0749 -1.6724 -0.1318
17695TIP3    H274577   0.774   2.119 101.361  0.4434 -0.1758  1.3964
17696TIP3   OH274578   1.644   0.940  21.517  0.6448  0.3665 -0.0701
17696TIP3    H174579   1.614   0.854  21.545 -0.8291  0.7706 -0.3263
17696TIP3    H274580   1.738   0.928  21.501  0.6936 -0.8954  0.9742
17697TIP3   OH274581   1.837   2.340  85.902  0.0959  0.1899 -0.4418
17697TIP3    H174582   1.885   2.390  85.837  0.8546 -1.4538 -1.2092
17697TIP3    H274583   1.873   2.369  85.986  0.6776  0.7341 -0.8722
17698TIP3   OH274584   0.984   1.975  28.039  0.1817  0.3226  0.1751
17698TIP3    H174585   0.903   1.938  28.075  0.7018 -1.7978 -0.6757
17698TIP3    H274586   1.003   2.051  28.095 -1.7388  0.1662  1.1212
17699TIP3   OH274587   1.707   2.420  34.798 -0.3853  0.7341  0.0850
17699TIP3    H174588   1.769   2.451  34.864 -0.2814 -1.3304  1.0626
17699TIP3    H274589   1.630   2.393  34.849 -0.9223  0.5444 -0.8033
17700TIP3   OH274590   2.181   2.272  17.135 -0.7349  0.0274  0.0830
17700TIP3    H174591   2.262   2.228  17.108 -1.1081 -1.9682  1.8689
17700TIP3    H274592   2.127   2.272  17.057 -0.5718 -2.5820 -0.1385
17701TIP3   OH274593   1.060   0.540  78.724 -0.5512 -0.3668 -0.1965
17701TIP3    H174594   0.983   0.597  78.724 -0.4580 -0.2195 -1.3028
17701TIP3    H274595   1.119   0.580  78.787  0.1874  1.7420 -2.0953
17702TIP3   OH274596   2.054   1.192  84.626 -0.2612 -0.1680  0.0845
17702TIP3    H174597   2.077   1.250  84.698  0.9082  0.1053 -0.4898
17702TIP3    H274598   2.030   1.250  84.554 -0.2301 -0.4154 -0.1285
17703TIP3   OH274599   1.284   1.708   3.877  0.4935  0.7904 -0.0847
17703TIP3    H174600   1.355   1.771   3.890  1.6351 -0.0771 -1.7678
17703TIP3    H274601   1.274   1.666   3.962  3.8134 -0.8348 -0.3262
17704TIP3   OH274602   1.846   2.080  11.020 -0.0027  0.3785  0.2072
17704TIP3    H174603   1.775   2.132  10.983 -1.6722  0.0839  2.7320
17704TIP3    H274604   1.813   1.990  11.018  0.0234  0.2948  1.8501
17705TIP3   OH274605   2.119   1.149   0.739 -0.3013  0.2119  0.3354
17705TIP3    H174606   2.178   1.206   0.691  0.9524 -1.4571 -0.2033
17705TIP3    H274607   2.148   1.155   0.830  0.5722 -0.4168  0.1083
17706TIP3   OH274608   1.395   1.900   1.215 -0.0951  0.2230  0.2718
17706TIP3    H174609   1.364   1.960   1.147 -1.0184 -1.7345 -1.1454
17706TIP3    H274610   1.481   1.871   1.184 -0.7948 -1.1698 -0.4713
17707TIP3   OH274611   0.861   0.918  92.896  0.0070  0.2452  0.1639
17707TIP3    H174612   0.807   0.955  92.966  0.0024 -2.1270  1.5079
17707TIP3    H274613   0.804   0.854  92.853  0.8078 -0.1279 -0.3720
17708TIP3   OH274614   1.105   1.890  16.315 -0.6095  0.1647 -0.0163
17708TIP3    H174615   1.045   1.833  16.362 -0.5979  0.3682  0.2499
17708TIP3    H274616   1.049   1.956  16.274 -0.6993 -0.4948 -1.0003
17709TIP3   OH274617   2.047   1.201 105.247 -0.4422  0.2262 -0.1501
17709TIP3    H174618   1.975   1.139 105.230 -0.3519 -0.2027  0.9646
17709TIP3    H274619   2.003   1.281 105.277 -0.4454 -0.4399  1.7522
17710TIP3   OH274620   2.290   1.960  79.853  0.5101 -0.1413  0.9913
17710TIP3    H174621   2.350   1.908  79.906 -0.3642 -0.3278  1.8251
17710TIP3    H274622   2.229   1.998  79.916  0.3641  0.8636  0.2592
17711TIP3   OH274623   1.646   1.064  76.718  0.0107  0.4592 -0.2862
17711TIP3    H174624   1.585   1.130  76.749 -1.5876  0.6262 -3.4014
17711TIP3    H274625   1.645   0.997  76.786 -4.0375  0.2880 -0.2388
17712TIP3   OH274626   0.999   1.210 101.902 -0.2780  0.1005 -0.4447
17712TIP3    H174627   0.990   1.270 101.976 -0.3758  1.1005 -1.2260
17712TIP3    H274628   0.946   1.134 101.925  0.2608  0.0745  0.8061
17713TIP3   OH274629   1.806   1.387  97.541 -0.1822  0.3259  0.1695
17713TIP3    H174630   1.863   1.356  97.470 -0.1452  1.3383 -0.2628
17713TIP3    H274631   1.867   1.425  97.605 -0.2992  0.4172  0.2251
17714TIP3   OH274632   0.333   0.550  64.097 -0.5704 -0.8938  0.1010
17714TIP3    H174633   0.346   0.456  64.080  1.4855 -0.4293 -1.2152
17714TIP3    H274634   0.292   0.583  64.017 -1.4935 -0.6773  0.6492
17715TIP3   OH274635   0.129   0.745  69.199  0.4224 -1.0811 -0.3260
17715TIP3    H174636   0.189   0.787  69.137  1.9257 -0.7190  1.2767
17715TIP3    H274637   0.120   0.655  69.167 -0.5064 -0.3794 -2.1795
17716TIP3   OH274638   2.313   2.032  98.531  0.6572  0.1877  0.5870
17716TIP3    H174639   2.229   2.078  98.526  0.6607  0.1037 -0.5618
17716TIP3    H274640   2.306   1.962  98.466  2.2183  1.1965 -0.7192
17717TIP3   OH274641   2.302   1.669  84.794  0.4447  0.2255 -0.2327
17717TIP3    H174642   2.243   1.667  84.869  3.1804  0.3362  2.0732
17717TIP3    H274643   2.316   1.577  84.772  0.7661  0.1331  0.3501
17718TIP3   OH274644   0.408   2.273  11.373  0.4532 -0.2631 -0.0850
17718TIP3    H174645   0.442   2.263  11.462 -0.5724 -0.6582  0.2709
17718TIP3    H274646   0.398   2.183  11.342 -0.7298 -0.1705 -0.0008
17719TIP3   OH274647   1.186   1.866   9.965 -0.4188 -0.5441 -0.3066
17719TIP3    H174648   1.097   1.889   9.938  0.0125  1.0581 -0.4943
17719TIP3    H274649   1.243   1.921   9.910  0.6237 -0.4171  0.8486
17720TIP3   OH274650   0.740   2.493  32.462 -0.0969 -0.7704  0.1900
17720TIP3    H174651   0.774   2.520  32.547 -0.2340 -1.1168  0.3554
17720TIP3    H274652   0.648   2.471  32.479 -1.1183  2.2905 -0.6471
17721TIP3   OH274653   0.447   1.499  24.657 -0.3061 -0.4719 -0.2895
17721TIP3    H174654   0.431   1.539  24.572  0.4716 -1.4149 -0.9012
17721TIP3    H274655   0.451   1.405  24.639  0.9544 -0.6073  0.5992
17722TIP3   OH274656   0.554   1.284  90.242  0.4202 -0.3200 -0.0912
17722TIP3    H174657   0.555   1.299  90.148 -1.8404  1.7557  0.1066
17722TIP3    H274658   0.630   1.331  90.275  1.7997 -1.8962 -0.9210
17723TIP3   OH274659   0.442   0.113  25.560 -0.0977  0.0551  0.2048
17723TIP3    H174660   0.492   0.158  25.491  1.2040 -1.2338  0.2598
17723TIP3    H274661   0.399   0.042  25.514 -0.2051 -0.0820  0.5192
17724TIP3   OH274662   1.577   1.350   6.887  0.1413 -0.0633 -0.0796
17724TIP3    H174663   1.482   1.349   6.879  0.1148  0.6473  0.0245
17724TIP3    H274664   1.594   1.328   6.979 -0.1232  3.1504  0.8906
17725TIP3   OH274665   0.564   2.058  91.635 -0.0014 -0.7347 -0.1512
17725TIP3    H174666   0.514   2.137  91.612 -1.1141 -1.0350  1.0855
17725TIP3    H274667   0.512   1.986  91.601  0.0496 -1.0192  0.3704
17726TIP3   OH274668   1.115   0.848  63.511 -0.3334  0.0878 -0.8021
17726TIP3    H174669   1.181   0.778  63.505 -0.6451 -0.2433 -0.3796
17726TIP3    H274670   1.074   0.848  63.424 -0.6381 -0.5620 -0.6665
17727TIP3   OH274671   1.387   0.893   2.145  0.2232 -0.3447 -0.4034
17727TIP3    H174672   1.371   0.850   2.229  1.3778 -0.8667 -0.4289
17727TIP3    H274673   1.379   0.824   2.080 -0.8501  0.0965 -0.7643
17728TIP3   OH274674   1.071   0.611   6.816  0.1370  0.5569 -0.1138
17728TIP3    H174675   1.141   0.566   6.770  0.8889  0.6554  0.8942
17728TIP3    H274676   1.015   0.647   6.747  1.2652  0.7733 -0.9353
17729TIP3   OH274677   0.871   0.466   6.532  0.3346 -0.1972 -0.5568
17729TIP3    H174678   0.940   0.400   6.542  1.2347  0.8247  0.2178
17729TIP3    H274679   0.841   0.454   6.441  1.5043 -0.6952 -0.9075
17730TIP3   OH274680   1.419   1.118   8.886 -0.3549  0.3127 -0.0805
17730TIP3    H174681   1.350   1.112   8.952 -0.7777 -0.6856 -0.6000
17730TIP3    H274682   1.479   1.046   8.908 -0.1382  0.3969 -0.3892
17731TIP3   OH274683   2.114   0.004  40.370 -0.1149  0.6366  0.2163
17731TIP3    H174684   2.069  -0.050  40.436 -0.2024  1.8060  1.1400
17731TIP3    H274685   2.200   0.022  40.408 -0.3140  1.6630  0.2113
17732TIP3   OH274686   0.118   1.444  85.804 -0.1538  0.2529 -0.1234
17732TIP3    H174687   0.099   1.525  85.852  1.3578  0.7649 -0.3385
17732TIP3    H274688   0.148   1.382  85.871  1.8732  0.9408 -0.3293
17733TIP3   OH274689   1.250   2.417  83.792 -0.0110  0.2919 -0.3792
17733TIP3    H174690   1.191   2.371  83.733 -1.0324  0.6995  0.3078
17733TIP3    H274691   1.326   2.439  83.737 -0.3156 -0.5663 -1.1666
17734TIP3   OH274692   0.569   1.647 101.438 -0.1610  0.5031  0.1144
17734TIP3    H174693   0.491   1.687 101.400  0.8515  2.6110  0.1318
17734TIP3    H274694   0.614   1.607 101.364 -1.1487 -0.6050  0.0804
17735TIP3   OH274695   0.335   2.463   3.254  0.2725  0.4504 -0.0805
17735TIP3    H174696   0.371   2.526   3.316 -0.5973 -0.1816  1.0958
17735TIP3    H274697   0.394   2.467   3.179  1.5516  0.9948  0.9175
17736TIP3   OH274698   0.184   2.426  10.517 -0.1881 -0.0188 -0.0675
17736TIP3    H174699   0.239   2.349  10.507 -0.0114 -0.2766  2.3272
17736TIP3    H274700   0.113   2.398  10.575  0.0366  1.6645  1.0867
17737TIP3   OH274701   0.855   1.465  89.786  0.3005 -0.0405 -1.0163
17737TIP3    H174702   0.804   1.476  89.706 -1.0604  0.5303 -0.1219
17737TIP3    H274703   0.890   1.376  89.781 -0.8711 -0.4898 -1.6336
17738TIP3   OH274704   1.858   1.906 107.761  0.3168 -0.2466 -0.1237
17738TIP3    H174705   1.884   1.820 107.793  0.2068 -0.1292  0.2863
17738TIP3    H274706   1.847   1.894 107.667 -0.8716 -0.9828  0.0815
17739TIP3   OH274707   0.020   2.016  82.760 -0.0386 -0.0323 -0.5529
17739TIP3    H174708  -0.041   2.004  82.687  1.0804 -0.1985 -1.4804
17739TIP3    H274709   0.049   1.927  82.781  2.1983  0.2319 -2.1733
17740TIP3   OH274710   1.008   0.846  34.068  0.0635 -0.0351 -0.1996
17740TIP3    H174711   0.949   0.895  34.010  0.2705  1.5514  0.8707
17740TIP3    H274712   0.982   0.754  34.056 -0.3234  0.2896 -2.2857
17741TIP3   OH274713   2.114   2.315  36.480  0.5112 -0.1974 -0.0920
17741TIP3    H174714   2.068   2.235  36.456  0.2000 -0.5774  1.6562
17741TIP3    H274715   2.154   2.296  36.565  2.2855  0.7769 -0.6447
17742TIP3   OH274716   1.797   1.802  22.508  0.2840 -0.5932  0.2465
17742TIP3    H174717   1.756   1.793  22.594 -0.4807 -0.1372 -0.0535
17742TIP3    H274718   1.776   1.721  22.463 -0.3874 -0.3287  0.0641
17743TIP3   OH274719   0.896   0.116 108.832 -0.1649  0.1028  0.7095
17743TIP3    H174720   0.865   0.103 108.922  1.9744 -2.6979  1.2013
17743TIP3    H274721   0.931   0.204 108.831 -1.6594  0.7694  2.1194
17744TIP3   OH274722   2.459   1.226 112.164 -0.2892  0.1232  0.8536
17744TIP3    H174723   2.495   1.281 112.095 -1.5325 -0.3468 -0.2316
17744TIP3    H274724   2.532   1.170 112.190  0.2538  0.4123  0.0136
17745TIP3   OH274725   1.856   1.565   1.635 -1.1784  0.1929 -0.1108
17745TIP3    H174726   1.916   1.639   1.625  2.2673 -2.4801 -1.4673
17745TIP3    H274727   1.884   1.522   1.716 -1.8530 -0.6615 -0.3147
17746TIP3   OH274728   1.897   1.207  99.341 -0.3719  0.7085  0.6752
17746TIP3    H174729   1.986   1.185  99.369 -0.1277  1.5510  0.5822
17746TIP3    H274730   1.869   1.132  99.289 -0.2757 -0.2310  1.9122
17747TIP3   OH274731   2.019   1.501  36.383  0.4084 -0.2202 -0.4167
17747TIP3    H174732   1.979   1.418  36.356  0.7522 -0.6547  0.3887
17747TIP3    H274733   1.954   1.540  36.441 -1.0183  1.4326 -2.9058
17748TIP3   OH274734   1.580   0.284  82.829  0.2931 -0.8781  0.1345
17748TIP3    H174735   1.571   0.344  82.903  1.6663  1.4195 -1.4372
17748TIP3    H274736   1.674   0.272  82.819  0.0810 -2.3232 -0.3900
17749TIP3   OH274737   1.616   2.668  88.564 -0.1576  0.7426 -0.2186
17749TIP3    H174738   1.623   2.762  88.544  0.4928  0.9298  0.7736
17749TIP3    H274739   1.640   2.624  88.483  2.3432  1.4497  0.0649
17750TIP3   OH274740   1.229   0.191  80.569 -0.0736 -0.0896  0.2149
17750TIP3    H174741   1.313   0.217  80.533  0.2148  0.5494  1.3076
17750TIP3    H274742   1.164   0.231  80.511  0.3716 -0.0061 -0.2284
17751TIP3   OH274743   2.026   1.527  76.838  0.5514  0.4709 -0.1627
17751TIP3    H174744   2.016   1.434  76.818  0.3629  0.3301  0.5400
17751TIP3    H274745   2.107   1.553  76.794  0.6274 -0.0407 -0.3211
17752TIP3   OH274746   1.284   2.344  80.753 -0.0097 -0.6995  0.0449
17752TIP3    H174747   1.208   2.303  80.711  1.3763 -2.4444 -0.8628
17752TIP3    H274748   1.294   2.427  80.707 -0.6060 -1.0205 -0.6972
17753TIP3   OH274749   0.221   0.253  79.793  0.4433 -0.1564  0.8245
17753TIP3    H174750   0.273   0.240  79.714 -1.7260  1.2572 -0.9566
17753TIP3    H274751   0.196   0.165  79.820  0.4961 -0.6264 -0.5813
17754TIP3   OH274752   0.638   0.661  84.046 -0.1512  0.0359 -0.0403
17754TIP3    H174753   0.703   0.690  83.982 -0.3878  1.1036  0.1661
17754TIP3    H274754   0.554   0.671  84.001 -0.2783  0.2559  0.2363
17755TIP3   OH274755   0.464   0.873  18.284  0.0158  0.0693  0.1725
17755TIP3    H174756   0.403   0.820  18.334 -0.2168  1.2069  1.1458
17755TIP3    H274757   0.500   0.814  18.218  0.8027 -1.6555  2.0629
17756TIP3   OH274758   0.038   0.549 108.790  0.3091  0.3042  0.4206
17756TIP3    H174759   0.034   0.578 108.699 -0.1183  0.6783  0.5545
17756TIP3    H274760  -0.045   0.578 108.828  0.4369  0.0553  0.9044
17757TIP3   OH274761   0.130   0.382  33.619 -0.9359 -0.1513  0.3907
17757TIP3    H174762   0.072   0.307  33.632 -0.9275 -0.0794  0.8601
17757TIP3    H274763   0.203   0.367  33.679 -0.3884 -0.3179 -0.3101
17758TIP3   OH274764   0.433   0.861  78.255 -0.3207  0.1317 -0.1656
17758TIP3    H174765   0.435   0.926  78.185 -0.9725 -0.2574 -0.5596
17758TIP3    H274766   0.393   0.906  78.329  0.3338  0.5332 -0.0486
17759TIP3   OH274767   2.601   0.407  88.079  0.4828  0.0186 -0.0216
17759TIP3    H174768   2.515   0.391  88.039  0.9899 -2.5130 -0.2767
17759TIP3    H274769   2.606   0.502  88.088 -2.3468  0.2479  0.0432
17760TIP3   OH274770   0.287   2.161  97.139  0.3330 -0.0679 -0.2477
17760TIP3    H174771   0.313   2.118  97.221 -1.2853  0.1057  0.3993
17760TIP3    H274772   0.197   2.131  97.125  0.2010  0.8161 -1.3655
17761TIP3   OH274773   1.041   0.448 105.865  0.1639  0.3001 -0.1172
17761TIP3    H174774   1.048   0.354 105.848 -1.4014 -0.3368  2.1782
17761TIP3    H274775   0.974   0.479 105.804  0.1135 -0.2450 -0.3375
17762TIP3   OH274776   2.292   2.370  14.266 -0.1086 -0.1097 -0.3820
17762TIP3    H174777   2.198   2.354  14.275  0.0001 -0.5312  0.0942
17762TIP3    H274778   2.309   2.358  14.173 -0.3381 -1.1770 -0.3069
17763TIP3   OH274779   2.346   0.247  11.614 -0.0506 -0.0390  0.3074
17763TIP3    H174780   2.327   0.200  11.695  0.8880 -0.8095  0.1072
17763TIP3    H274781   2.435   0.280  11.626  0.0582 -0.0622 -0.3574
17764TIP3   OH274782   2.069   1.628  82.567  0.4727 -0.4320 -0.3349
17764TIP3    H174783   1.995   1.567  82.574 -1.1119  1.2407 -1.4982
17764TIP3    H274784   2.123   1.592  82.497  0.4439 -1.3464  0.0997
17765TIP3   OH274785   0.554   0.982  36.901  0.0109 -0.4380 -0.1971
17765TIP3    H174786   0.627   1.019  36.850  0.3503 -1.3943 -0.4129
17765TIP3    H274787   0.561   1.026  36.987 -0.5509  1.1603 -0.9256
17766TIP3   OH274788   1.182   0.411   0.707 -0.0764 -0.3765 -0.2970
17766TIP3    H174789   1.197   0.394   0.614  0.3551 -0.8355 -0.1473
17766TIP3    H274790   1.106   0.470   0.708  0.0232 -0.2209 -0.9437
17767TIP3   OH274791   0.382   1.363  34.312 -0.7918 -0.0614 -0.4008
17767TIP3    H174792   0.356   1.446  34.270  0.1701  0.2848 -0.3287
17767TIP3    H274793   0.355   1.373  34.403  0.4680  0.7007 -0.0969
17768TIP3   OH274794   1.586   2.216  11.678 -0.4729 -0.6133  0.4396
17768TIP3    H174795   1.507   2.193  11.726 -0.7519 -0.2996  0.1421
17768TIP3    H274796   1.637   2.269  11.739 -0.0803 -1.5397  0.9350
17769TIP3   OH274797   1.962   2.329  34.680  0.0612  0.2407  0.1576
17769TIP3    H174798   1.977   2.376  34.598 -1.0274  0.4781  0.0672
17769TIP3    H274799   1.897   2.383  34.726 -1.1615 -1.1067  0.0939
17770TIP3   OH274800   2.216   2.634  88.879 -0.1604  0.1222  0.1273
17770TIP3    H174801   2.249   2.563  88.933  1.8444  0.5691 -0.4410
17770TIP3    H274802   2.164   2.687  88.939 -1.9297 -1.8897  0.5004
17771TIP3   OH274803   2.484   0.493  80.909 -0.1274  0.2884  0.0316
17771TIP3    H174804   2.427   0.458  80.840 -0.1830  0.5386 -0.0445
17771TIP3    H274805   2.572   0.492  80.871  0.0363 -0.7706  0.4019
17772TIP3   OH274806   0.536   0.020 107.040 -0.1093  0.0959 -0.0295
17772TIP3    H174807   0.584  -0.034 106.978 -0.9342  0.0889 -0.6761
17772TIP3    H274808   0.601   0.082 107.074  0.6442 -0.7476  0.0846
17773TIP3   OH274809   0.888   2.154  10.230  0.5183 -0.3516 -0.1730
17773TIP3    H174810   0.801   2.120  10.212  1.2335 -2.1800 -0.3466
17773TIP3    H274811   0.940   2.077  10.252  1.9048  0.7979  0.7224
17774TIP3   OH274812   0.021   2.224   2.540  0.1363 -0.3211 -0.2106
17774TIP3    H174813  -0.071   2.216   2.516  0.5156 -1.4967 -1.4623
17774TIP3    H274814   0.049   2.306   2.500 -0.3844  0.1059  0.2844
17775TIP3   OH274815   2.302   0.267  14.970  0.2368  0.2349 -0.1368
17775TIP3    H174816   2.208   0.278  14.985 -0.1766  0.4139 -2.5125
17775TIP3    H274817   2.328   0.196  15.028 -1.2828  0.4310  0.8289
17776TIP3   OH274818   1.775   0.683  13.905  0.0783 -0.0335 -0.3115
17776TIP3    H174819   1.801   0.613  13.844 -0.0719  0.4097 -0.8961
17776TIP3    H274820   1.754   0.757  13.848 -2.4235 -0.3306  0.0921
17777TIP3   OH274821   1.568   1.196  78.912  0.1807  0.4576 -0.3686
17777TIP3    H174822   1.597   1.162  78.827 -1.6743  0.1440 -0.9139
17777TIP3    H274823   1.473   1.201  78.905  0.0030  0.6726  1.6201
17778TIP3   OH274824   0.623   0.057  92.335  0.2566 -0.6104 -0.9163
17778TIP3    H174825   0.697   0.116  92.349 -0.1473 -0.0186 -1.2141
17778TIP3    H274826   0.662  -0.026  92.310  0.7984 -0.0736 -1.8815
17779TIP3   OH274827   1.262   1.148  76.633  0.9253  0.2929 -0.4773
17779TIP3    H174828   1.321   1.112  76.567  1.0126  1.4827 -1.0950
17779TIP3    H274829   1.177   1.153  76.588 -0.2643 -3.3040  1.0062
17780TIP3   OH274830   1.441   0.328  78.523 -0.1357 -0.0295  0.2672
17780TIP3    H174831   1.485   0.244  78.538  0.1522  0.1405  0.3708
17780TIP3    H274832   1.379   0.310  78.452  0.4094 -0.1627 -0.1799
17781TIP3   OH274833   1.342   1.258  94.908  0.0009  0.3043 -0.7774
17781TIP3    H174834   1.325   1.172  94.945  1.6408  0.5499  0.7171
17781TIP3    H274835   1.338   1.246  94.814  0.6009 -1.5256 -0.6043
17782TIP3   OH274836   1.442   2.432  20.485  0.1213 -0.6122 -0.1627
17782TIP3    H174837   1.405   2.368  20.546  0.4798 -0.1893  0.5194
17782TIP3    H274838   1.433   2.516  20.531  1.9905 -0.4990  0.0946
17783TIP3   OH274839   0.249   0.748 100.252 -0.2383 -0.3177 -0.2128
17783TIP3    H174840   0.219   0.784 100.336  0.8444  1.7696 -0.6392
17783TIP3    H274841   0.304   0.674 100.277 -0.6078 -0.2480  0.8844
17784TIP3   OH274842   2.641   1.306  69.475  0.1338 -0.0143 -0.5101
17784TIP3    H174843   2.600   1.238  69.421  0.2092  0.4935 -1.2272
17784TIP3    H274844   2.632   1.275  69.564  0.0630 -0.9139 -0.8227
17785TIP3   OH274845   0.505   2.336  75.147  0.0940  0.2475  0.3589
17785TIP3    H174846   0.431   2.311  75.202 -0.3215  1.6419  0.4908
17785TIP3    H274847   0.481   2.309  75.059 -1.5279  2.4119  0.0438
17786TIP3   OH274848   0.065   1.835 104.303 -0.0640  0.5796  0.0110
17786TIP3    H174849   0.159   1.848 104.309  0.0325  0.2116 -0.5717
17786TIP3    H274850   0.031   1.861 104.388  0.8768 -1.8185  1.1988
17787TIP3   OH274851   2.555   1.046 102.461  0.3214  0.0153  0.3303
17787TIP3    H174852   2.546   1.133 102.423  0.0580  0.0545  0.4886
17787TIP3    H274853   2.537   0.986 102.388  0.2663  0.0885  0.2871
17788TIP3   OH274854   0.239   0.244  18.824  0.3684  0.5471  0.4896
17788TIP3    H174855   0.270   0.296  18.898 -0.2843  0.5777  0.7460
17788TIP3    H274856   0.317   0.198  18.793  0.1575 -1.9427  3.1640
17789TIP3   OH274857   1.252   1.957  98.964  0.0369 -0.6265 -0.3326
17789TIP3    H174858   1.178   1.934  98.907  1.0747 -1.0613 -1.5373
17789TIP3    H274859   1.238   2.050  98.984  0.4812 -0.0034 -2.6384
17790TIP3   OH274860   2.275   2.183  11.898 -0.0278  0.3632 -0.7211
17790TIP3    H174861   2.327   2.224  11.967  0.1900 -0.6413 -0.2802
17790TIP3    H274862   2.338   2.165  11.828 -0.0238  0.2762 -0.6948
17791TIP3   OH274863   1.002   2.479  25.565  0.0165 -0.3191 -0.6397
17791TIP3    H174864   0.913   2.492  25.535 -0.6688 -0.9494  0.9950
17791TIP3    H274865   1.045   2.431  25.494 -0.7284  0.5408 -1.7079
17792TIP3   OH274866   0.352   1.553  29.159  0.1907  0.1169  0.4090
17792TIP3    H174867   0.320   1.486  29.099  0.4591  0.6152 -0.2960
17792TIP3    H274868   0.275   1.605  29.179  0.4469  1.0713 -0.9722
17793TIP3   OH274869   2.054   2.468  92.302 -0.2853  0.0407 -0.4939
17793TIP3    H174870   2.031   2.384  92.344 -1.3807  0.9745  0.8602
17793TIP3    H274871   2.148   2.462  92.288  0.1256 -0.4360  1.9926
17794TIP3   OH274872   2.127   0.329  88.871 -0.1937  0.5112  0.2621
17794TIP3    H174873   2.037   0.355  88.893 -0.3868 -0.2067  0.3295
17794TIP3    H274874   2.175   0.334  88.953 -0.0913  1.1670  0.1734
17795TIP3   OH274875   0.560   0.255  79.886 -0.1474 -0.1323  0.7820
17795TIP3    H174876   0.485   0.314  79.894 -0.3584 -0.2214 -0.2662
17795TIP3    H274877   0.553   0.222  79.796  2.1999  1.3087 -0.0256
17796TIP3   OH274878   2.588   2.268  89.162  0.0414  0.0032  0.0818
17796TIP3    H174879   2.605   2.227  89.247  0.2064  0.3029  0.1912
17796TIP3    H274880   2.520   2.332  89.178 -0.9416 -0.9178 -0.2877
17797TIP3   OH274881   2.364   0.698  23.832  0.3080 -0.1056  0.3834
17797TIP3    H174882   2.276   0.735  23.836  0.1469 -0.4577  0.0689
17797TIP3    H274883   2.415   0.763  23.782  0.0040 -0.3474 -0.2487
17798TIP3   OH274884   0.813   0.976  33.911  0.4791  0.3062  0.1613
17798TIP3    H174885   0.790   1.049  33.853  0.3382 -0.3739 -0.6744
17798TIP3    H274886   0.738   0.917  33.906  0.1558  0.5666  1.6238
17799TIP3   OH274887   1.953   2.620  12.956  0.3725  0.5108  0.0364
17799TIP3    H174888   1.883   2.640  12.893  0.5067  0.2590 -0.1936
17799TIP3    H274889   1.907   2.604  13.038  0.0307 -1.0157 -0.4191
17800TIP3   OH274890   0.744   0.754  23.925  0.1156  0.1610  0.1641
17800TIP3    H174891   0.675   0.691  23.945  0.2467  0.2081  0.7686
17800TIP3    H274892   0.730   0.776  23.833  0.2860 -1.0200 -0.1646
17801TIP3   OH274893   1.702   1.223  29.348  0.0543 -0.3399 -0.1358
17801TIP3    H174894   1.722   1.133  29.375  0.0722 -0.1892  0.3492
17801TIP3    H274895   1.757   1.237  29.270 -2.3745 -1.9185 -2.3274
17802TIP3   OH274896   0.330   1.129  95.439 -0.3448  0.1567 -0.4399
17802TIP3    H174897   0.389   1.179  95.495  0.0387  0.3371 -0.9994
17802TIP3    H274898   0.277   1.194  95.394  0.8694  0.1482 -1.9622
17803TIP3   OH274899   0.189   0.456   8.683  0.3306  0.1924  0.0331
17803TIP3    H174900   0.191   0.433   8.776 -0.1461 -0.5692 -0.1407
17803TIP3    H274901   0.281   0.467   8.659  0.4457  0.6280  0.6479
17804TIP3   OH274902   1.641   1.965 111.870  0.4106  0.0783  0.3391
17804TIP3    H174903   1.576   2.031 111.893  0.1167  0.1239 -0.5696
17804TIP3    H274904   1.638   1.902 111.942  0.0295  0.5654  0.7627
17805TIP3   OH274905   1.292   0.601  27.098  0.6442 -0.3365  0.4083
17805TIP3    H174906   1.305   0.507  27.091 -0.1765 -0.4821  0.7453
17805TIP3    H274907   1.197   0.613  27.098  0.7370  0.5995 -1.0020
17806TIP3   OH274908   1.343   2.515  18.378  0.3668 -0.4470 -0.0829
17806TIP3    H174909   1.389   2.589  18.338  1.4582 -0.8440  0.3915
17806TIP3    H274910   1.270   2.499  18.320  1.6466 -0.7176 -1.7006
17807TIP3   OH274911   2.497   0.128  21.505  0.5649  0.6063  0.6101
17807TIP3    H174912   2.523   0.187  21.434  0.9042  1.6593  1.5659
17807TIP3    H274913   2.571   0.069  21.516 -0.2100 -0.7363 -1.0702
17808TIP3   OH274914   0.859   0.561 104.055 -0.4419 -0.2788 -0.4414
17808TIP3    H174915   0.870   0.637 103.998  2.0170  0.9124  1.4377
17808TIP3    H274916   0.788   0.585 104.115 -0.4150  0.0900 -0.5610
17809TIP3   OH274917   2.194   0.874   4.014  0.2013  0.1745 -0.0260
17809TIP3    H174918   2.274   0.906   3.975  2.2661 -2.6509  1.4957
17809TIP3    H274919   2.166   0.802   3.957 -0.3068  0.0784  0.3310
17810TIP3   OH274920   2.457   1.237  37.048  0.5251 -0.3180 -0.0182
17810TIP3    H174921   2.414   1.293  36.982  1.2191  0.0147 -0.2058
17810TIP3    H274922   2.473   1.296  37.122  2.6653  0.1997 -0.8039
17811TIP3   OH274923   0.330   2.457  86.962  0.2697  0.2717 -0.0682
17811TIP3    H174924   0.292   2.535  87.003  2.3299  1.0851  0.4253
17811TIP3    H274925   0.265   2.431  86.897 -2.2634  0.0477  2.3482
17812TIP3   OH274926   0.566   1.000  33.591 -0.3855  0.0961 -0.2172
17812TIP3    H174927   0.561   0.955  33.676  0.1684  0.9224  0.2738
17812TIP3    H274928   0.651   1.044  33.592  0.0483 -0.6680 -1.6172
17813TIP3   OH274929   0.699   0.737 112.200 -0.0473  0.4375  0.6723
17813TIP3    H174930   0.793   0.716 112.194 -0.3162 -0.6625 -0.0595
17813TIP3    H274931   0.666   0.680 112.269 -0.5358 -0.6706 -0.4323
17814TIP3   OH274932   1.192   2.382  10.436  0.0365  0.0206 -0.1348
17814TIP3    H174933   1.104   2.350  10.416 -0.5555  1.1729  0.5344
17814TIP3    H274934   1.242   2.366  10.356 -0.9742  0.0489 -0.7955
17815TIP3   OH274935   2.203   1.552  26.272  0.3173  0.4078 -0.0805
17815TIP3    H174936   2.121   1.582  26.312  0.0916  0.0579 -0.2757
17815TIP3    H274937   2.271   1.601  26.317 -0.0499  1.3055 -0.4785
17816TIP3   OH274938   1.202   1.562 109.100 -0.2615  0.0296 -0.0057
17816TIP3    H174939   1.137   1.528 109.038 -0.0606  1.2997 -0.9478
17816TIP3    H274940   1.160   1.639 109.139  0.1685  0.0662  0.3933
17817TIP3   OH274941   2.084   1.624  13.291  0.4874 -0.8825 -0.2410
17817TIP3    H174942   2.041   1.709  13.280  0.7821 -0.5257  1.1613
17817TIP3    H274943   2.068   1.578  13.208 -0.4180  0.1984 -0.6940
17818TIP3   OH274944   1.989   0.549  34.269  0.1934 -0.1606 -0.2624
17818TIP3    H174945   1.992   0.618  34.336  0.6179  1.7566 -2.1326
17818TIP3    H274946   1.908   0.502  34.286 -0.1745  0.8784  1.0269
17819TIP3   OH274947   1.801   2.537  13.817  0.1969  0.1161  0.4912
17819TIP3    H174948   1.870   2.549  13.751 -0.6548  0.9549 -0.2765
17819TIP3    H274949   1.834   2.467  13.873  0.7638 -0.9691 -1.0935
17820TIP3   OH274950   0.661   1.551 108.970 -0.4919  0.2734  0.0727
17820TIP3    H174951   0.697   1.619 109.027  0.3485 -1.1502  1.3285
17820TIP3    H274952   0.587   1.515 109.020 -0.4599 -0.2268 -0.2258
17821TIP3   OH274953   0.648   1.339   0.489  0.3750  0.1482  0.0347
17821TIP3    H174954   0.726   1.393   0.475 -0.2310  0.6349 -1.6902
17821TIP3    H274955   0.604   1.337   0.404  0.1523 -2.7700  0.1218
17822TIP3   OH274956   2.629   0.322   7.137  0.0142  0.0302  0.2642
17822TIP3    H174957   2.707   0.272   7.161  0.3942  0.3148 -0.3715
17822TIP3    H274958   2.556   0.270   7.172  0.4750 -0.3142  0.7269
17823TIP3   OH274959   1.760   0.704  20.321 -0.0680 -0.0751 -0.1573
17823TIP3    H174960   1.731   0.691  20.231  0.0408  1.0861 -0.3846
17823TIP3    H274961   1.683   0.688  20.375 -0.0154 -1.2365 -0.4082
17824TIP3   OH274962   1.242   0.996  13.159  0.2920 -0.3079  0.0919
17824TIP3    H174963   1.171   0.947  13.200  0.1529 -1.0384 -0.9906
17824TIP3    H274964   1.240   0.970  13.067 -0.3509  2.3994 -0.7578
17825TIP3   OH274965   1.493   0.365 103.868 -0.2036 -0.3058 -0.2496
17825TIP3    H174966   1.415   0.319 103.838 -0.2281 -0.9023  0.6894
17825TIP3    H274967   1.460   0.443 103.913 -0.3585 -1.2639  1.3735
17826TIP3   OH274968   1.065   1.779  78.783 -0.1897  0.4787  0.1122
17826TIP3    H174969   1.096   1.800  78.872  1.5608 -2.7314  0.4307
17826TIP3    H274970   0.984   1.828  78.774  0.7742  2.8244  2.5423
17827TIP3   OH274971   0.688   1.817  82.766  1.2172  0.4340  0.2392
17827TIP3    H174972   0.772   1.806  82.810  0.9124 -1.9058  0.3881
17827TIP3    H274973   0.701   1.779  82.679 -0.2424 -2.2690  1.0848
17828TIP3   OH274974   1.844   0.239 109.834  0.1878  0.2515 -0.7103
17828TIP3    H174975   1.798   0.319 109.810 -1.0876  0.1228  1.1186
17828TIP3    H274976   1.925   0.269 109.875 -0.7933  0.6841  0.9758
17829TIP3   OH274977   0.188   0.610  82.209  0.1214  0.2936 -0.2839
17829TIP3    H174978   0.149   0.539  82.158 -1.9683  0.9621  0.2935
17829TIP3    H274979   0.213   0.676  82.143  0.2917 -0.1427 -0.6639
17830TIP3   OH274980   1.442   2.054  81.466 -0.4538 -0.8540 -0.2515
17830TIP3    H174981   1.457   2.121  81.533 -0.2342 -2.1118  1.0043
17830TIP3    H274982   1.530   2.028  81.438 -0.5193 -1.1264 -0.2042
17831TIP3   OH274983   0.399   1.432  21.046 -0.7488  0.0277  0.9372
17831TIP3    H174984   0.350   1.407  21.124  0.3410 -0.4531  1.4815
17831TIP3    H274985   0.487   1.398  21.061 -0.7086 -0.7454 -0.8498
17832TIP3   OH274986   2.455   1.434  24.098 -0.5108  0.3363  0.6880
17832TIP3    H174987   2.505   1.353  24.086 -0.6030  0.5004 -1.1702
17832TIP3    H274988   2.517   1.495  24.138 -0.6272 -0.7929  2.7305
17833TIP3   OH274989   2.142   0.723  75.211 -0.4948 -0.2960 -0.1074
17833TIP3    H174990   2.093   0.684  75.139 -0.4885 -0.4402 -0.0335
17833TIP3    H274991   2.097   0.694  75.290  0.2985 -1.2819  0.0094
17834TIP3   OH274992   0.823   0.920  99.729  0.1095 -0.2736  0.2655
17834TIP3    H174993   0.757   0.967  99.780 -0.7512 -0.3544 -0.7381
17834TIP3    H274994   0.796   0.933  99.638  0.1821 -2.2293 -0.0598
17835TIP3   OH274995   1.968   0.112  41.617 -0.0502 -0.5511  0.6236
17835TIP3    H174996   1.942   0.166  41.691  0.2151 -0.5660  0.7292
17835TIP3    H274997   1.909   0.037  41.619 -2.0906  0.8925 -0.9631
17836TIP3   OH274998   0.057   1.672  85.187 -0.1197  1.0608  0.3681
17836TIP3    H174999  -0.024   1.628  85.212  0.6844 -0.1655  0.8871
17836TIP3    H275000   0.064   1.659  85.092  1.0876 -1.7752  0.7417
17837TIP3   OH275001   0.514   1.767  29.988 -0.0568  0.3956  0.1244
17837TIP3    H175002   0.603   1.793  29.967 -0.0092  1.1706  1.2475
17837TIP3    H275003   0.523   1.709  30.064 -0.4867  0.1407 -0.0117
17838TIP3   OH275004   0.563   0.228  23.354 -0.5367  0.3885 -0.5647
17838TIP3    H175005   0.511   0.149  23.371 -0.2033  0.4430  0.7825
17838TIP3    H275006   0.585   0.262  23.440  0.7440  1.0297 -1.1104
17839TIP3   OH275007   0.833   1.331  37.700  0.0206  0.2549  0.1211
17839TIP3    H175008   0.883   1.256  37.731  2.0122  1.0203 -1.0787
17839TIP3    H275009   0.758   1.292  37.655  1.3404 -1.0880 -1.0305
17840TIP3   OH275010   2.246   1.455  84.002  0.4060 -0.8832  0.4068
17840TIP3    H175011   2.151   1.452  83.992  0.3948 -0.3580  0.3454
17840TIP3    H275012   2.279   1.473  83.915  0.5958 -1.5886  0.3233
17841TIP3   OH275013   0.415   1.933   0.324  0.1370 -0.1083  0.0422
17841TIP3    H175014   0.344   1.997   0.323  1.6813  1.7069  1.0666
17841TIP3    H275015   0.422   1.907   0.416  0.9614 -0.0820 -0.0106
17842TIP3   OH275016   0.016   0.419  15.908 -0.3223 -0.2246  0.1772
17842TIP3    H175017   0.076   0.469  15.962  0.1870 -0.5006 -0.1314
17842TIP3    H275018  -0.067   0.467  15.914 -0.7119 -1.0389  2.3861
17843TIP3   OH275019   1.673   2.641  81.419 -0.4002 -0.1397 -0.0456
17843TIP3    H175020   1.596   2.670  81.370 -0.8662 -1.6817 -0.2688
17843TIP3    H275021   1.705   2.565  81.371  1.2936  0.4829  0.0426
17844TIP3   OH275022   1.545   1.369  19.514 -0.1982 -0.2043  0.2317
17844TIP3    H175023   1.458   1.358  19.476 -0.1719 -0.2491  0.1831
17844TIP3    H275024   1.571   1.459  19.490 -0.8593  0.3719  1.5677
17845TIP3   OH275025   0.463   1.785  28.662 -0.7708 -0.6787 -0.3503
17845TIP3    H175026   0.493   1.866  28.622 -2.0511  1.4005  2.5754
17845TIP3    H275027   0.381   1.808  28.704 -1.5490 -3.7156  0.0316
17846TIP3   OH275028   0.098   0.990   7.601  0.1593  0.0598  0.0127
17846TIP3    H175029   0.144   0.911   7.574  0.5292  0.4964 -0.6717
17846TIP3    H275030   0.058   1.023   7.520  1.4610  1.5244 -0.0773
17847TIP3   OH275031   1.267   1.350  24.438  0.0754 -0.1986 -0.0512
17847TIP3    H175032   1.290   1.296  24.362  1.3776  0.8465 -0.4292
17847TIP3    H275033   1.346   1.350  24.492 -0.0553  0.9778  0.1518
17848TIP3   OH275034   1.555   0.972  37.206 -0.2716  0.0089  0.6870
17848TIP3    H175035   1.596   0.976  37.292 -1.0264 -0.4309  1.0784
17848TIP3    H275036   1.530   0.880  37.196  2.2915 -0.6231 -1.1928
17849TIP3   OH275037   2.351   1.444 101.688  0.6034 -0.3022 -0.1954
17849TIP3    H175038   2.367   1.505 101.616  1.6391  0.1027  0.3573
17849TIP3    H275039   2.336   1.499 101.764 -0.9473 -0.7256 -0.1522
17850TIP3   OH275040   2.000   1.589  95.254 -0.1414 -0.1269 -0.4890
17850TIP3    H175041   1.973   1.497  95.254 -1.1146  0.1110  1.2354
17850TIP3    H275042   2.087   1.589  95.292 -0.8095 -0.2191  1.1232
17851TIP3   OH275043   1.475   0.523  90.485  0.1132 -0.4295 -0.9152
17851TIP3    H175044   1.551   0.575  90.460  0.7809 -0.9012  0.0651
17851TIP3    H275045   1.448   0.558  90.570  0.1317 -1.2050 -0.5785
17852TIP3   OH275046   0.156   0.159  98.076  0.1925  0.7037 -0.3968
17852TIP3    H175047   0.233   0.151  98.020  0.7836  0.6473  0.4019
17852TIP3    H275048   0.191   0.174  98.164 -0.6220 -1.8195  0.4541
17853TIP3   OH275049   1.571   1.655  57.092  0.0135 -0.9957 -0.0042
17853TIP3    H175050   1.643   1.698  57.138  0.4516  1.0853 -2.4157
17853TIP3    H275051   1.608   1.572  57.063  0.5688 -1.1324  1.0208
17854TIP3   OH275052   0.496   0.015  98.940 -0.3004 -0.1016 -0.0357
17854TIP3    H175053   0.591   0.026  98.929  0.1620 -1.2304  2.2037
17854TIP3    H275054   0.487  -0.072  98.979 -2.1346  0.6682  1.3741
17855TIP3   OH275055   0.866   2.095  23.925 -0.0755  0.0680 -0.1649
17855TIP3    H175056   0.845   2.015  23.877  0.6722  0.4896 -1.2487
17855TIP3    H275057   0.867   2.163  23.857  3.3749  0.3105 -0.0082
17856TIP3   OH275058   2.116   1.029  75.471 -0.2411 -0.1356 -0.4123
17856TIP3    H175059   2.050   1.013  75.404 -0.2163  1.3397 -0.8031
17856TIP3    H275060   2.187   0.968  75.449 -1.3818 -1.6636 -0.0417
17857TIP3   OH275061   0.550   0.340  25.666  0.0604  0.2257  0.5884
17857TIP3    H175062   0.498   0.262  25.645 -0.3518 -0.2400  2.9583
17857TIP3    H275063   0.639   0.316  25.641 -0.3832 -0.1806 -0.6589
17858TIP3   OH275064   2.146   2.611  89.176 -0.1368  0.1043  0.9161
17858TIP3    H175065   2.137   2.516  89.182  0.4276 -0.0468 -0.3434
17858TIP3    H275066   2.056   2.643  89.168 -0.3032 -0.3570  0.8964
17859TIP3   OH275067   0.045   1.635   8.978  0.2315 -0.4308 -0.5408
17859TIP3    H175068  -0.026   1.698   8.996  0.2720 -0.2579 -0.9828
17859TIP3    H275069   0.100   1.639   9.057 -0.7250 -1.2343  0.1984
17860TIP3   OH275070   2.500   2.447  84.516 -0.0405 -0.0001 -0.5379
17860TIP3    H175071   2.584   2.454  84.561 -1.6183  1.6108  2.4601
17860TIP3    H275072   2.463   2.364  84.548 -0.2480  0.0676 -0.6004
17861TIP3   OH275073   0.285   1.899  75.212  0.8112  0.1434  0.2542
17861TIP3    H175074   0.372   1.927  75.239 -0.0558  2.2218  1.0343
17861TIP3    H275075   0.241   1.875  75.293  0.6844 -1.0893 -0.1560
17862TIP3   OH275076   2.669   1.881  96.777 -0.2574  0.4852 -0.1339
17862TIP3    H175077   2.604   1.833  96.725  0.8483 -1.5242  0.2463
17862TIP3    H275078   2.733   1.911  96.712  0.3864 -0.8083 -0.1213
17863TIP3   OH275079   2.309   1.777 108.162 -0.2313  0.0149 -0.4897
17863TIP3    H175080   2.400   1.758 108.182 -0.7131 -0.8905  1.0467
17863TIP3    H275081   2.309   1.801 108.069  1.5932  0.3481 -0.4414
17864TIP3   OH275082   1.998   0.943 110.381  0.0477 -0.4122  0.3515
17864TIP3    H175083   1.959   1.009 110.323  0.3231 -0.2807  0.3131
17864TIP3    H275084   2.045   0.994 110.447 -0.6572 -0.5551  0.9729
17865TIP3   OH275085   0.342   0.312  25.905 -0.1102 -0.5000  0.2631
17865TIP3    H175086   0.254   0.318  25.869 -0.2015 -0.5104  0.4828
17865TIP3    H275087   0.329   0.309  26.000  0.0697 -1.3972  0.2710
17866TIP3   OH275088   0.050   0.441  34.986  0.6203  0.1493 -0.3203
17866TIP3    H175089  -0.028   0.389  34.967 -0.0419  0.3413  1.6561
17866TIP3    H275090   0.016   0.527  35.012  1.4214  0.0648  1.1139
17867TIP3   OH275091   0.362   2.336  41.473 -0.5785  0.0018 -0.2296
17867TIP3    H175092   0.348   2.420  41.517  1.0875 -0.5984  1.6164
17867TIP3    H275093   0.359   2.271  41.544  3.9355 -0.8350 -0.5092
17868TIP3   OH275094   0.458   1.252 101.598  0.6086  0.1477  0.7899
17868TIP3    H175095   0.384   1.297 101.556  1.0482 -1.3952 -1.8348
17868TIP3    H275096   0.529   1.316 101.596  0.0570  0.7705  0.9596
17869TIP3   OH275097   2.065   0.757  47.982  0.0511  0.3646 -0.2566
17869TIP3    H175098   2.073   0.737  47.889  2.5624  2.3045 -0.5855
17869TIP3    H275099   2.002   0.829  47.986  0.7758  1.0367 -0.6332
17870TIP3   OH275100   2.019   0.766  13.557 -0.2217 -0.6612  0.1658
17870TIP3    H175101   2.003   0.690  13.500 -1.2616 -0.0834 -0.3529
17870TIP3    H275102   2.033   0.839  13.495  1.0420 -0.4700  0.6520
17871TIP3   OH275103   0.411   0.051  98.037 -0.8710  0.3809 -0.9034
17871TIP3    H175104   0.477   0.119  98.019 -0.6683  0.3079 -0.4643
17871TIP3    H275105   0.453  -0.031  98.011 -0.8347  0.3479 -0.7445
17872TIP3   OH275106   2.548   2.150  12.202 -0.1501 -0.1631  0.3362
17872TIP3    H175107   2.597   2.130  12.122 -0.6078 -1.0246  0.2476
17872TIP3    H275108   2.614   2.171  12.267  0.2439  0.2795 -0.1999
17873TIP3   OH275109   1.947   1.443  33.000 -0.3707  0.0449  0.0241
17873TIP3    H175110   1.907   1.528  32.984  0.6955  0.9340  1.8679
17873TIP3    H275111   2.034   1.449  32.960 -0.6174 -0.5160 -0.6195
17874TIP3   OH275112   0.105   1.372 108.966 -0.9032  0.3253 -0.0075
17874TIP3    H175113   0.172   1.303 108.971  0.0338  1.1972 -0.2168
17874TIP3    H275114   0.045   1.342 108.899 -0.8899 -0.6120  0.3793
17875TIP3   OH275115   1.591   0.258   4.187 -0.0574 -0.3680 -0.3550
17875TIP3    H175116   1.579   0.262   4.282  1.6373 -1.9047 -0.0084
17875TIP3    H275117   1.523   0.314   4.151 -0.0455  1.1632  1.8203
17876TIP3   OH275118   0.765   1.717  73.898  0.0955  0.3575  0.0886
17876TIP3    H175119   0.805   1.770  73.829  2.0018 -1.0534  0.0156
17876TIP3    H275120   0.701   1.662  73.853 -0.2067  0.9238 -0.1894
17877TIP3   OH275121   2.647   2.082 109.328 -0.2547 -0.2032  0.0480
17877TIP3    H175122   2.686   2.138 109.395 -0.6615  0.2668 -0.1075
17877TIP3    H275123   2.662   1.993 109.360  0.3122 -0.0073  0.3471
17878TIP3   OH275124   0.823   2.179 110.423  0.3663  0.2315 -0.1531
17878TIP3    H175125   0.804   2.209 110.512  1.3143  0.1195  0.0953
17878TIP3    H275126   0.793   2.088 110.422 -0.1744  0.4075 -0.1277
17879TIP3   OH275127   1.091   0.197 109.439  0.3686  0.3474  0.1075
17879TIP3    H175128   1.048   0.219 109.522  1.8890  0.2522  0.9480
17879TIP3    H275129   1.035   0.130 109.401 -0.0838  0.0103  1.3100
17880TIP3   OH275130   1.918   2.532  25.555  0.1425 -0.0250  0.2485
17880TIP3    H175131   1.910   2.513  25.462  3.1321 -0.3096 -0.0255
17880TIP3    H275132   1.896   2.625  25.563 -1.2581 -0.2679 -0.5162
17881TIP3   OH275133   0.241   1.578 101.228  0.0272  0.1955 -0.3003
17881TIP3    H175134   0.161   1.611 101.188 -0.2853 -1.0227 -0.7109
17881TIP3    H275135   0.296   1.656 101.238 -1.3447  1.1269  0.3608
17882TIP3   OH275136   0.064   1.726  19.077 -0.0340 -1.1552 -0.2856
17882TIP3    H175137   0.038   1.647  19.125 -0.1184 -1.3805 -0.6969
17882TIP3    H275138   0.021   1.718  18.992  0.4961 -0.9985 -0.5764
17883TIP3   OH275139   2.311   0.644  91.501  0.2936 -0.0575 -0.3657
17883TIP3    H175140   2.353   0.708  91.443  1.6188  0.6932  1.3280
17883TIP3    H275141   2.378   0.577  91.514 -0.6353 -1.1515 -1.1105
17884TIP3   OH275142   0.461   0.045  99.261  0.0010 -0.6298  0.2769
17884TIP3    H175143   0.548   0.034  99.224 -0.3854 -2.2902 -0.2171
17884TIP3    H275144   0.453  -0.025  99.326  0.0351  1.1965  2.3448
17885TIP3   OH275145   2.029   1.647  46.896  0.0146  0.1468  0.4072
17885TIP3    H175146   1.999   1.680  46.812  1.8873  3.0527  0.7440
17885TIP3    H275147   2.085   1.572  46.874  0.8566  1.1474 -1.0333
17886TIP3   OH275148   0.713   0.226  30.470  0.2069  0.4934  0.3511
17886TIP3    H175149   0.768   0.304  30.467 -2.5073  2.5861  0.5550
17886TIP3    H275150   0.667   0.232  30.554 -2.1525  0.2800 -0.8458
17887TIP3   OH275151   1.789   2.017  80.916 -0.0217  0.1262 -0.8803
17887TIP3    H175152   1.782   1.939  80.862  2.6225 -0.9995  0.2274
17887TIP3    H275153   1.859   2.069  80.875  0.5341  0.2860  0.2281
17888TIP3   OH275154   0.450   0.418 101.898 -0.0224  0.1086 -0.1367
17888TIP3    H175155   0.459   0.352 101.967 -2.0658 -1.2709 -1.0715
17888TIP3    H275156   0.438   0.501 101.944  1.8997 -0.2176  1.0708
17889TIP3   OH275157   2.076   0.930  80.324  0.0309  0.2165  0.2221
17889TIP3    H175158   2.070   0.857  80.261 -0.2040 -0.5056  1.0556
17889TIP3    H275159   2.169   0.948  80.331 -0.0019  0.9358 -1.0336
17890TIP3   OH275160   0.022   2.582  78.159  1.0163  0.3123 -0.2153
17890TIP3    H175161   0.072   2.546  78.086 -0.8520 -0.2466 -1.2817
17890TIP3    H275162  -0.047   2.633  78.118 -1.0599 -1.3057  1.0596
17891TIP3   OH275163   0.387   0.121   7.509  0.2441 -0.2462  0.0497
17891TIP3    H175164   0.345   0.079   7.434 -0.7367 -1.0094  0.9793
17891TIP3    H275165   0.439   0.052   7.550  0.6785  0.1263  0.1310
17892TIP3   OH275166   2.295   2.074  96.498 -0.3130 -0.0253 -0.2098
17892TIP3    H175167   2.357   2.088  96.427  0.0339  1.4343  0.3495
17892TIP3    H275168   2.292   1.979  96.509  0.5880 -0.2032 -1.3136
17893TIP3   OH275169   1.421   0.085  89.598  0.2449 -0.3646 -0.2129
17893TIP3    H175170   1.503   0.037  89.605  1.3574  1.4835 -0.0373
17893TIP3    H275171   1.396   0.076  89.506  0.3395 -1.3686 -0.1581
17894TIP3   OH275172   0.759   0.836  76.436  0.2387 -0.4970  0.4005
17894TIP3    H175173   0.773   0.741  76.435  0.4982 -0.4589  0.1981
17894TIP3    H275174   0.816   0.867  76.506  0.4345 -0.4544  0.2255
17895TIP3   OH275175   0.236   0.928   3.916  0.0910  0.2314  0.1271
17895TIP3    H175176   0.296   0.927   3.990  0.9795  1.6526 -0.5259
17895TIP3    H275177   0.211   0.837   3.903  0.6054 -0.1395  1.6154
17896TIP3   OH275178   2.452   0.774  23.440 -0.0725 -0.1225  0.2451
17896TIP3    H175179   2.481   0.827  23.514  0.7919  2.0280 -1.5419
17896TIP3    H275180   2.523   0.712  23.426  0.5867  0.6442  0.1269
17897TIP3   OH275181   1.001   0.474  74.411  0.3445 -0.3357 -0.1967
17897TIP3    H175182   1.061   0.402  74.395  2.3727  1.2868 -0.2194
17897TIP3    H275183   0.964   0.455  74.498  1.0254 -1.2458 -0.0899
17898TIP3   OH275184   1.582   0.339   8.215  0.2035 -0.2601  0.3032
17898TIP3    H175185   1.673   0.316   8.195  0.0868 -1.7123  1.2510
17898TIP3    H275186   1.530   0.288   8.152 -0.0306 -2.1882  1.9351
17899TIP3   OH275187   1.358   0.400  28.893  0.2826  0.1238 -0.8334
17899TIP3    H175188   1.368   0.483  28.940 -2.7067  0.7581 -1.1145
17899TIP3    H275189   1.434   0.348  28.920  0.8186  1.9392  1.5222
17900TIP3   OH275190   1.776   1.219   4.015  0.4360 -0.1874 -0.4294
17900TIP3    H175191   1.803   1.283   4.081 -0.5787  0.3395 -0.5130
17900TIP3    H275192   1.827   1.141   4.035  1.0307  0.3623  0.2274
17901TIP3   OH275193   0.150   2.396 106.943  0.4387 -0.1689 -0.0576
17901TIP3    H175194   0.237   2.414 106.979  0.5058 -1.1972  0.3275
17901TIP3    H275195   0.158   2.416 106.850  1.3714 -1.1360 -0.2092
17902TIP3   OH275196   0.478   1.213  23.994  0.1516 -0.2477  0.3084
17902TIP3    H175197   0.449   1.263  23.917 -0.9664 -1.5209 -0.1398
17902TIP3    H275198   0.462   1.271  24.068 -0.0757  0.4760 -0.2975
17903TIP3   OH275199   1.924   1.111   8.501  0.1016  0.0856 -0.2057
17903TIP3    H175200   1.910   1.039   8.440 -0.5032  0.1157 -0.1071
17903TIP3    H275201   1.838   1.126   8.541  0.7150 -0.7479  1.5611
17904TIP3   OH275202   1.404   0.365   1.784  0.2755  0.1579 -0.0101
17904TIP3    H175203   1.380   0.294   1.843  0.8422 -0.5949 -0.6748
17904TIP3    H275204   1.500   0.365   1.783  0.2874 -0.4682 -1.6414
17905TIP3   OH275205   1.508   0.419  16.228  0.0622  0.0581  0.2041
17905TIP3    H175206   1.487   0.421  16.135 -0.4122 -0.4861  0.2921
17905TIP3    H275207   1.597   0.453  16.233  0.6335 -1.2039 -0.6226
17906TIP3   OH275208   2.376   2.614   8.320 -0.1772  0.1011 -0.2857
17906TIP3    H175209   2.458   2.624   8.368 -0.0029  0.4023 -0.6313
17906TIP3    H275210   2.402   2.621   8.228 -0.4796 -0.6240 -0.4336
17907TIP3   OH275211   2.419   2.302  24.769 -0.0188 -0.2301  0.0428
17907TIP3    H175212   2.443   2.231  24.829  0.2722  1.5624  2.1958
17907TIP3    H275213   2.327   2.318  24.786  0.4581  1.4277  1.4022
17908TIP3   OH275214   1.729   0.338  32.142 -0.0717 -0.4151  0.1348
17908TIP3    H175215   1.762   0.256  32.104 -0.3383 -0.6097  0.3219
17908TIP3    H275216   1.740   0.402  32.072  0.0288 -0.6349 -0.0559
17909TIP3   OH275217   2.641   0.486  23.420  0.0821 -0.1632 -0.3330
17909TIP3    H175218   2.680   0.510  23.504  0.5356  0.3974 -0.6901
17909TIP3    H275219   2.688   0.407  23.393 -0.0296 -0.3157 -0.0866
17910TIP3   OH275220   0.112   0.239  31.569 -0.5199 -0.4082 -0.0067
17910TIP3    H175221   0.068   0.275  31.646  0.9268  0.9353  0.2530
17910TIP3    H275222   0.050   0.253  31.497 -0.1990  2.3595  0.1624
17911TIP3   OH275223   2.065   0.060  96.550 -0.3893 -0.0418 -0.0759
17911TIP3    H175224   2.157   0.042  96.570 -0.7814 -0.5359  1.3793
17911TIP3    H275225   2.067   0.139  96.497  0.9049 -0.3453 -0.5114
17912TIP3   OH275226   2.486   1.295  79.845 -0.2206 -0.0069 -0.0885
17912TIP3    H175227   2.428   1.247  79.903 -0.4460  0.9070  0.4636
17912TIP3    H275228   2.427   1.341  79.785 -0.0340  0.2636 -0.0603
17913TIP3   OH275229   1.219   1.388  75.977  0.1531  0.1254  0.6144
17913TIP3    H175230   1.134   1.345  75.987  0.4114  0.1682  3.7304
17913TIP3    H275231   1.261   1.380  76.063  2.9426  0.9266 -0.5460
17914TIP3   OH275232   2.165   2.543  84.363 -0.5539 -0.1354  0.1710
17914TIP3    H175233   2.082   2.570  84.322  0.7072  1.2438 -1.6032
17914TIP3    H275234   2.220   2.621  84.360  0.9187 -1.0924  1.0809
17915TIP3   OH275235   1.392   0.265  27.863  0.7644  0.0486  0.8352
17915TIP3    H175236   1.479   0.274  27.903  1.5936 -1.6294 -0.4479
17915TIP3    H275237   1.406   0.290  27.771 -0.4489  1.0898  0.9065
17916TIP3   OH275238   2.396   2.536  82.094 -0.2351  0.0007  0.4386
17916TIP3    H175239   2.324   2.520  82.034  0.7389  1.0844 -1.0970
17916TIP3    H275240   2.355   2.578  82.170 -1.3195 -0.1927 -0.0227
17917TIP3   OH275241   0.906   2.202  30.542 -0.6652 -0.1677  0.7006
17917TIP3    H175242   0.910   2.267  30.612 -1.6514 -0.8819  1.4448
17917TIP3    H275243   0.991   2.158  30.545 -0.3947  0.3618  0.9016
17918TIP3   OH275244   2.051   1.386 109.780  0.0905  0.8132 -0.4060
17918TIP3    H175245   2.025   1.438 109.704  0.9820  1.0315 -0.5752
17918TIP3    H275246   1.984   1.405 109.846 -0.1831  1.3312 -0.8228
17919TIP3   OH275247   2.582   2.424  88.122 -0.6655  0.0304 -0.1940
17919TIP3    H175248   2.589   2.388  88.034 -0.5849 -1.4393  0.3978
17919TIP3    H275249   2.531   2.360  88.172 -1.0865  1.0364  0.7373
17920TIP3   OH275250   1.042   0.056  99.562  0.2859 -0.4142 -0.2234
17920TIP3    H175251   0.999  -0.029  99.578 -0.1215 -0.0135  0.9270
17920TIP3    H275252   1.030   0.104  99.644  1.7823  0.2247 -0.3547
17921TIP3   OH275253   0.942   1.477 102.867  0.1909 -0.1492 -0.2119
17921TIP3    H175254   0.889   1.513 102.796  0.6230 -0.2207 -0.5696
17921TIP3    H275255   0.887   1.488 102.945  0.0870  0.7924 -0.3959
17922TIP3   OH275256   0.938   2.407  96.568 -0.1697  0.1839  0.2012
17922TIP3    H175257   0.946   2.503  96.569  0.0686  0.2149  3.4008
17922TIP3    H275258   0.927   2.386  96.475 -3.5961  3.5619 -0.4081
17923TIP3   OH275259   1.916   2.486  22.752 -0.4585  0.0383 -0.2820
17923TIP3    H175260   2.006   2.457  22.736 -0.1095  1.7832 -1.8759
17923TIP3    H275261   1.880   2.501  22.665 -1.6751  1.1194  0.3641
17924TIP3   OH275262   1.915   0.852  41.731  0.1905  0.1908 -0.4670
17924TIP3    H175263   1.992   0.819  41.779  0.6380  1.2173 -0.4627
17924TIP3    H275264   1.871   0.772  41.700  2.0536 -0.4167 -1.7534
17925TIP3   OH275265   0.284   1.955  37.066 -0.2755 -0.0160 -0.0601
17925TIP3    H175266   0.352   1.907  37.113 -0.4410  1.1590  1.4552
17925TIP3    H275267   0.323   1.977  36.982  0.7060 -0.5483  0.2454
17926TIP3   OH275268   0.071   1.421  79.914  0.3175  0.6395 -0.0945
17926TIP3    H175269   0.039   1.508  79.890  1.4180  1.1260  0.1621
17926TIP3    H275270   0.031   1.362  79.850 -1.6612  1.1015  0.6303
17927TIP3   OH275271   1.696   0.998  29.596  0.7969 -0.2437  0.5484
17927TIP3    H175272   1.697   0.940  29.672 -2.1717 -0.5280  0.4960
17927TIP3    H275273   1.650   1.077  29.626  2.6532  1.1421 -0.0509
17928TIP3   OH275274   1.017   2.182  77.804 -0.3173 -0.2766 -0.2251
17928TIP3    H175275   1.070   2.151  77.732 -0.6997  0.3830 -0.8089
17928TIP3    H275276   0.994   2.104  77.853 -0.4290 -0.7940 -1.0796
17929TIP3   OH275277   1.797   0.284  10.909 -0.0626 -0.0311  0.1496
17929TIP3    H175278   1.779   0.358  10.851 -0.0042 -0.1947 -0.0820
17929TIP3    H275279   1.718   0.273  10.961 -0.2024 -0.0286 -0.0627
17930TIP3   OH275280   0.052   1.231  21.563 -0.1452  0.1457  0.5167
17930TIP3    H175281   0.002   1.171  21.507 -1.9023  1.1895  0.9196
17930TIP3    H275282   0.005   1.314  21.558  1.8209  1.3392  0.5590
17931TIP3   OH275283   2.469   1.928  86.615  0.2606 -0.3529  0.3047
17931TIP3    H175284   2.529   1.912  86.543  0.6178  0.8166  0.3207
17931TIP3    H275285   2.436   2.017  86.600  1.2504  0.4022  2.1836
17932TIP3   OH275286   0.033   2.671  23.969  0.3261  0.2560 -0.3665
17932TIP3    H175287   0.060   2.624  24.048 -0.2708 -0.4761 -0.5845
17932TIP3    H275288  -0.061   2.683  23.980  0.3404  0.6776 -0.6983
17933TIP3   OH275289   1.709   0.518 100.243 -0.4443  0.0162 -0.5588
17933TIP3    H175290   1.797   0.520 100.205  0.4827 -0.3654  1.4261
17933TIP3    H275291   1.697   0.428 100.272 -0.4376  0.6081  1.4177
17934TIP3   OH275292   1.848   0.258  83.944 -0.2054 -0.1811 -0.6299
17934TIP3    H175293   1.938   0.226  83.954  0.6334  2.0812 -0.4191
17934TIP3    H275294   1.807   0.195  83.885  1.9340 -0.5429 -1.8417
17935TIP3   OH275295   0.011   2.398 100.956 -0.0269 -0.2178 -0.0881
17935TIP3    H175296  -0.014   2.485 100.989  0.1886  0.1846 -0.9654
17935TIP3    H275297   0.094   2.380 100.998  0.3270  0.3677 -0.5183
17936TIP3   OH275298   0.362   0.560  15.182  0.4635  0.3210  0.5362
17936TIP3    H175299   0.455   0.540  15.192  0.5792  0.9558  0.7914
17936TIP3    H275300   0.354   0.652  15.210  0.0494  0.8002 -1.0157
17937TIP3   OH275301   2.607   1.177  97.426  0.5372 -0.2364  0.1516
17937TIP3    H175302   2.567   1.102  97.470 -0.3587 -0.5565 -1.1454
17937TIP3    H275303   2.644   1.140  97.346  1.0632  0.5303  0.0335
17938TIP3   OH275304   1.587   0.229  98.336  0.5507 -0.1769 -0.1338
17938TIP3    H175305   1.550   0.153  98.292 -0.6354  1.4279 -2.0408
17938TIP3    H275306   1.646   0.269  98.272 -0.5409  1.7305 -0.0192
17939TIP3   OH275307   0.989   2.521  26.959 -0.4895  0.0935  0.7547
17939TIP3    H175308   0.939   2.517  27.040 -0.6763  0.8905  0.6864
17939TIP3    H275309   1.043   2.442  26.960 -2.0438 -1.0074  0.6291
17940TIP3   OH275310   0.202   2.503  29.971 -0.0734 -0.4953 -0.2161
17940TIP3    H175311   0.272   2.554  29.930 -1.0572 -0.8061 -2.3759
17940TIP3    H275312   0.215   2.414  29.938 -1.8401 -0.4286 -1.1972
17941TIP3   OH275313   1.607   0.044  83.754 -0.4385 -0.1160  0.3307
17941TIP3    H175314   1.640  -0.040  83.722 -0.6859 -1.0256  2.2875
17941TIP3    H275315   1.513   0.030  83.766 -0.3926  0.2245  1.2009
17942TIP3   OH275316   0.680   2.291  82.411  0.6569  0.4378  0.2851
17942TIP3    H175317   0.770   2.297  82.379  0.3271 -2.3016 -1.5431
17942TIP3    H275318   0.680   2.213  82.468 -0.7589 -0.3719 -0.7600
17943TIP3   OH275319   0.927   2.262  91.017 -0.7880 -0.4624 -0.6510
17943TIP3    H175320   0.850   2.228  90.970 -2.2987  1.9649 -0.1187
17943TIP3    H275321   0.908   2.245  91.109  0.7763 -2.5366 -0.6678
17944TIP3   OH275322   1.335   0.678  22.516 -0.0336 -0.6304  0.4031
17944TIP3    H175323   1.291   0.704  22.434 -1.6868  1.8911  1.9474
17944TIP3    H275324   1.428   0.692  22.500 -0.1081 -1.9628 -1.5767
17945TIP3   OH275325   1.683   1.163  15.076 -0.3145  0.0354  0.1551
17945TIP3    H175326   1.723   1.093  15.025  0.1519  0.6111 -0.2767
17945TIP3    H275327   1.683   1.131  15.166  0.8932 -0.0669  0.1232
17946TIP3   OH275328   0.793   1.892  93.966 -0.1556 -0.0092 -0.3313
17946TIP3    H175329   0.837   1.820  93.920  0.1012  0.6586 -1.1585
17946TIP3    H275330   0.705   1.895  93.928 -0.8381 -1.0926  1.0509
17947TIP3   OH275331   1.083   2.454  36.560 -0.0947 -0.0666 -0.1223
17947TIP3    H175332   1.009   2.413  36.515  0.3505 -0.8154 -0.1748
17947TIP3    H275333   1.135   2.381  36.594 -0.5084  0.4509  1.7751
17948TIP3   OH275334   0.470   1.862  13.932  0.0869 -0.3820  0.2395
17948TIP3    H175335   0.398   1.921  13.910  0.8714  1.2698  1.7984
17948TIP3    H275336   0.427   1.782  13.962 -1.0522 -0.0346 -0.3879
17949TIP3   OH275337   1.997   1.477   2.926 -0.5377 -0.0463 -0.0331
17949TIP3    H175338   2.014   1.388   2.957 -3.6177 -1.0610 -0.9141
17949TIP3    H275339   2.004   1.532   3.005  0.0726 -1.2416  0.7761
17950TIP3   OH275340   0.900   1.292   3.156 -0.3505  0.4060  0.1892
17950TIP3    H175341   0.956   1.267   3.083  0.5286  0.6064  0.7801
17950TIP3    H275342   0.839   1.356   3.119 -0.5820 -0.2520 -0.5941
17951TIP3   OH275343   2.685   1.686 109.595  0.5093 -0.0365  0.2004
17951TIP3    H175344   2.645   1.695 109.681  3.1572  1.7400  1.3738
17951TIP3    H275345   2.709   1.775 109.570  1.6811 -0.7585 -1.4293
17952TIP3   OH275346   2.391   0.944  11.474  0.6370  0.7641 -0.5319
17952TIP3    H175347   2.379   0.855  11.440 -0.8498  0.6145  0.2863
17952TIP3    H275348   2.341   0.999  11.413  1.4315  1.0276 -0.9515
17953TIP3   OH275349   0.549   0.516  86.996  0.3463 -0.3585 -0.2770
17953TIP3    H175350   0.497   0.567  87.058 -0.3674 -1.6377  0.1925
17953TIP3    H275351   0.487   0.490  86.928  0.8433 -0.0791 -0.8467
17954TIP3   OH275352   0.539   0.829   9.405  0.1606 -0.2546  0.2001
17954TIP3    H175353   0.613   0.770   9.419  0.0644 -0.5889 -0.6271
17954TIP3    H275354   0.568   0.888   9.335 -0.1720 -0.0727  0.2135
17955TIP3   OH275355   1.299   1.935  16.088  0.3705  0.0361  0.6756
17955TIP3    H175356   1.332   2.019  16.119 -0.9329  0.5849  0.6753
17955TIP3    H275357   1.242   1.905  16.159 -1.3136  0.4921 -0.4134
17956TIP3   OH275358   2.660   0.131   1.596  0.2739 -0.3318  0.3869
17956TIP3    H175359   2.566   0.117   1.611  0.2068  0.5729  0.8901
17956TIP3    H275360   2.676   0.095   1.509 -0.6866  0.1500 -0.0056
17957TIP3   OH275361   1.468   0.147 104.635 -0.7347 -0.3983  0.2934
17957TIP3    H175362   1.479   0.078 104.701 -0.8808 -0.9492 -0.2538
17957TIP3    H275363   1.445   0.100 104.555 -0.5385  0.2669 -0.1605
17958TIP3   OH275364   1.332   2.638  23.152 -0.3308 -0.5562 -0.3395
17958TIP3    H175365   1.304   2.609  23.238  4.4604  0.6095  1.9318
17958TIP3    H275366   1.322   2.561  23.096 -1.7824 -1.9311  1.6696
17959TIP3   OH275367   0.239   0.176 105.758 -0.0983 -0.3577  0.4556
17959TIP3    H175368   0.235   0.271 105.747  0.4826 -0.3045  0.6329
17959TIP3    H275369   0.328   0.153 105.732 -1.1918 -1.3133 -2.8695
17960TIP3   OH275370   2.095   0.266  91.828 -0.0690  0.0329  0.1636
17960TIP3    H175371   2.089   0.347  91.776  1.0624  0.4766  0.6970
17960TIP3    H275372   2.009   0.226  91.819  0.1646 -0.0927 -2.3712
17961TIP3   OH275373   0.869   1.008   3.625 -0.3981  0.1261  0.3281
17961TIP3    H175374   0.885   1.045   3.538  2.3058 -0.1907  0.6010
17961TIP3    H275375   0.881   1.081   3.685  0.9205 -0.2839  0.5990
17962TIP3   OH275376   0.526   1.180  13.353  0.3972  0.0865 -0.5847
17962TIP3    H175377   0.486   1.260  13.317 -1.8347 -0.7658 -0.1661
17962TIP3    H275378   0.540   1.200  13.446 -0.3934 -0.0675 -0.4246
17963TIP3   OH275379   0.463   0.050  18.270 -0.3611 -0.2905 -0.2453
17963TIP3    H175380   0.490   0.127  18.221  1.9651 -1.2188 -0.5556
17963TIP3    H275381   0.426  -0.009  18.204 -3.0633  0.8491  0.1306
17964TIP3   OH275382   2.488   1.810  73.885  0.3422  0.1154  0.0130
17964TIP3    H175383   2.424   1.772  73.825 -1.9537  2.0262  1.0811
17964TIP3    H275384   2.437   1.839  73.960  2.7284  0.2780  1.7080
17965TIP3   OH275385   0.798   0.418 107.655 -0.3276 -0.0329  0.0740
17965TIP3    H175386   0.789   0.393 107.747 -2.6607  0.0098 -0.0715
17965TIP3    H275387   0.710   0.406 107.619  0.6099 -0.3762 -2.2482
17966TIP3   OH275388   0.322   2.473   5.060 -0.1039  0.1391 -0.5515
17966TIP3    H175389   0.406   2.436   5.088 -0.6008 -0.7806 -0.2142
17966TIP3    H275390   0.343   2.525   4.983  0.7816 -0.0620 -0.4577
17967TIP3   OH275391   2.460   1.993  85.536  0.0448  0.1643 -0.5338
17967TIP3    H175392   2.515   1.929  85.491  0.6559  0.3650 -0.0737
17967TIP3    H275393   2.377   1.947  85.551  0.4116 -0.4542 -0.3853
17968TIP3   OH275394   1.102   1.946  31.219  0.0617 -0.2488 -0.1035
17968TIP3    H175395   1.149   1.947  31.302 -0.3970 -0.5517  0.1665
17968TIP3    H275396   1.145   2.013  31.166 -1.4018  1.9578  1.3441
17969TIP3   OH275397   0.672   1.993   9.503 -0.3168 -0.5478  0.7797
17969TIP3    H175398   0.696   1.939   9.579  0.4368  0.1369  1.0483
17969TIP3    H275399   0.576   1.992   9.503 -0.3444 -0.1457  2.0593
17970TIP3   OH275400   2.399   2.325  21.700 -0.3355  0.6060  0.8049
17970TIP3    H175401   2.385   2.232  21.720 -1.5879  0.7713  0.7743
17970TIP3    H275402   2.480   2.327  21.649 -0.5276 -0.5209  0.4301
17971TIP3   OH275403   0.158   1.975  74.328 -0.0960 -0.0795  0.4687
17971TIP3    H175404   0.210   1.968  74.408 -0.3731  2.8374  1.0220
17971TIP3    H275405   0.217   2.019  74.266 -1.7468  3.5768  1.2000
17972TIP3   OH275406   1.033   1.610   7.906 -0.2268 -0.0744 -0.5702
17972TIP3    H175407   1.023   1.645   7.817 -0.2467  0.9440 -0.1795
17972TIP3    H275408   0.961   1.649   7.955 -1.3735 -2.1065 -0.5092
17973TIP3   OH275409   1.461   1.991 101.749  0.6177 -0.2566  0.1743
17973TIP3    H175410   1.430   2.081 101.760  0.6085 -0.1668 -0.5873
17973TIP3    H275411   1.402   1.939 101.804 -0.1640  0.0565 -0.3482
17974TIP3   OH275412   1.492   2.412  77.183  0.1534 -0.0325  0.1211
17974TIP3    H175413   1.562   2.442  77.242  1.0133 -0.2447 -0.7678
17974TIP3    H275414   1.438   2.355  77.237  0.5323  0.3226  0.8913
17975TIP3   OH275415   0.887   1.006   2.672 -0.2894 -0.2826 -0.0470
17975TIP3    H175416   0.951   0.935   2.666 -0.4066 -0.7368  2.6581
17975TIP3    H275417   0.802   0.964   2.658 -0.1828 -0.1506 -1.1312
17976TIP3   OH275418   0.034   1.217  77.192 -0.3015 -0.2271 -0.6526
17976TIP3    H175419   0.028   1.216  77.097 -0.1989 -0.5678 -0.6565
17976TIP3    H275420   0.124   1.191  77.211 -0.8462 -2.0775 -0.4247
17977TIP3   OH275421   1.940   1.558  16.208  0.3519 -0.1023  0.2336
17977TIP3    H175422   1.851   1.548  16.244  0.4414 -0.5435  0.3436
17977TIP3    H275423   1.963   1.469  16.180  0.7000  0.0436  0.0648
17978TIP3   OH275424   0.274   2.406  34.945  0.3345  0.0479 -0.2966
17978TIP3    H175425   0.217   2.413  35.022  0.4811  2.2192 -0.3257
17978TIP3    H275426   0.363   2.413  34.980  0.7293 -3.3542 -0.2528
17979TIP3   OH275427   0.023   2.211 104.359  0.4372 -0.6301  0.2505
17979TIP3    H175428  -0.013   2.134 104.316 -0.6372 -1.1614  1.9952
17979TIP3    H275429  -0.050   2.273 104.362  1.3959  0.6764 -1.4936
17980TIP3   OH275430   1.558   2.092 104.863 -0.4139  0.1468 -0.2372
17980TIP3    H175431   1.640   2.102 104.911 -0.3198 -0.2625 -0.3132
17980TIP3    H275432   1.582   2.039 104.787 -0.5065  0.9787 -0.8768
17981TIP3   OH275433   2.365   1.851  75.028 -0.7624 -0.4871 -0.3062
17981TIP3    H175434   2.318   1.900  75.096  1.2479  0.4208  0.5127
17981TIP3    H275435   2.317   1.870  74.947 -2.7078 -0.8991  0.7025
17982TIP3   OH275436   0.951   1.196  80.450 -0.3033  0.0150 -0.1942
17982TIP3    H175437   0.973   1.271  80.395 -0.6848 -0.4362 -0.9720
17982TIP3    H275438   0.977   1.119  80.399 -2.4659 -0.4912 -0.6164
17983TIP3   OH275439   0.871   0.970  56.978 -0.5300  0.3232 -0.5568
17983TIP3    H175440   0.906   1.048  57.021  1.8601 -0.0634 -1.6425
17983TIP3    H275441   0.947   0.928  56.938 -1.9690 -1.7807 -1.2763
17984TIP3   OH275442   0.122   0.594  21.489  0.1089  0.1593  0.8843
17984TIP3    H175443   0.212   0.595  21.455 -0.2605 -1.0912 -0.1851
17984TIP3    H275444   0.103   0.686  21.507  1.3276  0.5360  0.3821
17985TIP3   OH275445   1.236   2.288  33.495  0.0076 -0.2329  0.5538
17985TIP3    H175446   1.246   2.253  33.406 -0.7792  0.5550  0.1400
17985TIP3    H275447   1.158   2.244  33.529 -1.0407  1.1434 -0.0055
17986TIP3   OH275448   1.434   1.293 102.229 -0.7249  0.2478  0.3287
17986TIP3    H175449   1.387   1.375 102.238 -1.6637 -0.3672  1.2541
17986TIP3    H275450   1.501   1.296 102.297 -0.5395  0.3900  0.1406
17987TIP3   OH275451   0.926   0.492 110.862  0.1231  0.1233 -0.1741
17987TIP3    H175452   0.933   0.542 110.781 -0.4071 -0.0789 -0.3448
17987TIP3    H275453   0.957   0.404 110.840  1.7776  0.5501  0.3115
17988TIP3   OH275454   0.056   1.628  28.991 -0.1064  0.2695  0.1187
17988TIP3    H175455   0.071   1.722  28.983 -2.9654  1.0029  1.7931
17988TIP3    H275456   0.091   1.604  29.077 -0.7615  0.1763  0.3694
17989TIP3   OH275457   2.399   0.822 104.151 -0.4359  0.4114 -0.2494
17989TIP3    H175458   2.464   0.892 104.148 -0.0125  0.2664  2.6952
17989TIP3    H275459   2.334   0.851 104.215 -0.7272 -1.4473  0.3820
17990TIP3   OH275460   1.719   2.440  11.102  0.3114  0.1012 -0.2133
17990TIP3    H175461   1.688   2.529  11.088  2.4880  0.8037 -1.1263
17990TIP3    H275462   1.686   2.391  11.027 -0.1460  0.3492 -0.1784
17991TIP3   OH275463   2.140   1.703   0.980  0.5901  0.0888  0.0720
17991TIP3    H175464   2.127   1.618   1.023  1.2126 -0.8597 -1.5354
17991TIP3    H275465   2.186   1.756   1.045  0.6141 -0.9638  0.9411
17992TIP3   OH275466   0.068   2.020  99.261 -0.1904 -0.4225 -0.0904
17992TIP3    H175467   0.098   2.018  99.170  0.2581 -0.1882  0.0508
17992TIP3    H275468   0.129   1.963  99.308 -0.5398 -0.7053  0.0361
17993TIP3   OH275469   1.932   1.360  19.546 -0.2945 -0.2930 -0.2231
17993TIP3    H175470   1.914   1.394  19.458  0.6917 -1.6711 -0.9870
17993TIP3    H275471   1.997   1.291  19.533  0.4222 -0.0348  1.6873
17994TIP3   OH275472   0.842   1.168  15.185  0.0898 -0.4389  0.0721
17994TIP3    H175473   0.899   1.227  15.235 -1.5998 -0.4059  2.0978
17994TIP3    H275474   0.844   1.086  15.235  0.2969 -1.2535 -1.2296
17995TIP3   OH275475   2.093   1.578  33.277 -0.3011  0.0963 -0.2518
17995TIP3    H175476   2.058   1.621  33.199 -0.2070 -1.1495 -1.0165
17995TIP3    H275477   2.066   1.486  33.267 -0.0034 -0.1477  1.0248
17996TIP3   OH275478   1.307   1.285  14.242 -0.2780 -0.5493  0.1426
17996TIP3    H175479   1.310   1.192  14.264 -0.1955 -0.1163  2.1368
17996TIP3    H275480   1.393   1.303  14.205  0.3299 -0.9436  1.2950
17997TIP3   OH275481   0.409   1.189  18.081  0.3880 -0.2084 -0.1724
17997TIP3    H175482   0.452   1.115  18.039  0.2117 -0.4680  0.0934
17997TIP3    H275483   0.473   1.224  18.142  0.0875 -0.8605  0.5341
17998TIP3   OH275484   1.231   1.550   2.508 -0.7949 -0.3452  0.3526
17998TIP3    H175485   1.186   1.634   2.496 -0.5476 -0.1238  0.9243
17998TIP3    H275486   1.241   1.542   2.603 -0.7125 -0.9690  0.2913
17999TIP3   OH275487   2.073   1.829  15.230  0.0699 -0.1787  0.1264
17999TIP3    H175488   2.012   1.792  15.166 -1.2183  1.3113  0.4403
17999TIP3    H275489   2.069   1.769  15.305  0.6558 -1.2567 -0.6826
18000TIP3   OH275490   0.224   2.365 101.676  0.1842  0.2659  0.8914
18000TIP3    H175491   0.163   2.344 101.747 -0.6320 -1.1917 -0.1819
18000TIP3    H275492   0.292   2.298 101.683  0.1646  0.1908  0.4048
18001TIP3   OH275493   0.323   2.446  69.362 -0.1410  0.0418  0.1815
18001TIP3    H175494   0.295   2.411  69.447 -1.5085 -0.3064 -0.3819
18001TIP3    H275495   0.273   2.395  69.298 -0.2330  1.2739 -0.7662
18002TIP3   OH275496   2.249   2.057  81.282  0.0348 -0.0228 -0.2067
18002TIP3    H175497   2.176   2.096  81.330 -0.5976  0.9797 -1.8847
18002TIP3    H275498   2.250   1.966  81.309 -2.2388 -0.2127 -0.5615
18003TIP3   OH275499   2.383   1.725 105.509  0.1278 -0.2301  0.1183
18003TIP3    H175500   2.337   1.790 105.561  1.2863  0.8626 -0.1867
18003TIP3    H275501   2.472   1.758 105.501  0.0661 -0.4318 -2.3735
18004TIP3   OH275502   2.195   0.008  31.447 -0.7679  0.1184  0.1770
18004TIP3    H175503   2.102   0.009  31.468 -0.8517 -1.5071  0.0323
18004TIP3    H275504   2.203  -0.054  31.375  0.4721 -0.1100  0.4825
18005TIP3   OH275505   0.025   1.930   4.431  0.1700  0.1913 -0.1858
18005TIP3    H175506   0.023   1.844   4.473  1.1690  0.4645  0.4537
18005TIP3    H275507  -0.067   1.951   4.416 -0.0804 -1.0646 -0.5184
18006TIP3   OH275508   1.371   2.664  27.666 -0.3944 -0.8418 -0.5391
18006TIP3    H175509   1.447   2.695  27.618 -0.0714  0.1372  0.5687
18006TIP3    H275510   1.377   2.568  27.661  2.1873 -0.8866  1.3986
18007TIP3   OH275511   1.571   1.830  88.085  0.3332  0.6054  0.2921
18007TIP3    H175512   1.657   1.827  88.042  0.1785  1.0609 -0.0613
18007TIP3    H275513   1.515   1.877  88.023 -0.5356 -0.8723 -0.0934
18008TIP3   OH275514   1.935   0.527  77.975 -0.2304 -0.6310 -0.1801
18008TIP3    H175515   1.889   0.445  77.961 -0.5573 -0.2259 -1.6846
18008TIP3    H275516   1.892   0.589  77.916  1.4976  0.0181 -0.8467
18009TIP3   OH275517   1.010   0.353  91.076  0.3505 -0.6462 -0.1378
18009TIP3    H175518   1.100   0.378  91.054  0.0109 -0.1874 -1.0700
18009TIP3    H275519   1.017   0.263  91.107  1.1306 -0.6138 -0.1969
18010TIP3   OH275520   0.016   0.022  96.049  0.3202  0.4429  0.1642
18010TIP3    H175521   0.033  -0.039  96.120 -0.2256 -0.4678 -0.4583
18010TIP3    H275522  -0.022   0.099  96.091  1.3052  0.4843  0.9924
18011TIP3   OH275523   2.559   1.481   9.242 -0.2298  0.1549 -0.5265
18011TIP3    H175524   2.464   1.469   9.241 -0.2450  0.3201 -0.8865
18011TIP3    H275525   2.572   1.575   9.234 -0.0198  0.0755 -1.1736
18012TIP3   OH275526   0.213   0.168  53.255  0.4940 -0.0912  0.5163
18012TIP3    H175527   0.129   0.150  53.211  1.3101 -2.7953 -0.1129
18012TIP3    H275528   0.272   0.192  53.184  1.0045 -1.2403  0.5416
18013TIP3   OH275529   2.316   2.224  26.759 -0.0060 -0.3081  0.3490
18013TIP3    H175530   2.305   2.130  26.746 -0.7560 -0.2260  0.2962
18013TIP3    H275531   2.238   2.262  26.717  0.4468  0.3527  0.1004
18014TIP3   OH275532   2.654   2.302  78.202  0.1709 -0.3958  0.0307
18014TIP3    H175533   2.603   2.297  78.121  0.5685  0.8886 -0.3236
18014TIP3    H275534   2.650   2.394  78.227  0.1353 -0.7620  1.4422
18015TIP3   OH275535   2.515   2.126  14.777  0.1933  0.4736 -0.8247
18015TIP3    H175536   2.487   2.045  14.821  0.3601  1.7980  1.9317
18015TIP3    H275537   2.605   2.108  14.750  0.6382  0.1021  0.8137
18016TIP3   OH275538   2.051   0.452  77.335  0.0542  0.0214  0.4681
18016TIP3    H175539   2.060   0.454  77.430  2.5188  0.2640  0.3005
18016TIP3    H275540   2.045   0.544  77.309  2.1080  0.1312  0.2472
18017TIP3   OH275541   0.475   2.235  85.581  0.4544  0.5360  0.5809
18017TIP3    H175542   0.463   2.305  85.645 -1.0511 -0.0133  0.9334
18017TIP3    H275543   0.433   2.159  85.621  0.4246 -0.0885 -0.6106
18018TIP3   OH275544   0.095   1.384 111.065 -0.3357  0.3286  0.0039
18018TIP3    H175545   0.098   1.470 111.024  0.5229  0.5692  0.5625
18018TIP3    H275546   0.018   1.388 111.122 -1.1691  0.2049 -1.0799
18019TIP3   OH275547   0.915   1.622  74.528  0.3528  0.4433 -0.1718
18019TIP3    H175548   0.831   1.584  74.501  0.6279  1.0905 -2.1238
18019TIP3    H275549   0.941   1.677  74.454  2.8975 -0.3941 -0.0020
18020TIP3   OH275550   1.493   0.644 100.803  0.2126  0.3950 -0.2999
18020TIP3    H175551   1.526   0.698 100.731 -1.7500  1.0574 -0.7799
18020TIP3    H275552   1.493   0.555 100.768  1.8611  0.3013 -0.1134
18021TIP3   OH275553   0.730   2.457  12.714 -0.3629  0.2241 -0.3049
18021TIP3    H175554   0.788   2.531  12.697  0.1824 -0.5139 -1.8335
18021TIP3    H275555   0.648   2.480  12.670 -0.7704  0.6466  0.6565
18022TIP3   OH275556   0.454   1.762  77.721 -0.1053 -0.7529  0.4267
18022TIP3    H175557   0.410   1.718  77.793 -1.4344 -1.2359 -0.6374
18022TIP3    H275558   0.459   1.854  77.749 -1.9860 -0.6449  0.5235
18023TIP3   OH275559   2.183   1.655  94.491 -0.6967  0.3505  0.9527
18023TIP3    H175560   2.180   1.647  94.396 -0.5559  1.4050  0.8412
18023TIP3    H275561   2.227   1.576  94.521 -1.9578 -0.6463  0.2568
18024TIP3   OH275562   1.292   0.542 101.188 -0.2719 -0.0558  0.2531
18024TIP3    H175563   1.321   0.594 101.113 -1.2158 -1.4067 -1.1035
18024TIP3    H275564   1.243   0.604 101.243  0.3619  0.9355 -0.2799
18025TIP3   OH275565   2.211   1.887 109.274  0.1185 -0.6458 -0.4791
18025TIP3    H175566   2.296   1.880 109.230 -0.1022 -0.9049 -0.8701
18025TIP3    H275567   2.218   1.826 109.348  0.7072  0.2387  0.2232
18026TIP3   OH275568   1.818   2.058  95.518 -0.1858  0.4335  0.4151
18026TIP3    H175569   1.897   2.048  95.569 -1.0924 -1.3770  1.5496
18026TIP3    H275570   1.793   2.150  95.529  0.3837  0.4056  2.1275
18027TIP3   OH275571   1.461   1.821  10.205  0.0929  0.6124  0.3419
18027TIP3    H175572   1.376   1.783  10.180  0.3500  0.9204 -1.0257
18027TIP3    H275573   1.451   1.838  10.299 -0.5612 -1.4318  0.7084
18028TIP3   OH275574   2.129   0.583  34.033  0.1989 -0.4769 -0.4649
18028TIP3    H175575   2.078   0.548  34.106  0.6887 -1.4579 -0.5813
18028TIP3    H275576   2.218   0.590  34.068  0.2624 -0.1261 -0.7015
18029TIP3   OH275577   1.011   0.226  33.522  0.6491  0.2322  0.0079
18029TIP3    H175578   0.994   0.319  33.514 -0.2756  0.2518  1.6111
18029TIP3    H275579   1.059   0.217  33.604  3.1461 -0.4795 -1.4207
18030TIP3   OH275580   2.671   0.532 101.404  0.4395  0.1756 -0.5156
18030TIP3    H175581   2.752   0.547 101.355  0.0677 -1.1125 -1.5950
18030TIP3    H275582   2.669   0.438 101.421 -1.6980 -0.1759 -2.2087
18031TIP3   OH275583   1.231   0.273  95.957  0.2061  0.3518 -0.2308
18031TIP3    H175584   1.318   0.267  95.919  0.3313 -0.0254  0.1240
18031TIP3    H275585   1.172   0.267  95.882  0.4629 -0.0138 -0.4020
18032TIP3   OH275586   0.088   2.486  30.388  0.3315  0.4990 -0.2634
18032TIP3    H175587   0.014   2.521  30.438  0.1099 -0.8192  0.3482
18032TIP3    H275588   0.128   2.564  30.349 -1.4813  1.2403 -0.7730
18033TIP3   OH275589   0.117   0.240 109.067 -0.0956  0.1678  0.4506
18033TIP3    H175590   0.160   0.304 109.124 -0.7452  1.5755 -0.5960
18033TIP3    H275591   0.179   0.227 108.996  0.2529 -0.7866  0.9064
18034TIP3   OH275592   2.602   2.320   7.170  0.3320  0.0500 -0.2759
18034TIP3    H175593   2.540   2.315   7.097 -0.6080 -0.8776  0.5360
18034TIP3    H275594   2.623   2.228   7.189  3.7760  0.3292 -1.9518
18035TIP3   OH275595   0.585   2.640 100.621  0.1331  0.0126  0.1007
18035TIP3    H175596   0.585   2.699 100.546 -0.0083 -1.1825 -0.8711
18035TIP3    H275597   0.609   2.695 100.696  0.5384  1.1657 -0.8649
18036TIP3   OH275598   2.604   2.121  37.603 -0.0342  0.3389  0.3155
18036TIP3    H175599   2.640   2.036  37.577 -0.7486  0.0675  0.1967
18036TIP3    H275600   2.549   2.101  37.679  1.3464  0.9955  1.5351
18037TIP3   OH275601   0.731   1.810  31.418  0.3818  0.0867 -0.3099
18037TIP3    H175602   0.752   1.881  31.479 -0.5880  0.5384 -0.4835
18037TIP3    H275603   0.635   1.804  31.420  0.4777 -2.1019  0.6846
18038TIP3   OH275604   1.263   0.360 109.326 -0.6957  0.4591  0.1292
18038TIP3    H175605   1.227   0.441 109.363 -2.6246 -0.5656  0.6532
18038TIP3    H275606   1.204   0.291 109.357  0.8733 -1.1699 -0.3073
18039TIP3   OH275607   1.992   1.088  82.566  0.7072  0.8014 -0.1925
18039TIP3    H175608   1.968   1.014  82.621  0.3838  0.4073 -0.8555
18039TIP3    H275609   2.028   1.153  82.628  0.5681  0.2833  0.4456
18040TIP3   OH275610   0.882   0.725  26.352  0.1996 -0.2733 -0.0838
18040TIP3    H175611   0.831   0.644  26.347  0.2222 -0.2678 -0.4456
18040TIP3    H275612   0.913   0.739  26.263  0.7536 -0.2176  0.1124
18041TIP3   OH275613   0.145   0.745  85.743  0.1524 -0.1461  0.3168
18041TIP3    H175614   0.183   0.821  85.787 -2.1978  1.5553 -0.3992
18041TIP3    H275615   0.164   0.760  85.650 -1.1481  0.1240  0.0778
18042TIP3   OH275616   2.074   0.831  99.095 -0.0483  0.2882 -0.2838
18042TIP3    H175617   2.099   0.794  99.180 -0.2157  1.9315  0.5070
18042TIP3    H275618   2.144   0.803  99.036  0.5240 -0.1576  0.5890
18043TIP3   OH275619   2.484   0.314  34.924 -0.5650  0.4823  0.1669
18043TIP3    H175620   2.443   0.305  35.010 -1.7532 -0.4297 -0.4731
18043TIP3    H275621   2.514   0.226  34.902  3.3993  1.3259  1.3313
18044TIP3   OH275622   2.584   1.949  98.122  0.0978  0.2104 -0.1240
18044TIP3    H175623   2.580   2.004  98.200  0.6729  0.3696 -0.2021
18044TIP3    H275624   2.499   1.962  98.080 -0.3869 -0.2203  0.6989
18045TIP3   OH275625   1.041   0.700 103.453 -0.0314 -0.1147 -0.2101
18045TIP3    H175626   1.128   0.686 103.490 -0.3607 -1.1670  0.2254
18045TIP3    H275627   1.051   0.684 103.359  0.4724  0.9030 -0.3336
18046TIP3   OH275628   0.203   0.434   1.437  0.3853  0.7270  0.6558
18046TIP3    H175629   0.182   0.350   1.395  0.7500  1.8008 -1.8756
18046TIP3    H275630   0.129   0.490   1.416  0.9012  1.4992  0.8751
18047TIP3   OH275631   2.508   0.979 105.433  0.4663 -0.1078  0.2173
18047TIP3    H175632   2.446   1.006 105.365  2.0485  1.5750 -0.6588
18047TIP3    H275633   2.575   0.929 105.385  0.6296 -0.5205  0.8658
18048TIP3   OH275634   2.518   2.255   9.608  0.4866 -0.4299  0.0906
18048TIP3    H175635   2.440   2.250   9.664 -0.1019 -0.2272 -0.7015
18048TIP3    H275636   2.524   2.168   9.569  0.9444 -0.5953  0.5154
18049TIP3   OH275637   2.211   1.627  25.975  0.2657 -0.2230  0.6208
18049TIP3    H175638   2.205   1.636  26.070 -0.4854  0.4208  0.5194
18049TIP3    H275639   2.305   1.626  25.957  0.4398  1.4829  1.2182
18050TIP3   OH275640   0.062   1.205  74.831 -0.1349 -0.1915 -0.1084
18050TIP3    H175641   0.080   1.201  74.737 -2.6750  0.6721 -0.7138
18050TIP3    H275642   0.146   1.231  74.870  0.6304  0.9155 -2.2970
18051TIP3   OH275643   0.769   2.653  99.727 -0.1470 -0.4540 -0.0277
18051TIP3    H175644   0.710   2.679  99.799  1.7978  2.7206  0.6279
18051TIP3    H275645   0.837   2.602  99.770 -0.7884 -1.5375 -0.2714
18052TIP3   OH275646   1.205   1.838  81.288  0.1353  0.1172 -0.1166
18052TIP3    H175647   1.191   1.854  81.381 -2.1726  0.0046 -0.3763
18052TIP3    H275648   1.143   1.768  81.266  0.8767 -0.0943 -1.6592
18053TIP3   OH275649   1.471   2.639  12.882  0.2135 -0.5033 -0.3112
18053TIP3    H175650   1.431   2.687  12.810  0.2642  2.4404  1.4631
18053TIP3    H275651   1.419   2.664  12.959  1.0646 -2.3259  0.9324
18054TIP3   OH275652   2.316   0.189   3.843  0.0335 -0.4381 -0.0023
18054TIP3    H175653   2.362   0.247   3.782  0.6788 -0.9816 -0.0498
18054TIP3    H275654   2.224   0.213   3.834  0.3249  0.8872  0.3114
18055TIP3   OH275655   1.078   1.213   4.446  0.2491 -0.2052 -0.3464
18055TIP3    H175656   1.145   1.147   4.426 -0.7221 -1.0057 -1.0240
18055TIP3    H275657   1.028   1.221   4.365 -1.0339 -0.2773  0.4229
18056TIP3   OH275658   1.184   1.748  10.469 -0.5985 -0.1466  0.0847
18056TIP3    H175659   1.161   1.778  10.557  0.1283 -0.8987  0.5436
18056TIP3    H275660   1.279   1.738  10.471 -0.5938 -0.3311 -0.7378
18057TIP3   OH275661   1.875   0.141  82.366 -0.2284 -0.0311 -0.0226
18057TIP3    H175662   1.951   0.188  82.401  2.6599 -4.0957 -0.1706
18057TIP3    H275663   1.886   0.143  82.271 -0.3316 -0.6286 -0.0505
18058TIP3   OH275664   2.339   0.118 111.822  0.1570  0.1380  0.3027
18058TIP3    H175665   2.246   0.120 111.845  0.0134  0.5633 -0.2741
18058TIP3    H275666   2.339   0.096 111.729  0.4972  2.4293 -0.3012
18059TIP3   OH275667   1.295   2.665 110.761 -0.2115  0.2018  0.3693
18059TIP3    H175668   1.207   2.648 110.795 -0.1788  1.4769  1.1647
18059TIP3    H275669   1.332   2.578 110.745 -1.7943 -0.3527 -0.5027
18060TIP3   OH275670   1.285   0.733  86.344 -0.0258  0.0455  0.9341
18060TIP3    H175671   1.213   0.752  86.284 -0.6068 -1.2848  1.1683
18060TIP3    H275672   1.355   0.701  86.288 -0.3693 -0.6586  0.8982
18061TIP3   OH275673   0.163   1.048  15.970 -0.0004  0.1724  0.0283
18061TIP3    H175674   0.117   1.117  15.922 -0.3258  0.8910  1.3397
18061TIP3    H275675   0.231   1.093  16.020  0.5810 -0.6068 -0.0298
18062TIP3   OH275676   1.341   0.630 110.330 -0.5028 -0.4869  0.3519
18062TIP3    H175677   1.399   0.691 110.376 -0.7019  0.0483 -0.0870
18062TIP3    H275678   1.326   0.559 110.392 -0.5317  0.0771  1.0049
18063TIP3   OH275679   0.970   1.094  77.471  0.8054  0.3797  0.0339
18063TIP3    H175680   0.989   1.007  77.506  0.2926  0.7158  1.2248
18063TIP3    H275681   0.910   1.132  77.536 -2.1455  0.1841 -2.3620
18064TIP3   OH275682   1.249   0.744 100.349 -0.5032 -0.3728  0.4433
18064TIP3    H175683   1.252   0.824 100.297 -1.9732  1.1749  2.5799
18064TIP3    H275684   1.316   0.688 100.309 -0.3658  1.3441 -1.9793
18065TIP3   OH275685   2.074   2.119   6.778 -0.2458  0.0505 -0.7415
18065TIP3    H175686   2.163   2.093   6.756  0.6226  2.7103 -0.6261
18065TIP3    H275687   2.056   2.077   6.862  0.3952 -1.5030 -1.3518
18066TIP3   OH275688   0.602   2.594  31.588 -0.6905  0.3641  0.5507
18066TIP3    H175689   0.587   2.512  31.542 -0.5309  0.1210  0.9234
18066TIP3    H275690   0.521   2.609  31.637 -1.6436  1.6304 -1.2939
18067TIP3   OH275691   1.925   2.633  92.121  0.0618 -0.0635 -0.2188
18067TIP3    H175692   1.838   2.629  92.161 -0.0766  1.0896 -0.3583
18067TIP3    H275693   1.983   2.596  92.188 -0.4311 -0.0348  0.2376
18068TIP3   OH275694   1.818   0.945 103.881  0.1428  0.0465  0.1821
18068TIP3    H175695   1.796   1.035 103.856  0.0928 -0.0164 -0.0094
18068TIP3    H275696   1.866   0.953 103.963 -0.2231  0.2141  0.3766
18069TIP3   OH275697   1.316   1.492  85.764 -0.2683  0.3048 -0.2804
18069TIP3    H175698   1.313   1.559  85.696  1.7399  0.1239 -0.6185
18069TIP3    H275699   1.383   1.430  85.733  0.0258 -0.2645  1.4051
18070TIP3   OH275700   1.591   2.449  52.344  0.1551  0.3419  0.7526
18070TIP3    H175701   1.596   2.506  52.420 -0.2342  0.7505  0.4807
18070TIP3    H275702   1.557   2.505  52.274 -0.9415 -0.4132  0.6625
18071TIP3   OH275703   1.629   1.982  87.852 -0.6231 -0.1554  0.7211
18071TIP3    H175704   1.614   2.074  87.872  1.0875  0.4721 -0.5746
18071TIP3    H275705   1.714   1.962  87.891 -0.8784 -1.1208  0.8095
18072TIP3   OH275706   1.127   2.149  27.181 -0.0134 -0.4257  0.2147
18072TIP3    H175707   1.135   2.209  27.107  1.8748 -2.7446 -1.6178
18072TIP3    H275708   1.059   2.188  27.235 -1.6525  1.3252 -2.8070
18073TIP3   OH275709   0.501   2.165  17.645  0.6979 -0.6383  0.1514
18073TIP3    H175710   0.495   2.259  17.624 -0.6700 -0.5738  0.7010
18073TIP3    H275711   0.508   2.123  17.559  2.2643 -0.0124 -0.0715
18074TIP3   OH275712   0.636   1.423  28.057  0.2244  0.3847  0.4991
18074TIP3    H175713   0.696   1.352  28.033  0.2774  0.8880 -1.0141
18074TIP3    H275714   0.678   1.502  28.022 -0.3499  1.0241  1.2251
18075TIP3   OH275715   2.346   1.613  99.415 -0.2595 -0.1701  0.4304
18075TIP3    H175716   2.325   1.568  99.497  0.5115 -2.1759 -0.3910
18075TIP3    H275717   2.308   1.557  99.347  1.1847  0.1553 -0.6921
18076TIP3   OH275718   0.359   0.284  32.752 -0.1363  0.1090  0.0973
18076TIP3    H175719   0.413   0.363  32.741  1.9275 -1.3765 -1.2962
18076TIP3    H275720   0.423   0.214  32.768 -1.7187 -1.6486 -0.9247
18077TIP3   OH275721   0.665   0.939  68.713  0.6498 -0.1424  0.4737
18077TIP3    H175722   0.642   0.978  68.798 -1.5104  0.9067 -0.5169
18077TIP3    H275723   0.684   1.014  68.657 -0.6136 -0.6365 -0.6697
18078TIP3   OH275724   1.619   2.621  25.868 -0.1146 -0.3002  0.0950
18078TIP3    H175725   1.590   2.630  25.959 -0.0495  0.4428  0.0493
18078TIP3    H275726   1.540   2.638  25.816  0.6148  3.3750 -0.0805
18079TIP3   OH275727   0.752   1.807  36.772  0.1192 -0.2453  0.1320
18079TIP3    H175728   0.719   1.721  36.797  0.7720 -0.2876  0.8945
18079TIP3    H275729   0.842   1.790  36.742 -0.3170 -0.0606 -1.3706
18080TIP3   OH275730   0.578   2.207   8.789 -0.1354  0.3172 -0.0048
18080TIP3    H175731   0.605   2.223   8.880 -0.9892  2.3406 -0.0405
18080TIP3    H275732   0.484   2.191   8.794  0.1963 -2.1062 -0.3338
18081TIP3   OH275733   2.225   1.965  19.782 -0.2078 -0.4393  0.2879
18081TIP3    H175734   2.135   1.978  19.754 -0.5886 -1.7341  0.8536
18081TIP3    H275735   2.218   1.943  19.875  0.6990 -0.5327  0.3402
18082TIP3   OH275736   1.224   2.582   7.375  0.2922  0.0805  0.4407
18082TIP3    H175737   1.296   2.610   7.318 -0.6115  0.6297 -0.4469
18082TIP3    H275738   1.149   2.573   7.317 -0.2131 -1.1630  1.2396
18083TIP3   OH275739   0.733   2.652  69.974  0.5217  0.1110 -0.2825
18083TIP3    H175740   0.751   2.586  69.908  0.4923  0.4572 -0.6368
18083TIP3    H275741   0.807   2.713  69.967  0.4550  0.2160 -0.0801
18084TIP3   OH275742   0.221   0.692  33.229  0.3776 -0.3948  0.0205
18084TIP3    H175743   0.216   0.611  33.281  1.8331  0.4475  1.5841
18084TIP3    H275744   0.314   0.701  33.209  0.0518  0.2508 -1.2424
18085TIP3   OH275745   1.988   1.696  30.256 -0.4589  1.1214 -0.5111
18085TIP3    H175746   1.909   1.673  30.207  1.5361 -0.8039 -3.1092
18085TIP3    H275747   2.020   1.776  30.214 -0.4396  1.3039 -0.1535
18086TIP3   OH275748   1.609   0.452   7.121 -0.8447 -0.1060  0.0400
18086TIP3    H175749   1.606   0.427   7.214  1.3403 -1.0824 -0.1071
18086TIP3    H275750   1.525   0.495   7.106 -1.1884  0.2547  2.5236
18087TIP3   OH275751   2.520   1.622 105.245  0.2200 -0.2384 -0.4525
18087TIP3    H175752   2.460   1.550 105.265 -0.2377  0.3966  0.5626
18087TIP3    H275753   2.587   1.616 105.313  0.2263  0.2257 -0.4132
18088TIP3   OH275754   1.614   0.510  79.077 -0.1324 -0.4156  0.2189
18088TIP3    H175755   1.629   0.603  79.093  0.6568 -0.7776  1.7090
18088TIP3    H275756   1.696   0.479  79.039  0.4129 -0.9264  1.7451
18089TIP3   OH275757   1.703   0.730  37.496 -0.6259  0.2250 -0.2583
18089TIP3    H175758   1.630   0.674  37.471 -1.8252  1.9137 -0.7894
18089TIP3    H275759   1.662   0.799  37.549  1.0329 -0.2790  1.8226
18090TIP3   OH275760   0.406   2.095  25.840  0.1766  0.4427  0.2004
18090TIP3    H175761   0.357   2.099  25.923  1.0452  1.9063  0.6756
18090TIP3    H275762   0.498   2.093  25.866  0.4497  0.5015 -0.7218
18091TIP3   OH275763   1.010   2.227  84.541  0.0727  0.5063 -0.2641
18091TIP3    H175764   0.984   2.320  84.541 -0.1236  0.4614  0.4524
18091TIP3    H275765   0.934   2.180  84.508 -1.0218  0.3300  2.2708
18092TIP3   OH275766   0.648   2.112 111.992  0.3096  0.0576  0.3422
18092TIP3    H175767   0.581   2.113 112.060 -0.7148 -1.3965 -0.5878
18092TIP3    H275768   0.666   2.205 111.975  0.6979  0.4705  2.6371
18093TIP3   OH275769   2.387   1.485 103.177 -0.2176  0.3006 -0.4363
18093TIP3    H175770   2.447   1.513 103.108 -2.0306  1.3406 -1.6523
18093TIP3    H275771   2.379   1.562 103.234  0.4794 -0.2249  0.4110
18094TIP3   OH275772   0.012   2.397  27.933 -0.2081  0.1357  0.2470
18094TIP3    H175773   0.045   2.450  28.006  0.1571  1.2675 -0.7051
18094TIP3    H275774   0.053   2.435  27.856 -1.0500 -0.6668 -0.6166
18095TIP3   OH275775   0.780   1.771  24.074 -0.1292  0.1511 -0.2166
18095TIP3    H175776   0.840   1.697  24.068 -0.3944 -0.1919  1.0778
18095TIP3    H275777   0.715   1.756  24.006  0.0594 -0.5918 -0.2352
18096TIP3   OH275778   0.693   0.733 105.558  0.0756  0.1387  0.3335
18096TIP3    H175779   0.675   0.678 105.482  0.3303  0.2227  0.2121
18096TIP3    H275780   0.656   0.818 105.535 -0.1599  0.0690  0.4535
18097TIP3   OH275781   1.659   1.251  12.001 -0.2191 -0.2262  0.1180
18097TIP3    H175782   1.586   1.300  11.962  0.3842  0.9439  0.4034
18097TIP3    H275783   1.669   1.175  11.944  0.1818  1.0706 -1.6434
18098TIP3   OH275784   0.699   1.917 108.896  0.3602 -0.7948 -0.2694
18098TIP3    H175785   0.681   1.852 108.828 -1.4561 -0.3113 -0.3301
18098TIP3    H275786   0.728   1.995 108.848  1.6325 -1.2624 -0.2705
18099TIP3   OH275787   1.276   1.668  11.570 -0.0787  0.2410 -0.1671
18099TIP3    H175788   1.238   1.657  11.658  0.4858 -2.1082 -0.1409
18099TIP3    H275789   1.343   1.736  11.582 -0.4746  0.4534  1.0628
18100TIP3   OH275790   2.553   0.148  80.548  0.4175 -0.3349 -0.2669
18100TIP3    H175791   2.602   0.218  80.506 -0.8175  0.1813 -0.9222
18100TIP3    H275792   2.520   0.187  80.629  0.5752 -0.4863 -0.1302
18101TIP3   OH275793   1.222   0.570  94.022  0.5216 -0.5089  0.4216
18101TIP3    H175794   1.312   0.555  93.996  0.7568  0.3203  0.7444
18101TIP3    H275795   1.209   0.664  94.012  0.3550 -0.2743  2.4202
18102TIP3   OH275796   1.780   0.484  11.914  0.0624  0.3762  0.3956
18102TIP3    H175797   1.826   0.470  11.997  1.3034 -1.0968 -0.4962
18102TIP3    H275798   1.696   0.440  11.925  0.6752 -0.8001  0.5014
18103TIP3   OH275799   2.433   1.211  21.172  0.1456 -0.2154 -0.0277
18103TIP3    H175800   2.344   1.176  21.173 -0.5031  1.3554  1.0058
18103TIP3    H275801   2.479   1.160  21.105 -2.2610  0.6884 -2.5529
18104TIP3   OH275802   1.820   1.370 110.584 -0.3472  0.3059  0.2535
18104TIP3    H175803   1.861   1.420 110.513 -1.1797  1.7981  0.7592
18104TIP3    H275804   1.892   1.342 110.639  0.2688 -0.4337 -0.9021
18105TIP3   OH275805   0.367   0.258   4.092 -0.2483  0.0170  0.2138
18105TIP3    H175806   0.379   0.347   4.124 -0.0649  0.5487 -1.2783
18105TIP3    H275807   0.412   0.203   4.156 -0.5286  0.9647  1.2529
18106TIP3   OH275808   0.368   0.580 100.882 -0.1817  0.4723 -0.1475
18106TIP3    H175809   0.280   0.614 100.900  0.0651  1.0525 -0.0042
18106TIP3    H275810   0.353   0.503 100.827 -0.7082  1.4971 -1.4907
18107TIP3   OH275811   0.276   2.662  25.355  0.4109 -0.3636  0.0391
18107TIP3    H175812   0.204   2.660  25.293  0.1804 -1.0620  0.3233
18107TIP3    H275813   0.238   2.632  25.438  0.7362  0.4654  0.4972
18108TIP3   OH275814   1.598   0.835  29.197 -0.0902 -0.1000 -0.0051
18108TIP3    H175815   1.685   0.797  29.214  1.0309  1.5494 -1.6656
18108TIP3    H275816   1.617   0.921  29.159 -2.4320 -0.1759 -1.5122
18109TIP3   OH275817   0.937   1.992  29.474  0.7639 -0.0567 -0.2520
18109TIP3    H175818   0.842   2.001  29.485  0.7806 -0.2640  0.0500
18109TIP3    H275819   0.947   1.920  29.412  0.7509 -0.6700  0.4523
18110TIP3   OH275820   1.199   2.315   8.917  0.2478 -0.1323 -0.0637
18110TIP3    H175821   1.109   2.297   8.944  0.2027 -0.1581 -0.2311
18110TIP3    H275822   1.195   2.325   8.822  0.2983  0.6364  0.0120
18111TIP3   OH275823   0.852   0.326  76.606  0.0527 -0.1126  0.5854
18111TIP3    H175824   0.936   0.303  76.646 -0.6502 -1.3786  1.4170
18111TIP3    H275825   0.787   0.301  76.672 -0.9826  0.8887 -0.0235
18112TIP3   OH275826   0.663   0.694  76.710 -0.2529  0.4581 -0.0075
18112TIP3    H175827   0.678   0.631  76.780  3.1873  0.1458 -0.8355
18112TIP3    H275828   0.635   0.641  76.635  1.6528 -0.0483 -0.4128
18113TIP3   OH275829   0.672   1.513  21.601 -0.2699 -0.0722  0.2988
18113TIP3    H175830   0.676   1.593  21.653  0.7364  0.3103 -0.3266
18113TIP3    H275831   0.621   1.537  21.523  0.1616  0.0143  0.0387
18114TIP3   OH275832   2.092   2.246  98.226 -0.4104  0.8086  0.3353
18114TIP3    H175833   2.058   2.164  98.261  0.2621  1.0805  1.7173
18114TIP3    H275834   2.019   2.284  98.178 -1.0733 -0.0700  0.6283
18115TIP3   OH275835   0.300   1.302  76.836 -0.2249 -0.1120  0.1621
18115TIP3    H175836   0.321   1.384  76.791  0.8120 -0.6812 -0.4375
18115TIP3    H275837   0.272   1.243  76.767 -2.3244  0.1243  0.7557
18116TIP3   OH275838   2.679   0.903  32.555  0.3780  0.0567 -0.0556
18116TIP3    H175839   2.692   0.811  32.580  1.8790  0.2194 -0.1593
18116TIP3    H275840   2.707   0.953  32.631 -0.5383  0.4391  0.0363
18117TIP3   OH275841   1.671   0.277  26.435  0.0526 -0.0641  0.0414
18117TIP3    H175842   1.659   0.259  26.342 -1.6369 -1.5007  0.4903
18117TIP3    H275843   1.672   0.372  26.442 -0.7006  0.0587 -1.3536
18118TIP3   OH275844   2.087   0.581  95.172 -0.3257 -0.3777 -0.7229
18118TIP3    H175845   2.025   0.643  95.210  0.9028  0.5456 -0.1340
18118TIP3    H275846   2.057   0.495  95.204 -1.8858 -0.0850 -1.3200
18119TIP3   OH275847   1.810   2.086  79.304  0.4605  0.1802  0.2359
18119TIP3    H175848   1.747   2.017  79.326  1.2732 -1.0010 -1.0110
18119TIP3    H275849   1.843   2.062  79.218  0.1917  2.5812 -0.6015
18120TIP3   OH275850   0.606   0.018  92.611 -0.2450  0.3341 -0.4024
18120TIP3    H175851   0.597   0.022  92.515 -1.3813  1.0555 -0.2819
18120TIP3    H275852   0.517   0.006  92.643 -0.2149  2.4823  0.6671
18121TIP3   OH275853   1.549   0.267  11.737 -0.1999 -0.0163  0.5874
18121TIP3    H175854   1.547   0.305  11.824  0.7105  1.6778 -0.0926
18121TIP3    H275855   1.482   0.198  11.740 -1.0814  0.8422  2.2361
18122TIP3   OH275856   0.238   0.907  78.461 -0.2731 -0.4010 -0.6760
18122TIP3    H175857   0.158   0.913  78.408 -0.7457  0.0234  0.0542
18122TIP3    H275858   0.224   0.971  78.531  0.2329 -1.0986  0.0745
18123TIP3   OH275859   1.948   1.544 106.368 -0.2358  0.0772  0.1859
18123TIP3    H175860   2.036   1.506 106.377 -0.7314 -1.4826 -1.1892
18123TIP3    H275861   1.914   1.507 106.286 -1.4731  2.1006 -0.2834
18124TIP3   OH275862   1.196   0.030  36.466 -0.4323  0.6802  0.2238
18124TIP3    H175863   1.156  -0.057  36.455 -2.2385  1.3527  1.1028
18124TIP3    H275864   1.209   0.038  36.560  0.8044  0.9359  0.0475
18125TIP3   OH275865   0.918   0.038  30.595  0.0942 -0.4231 -0.4281
18125TIP3    H175866   0.866   0.118  30.581 -0.5935 -1.0051 -1.3284
18125TIP3    H275867   0.914   0.024  30.690 -2.9008 -1.3868 -0.5820
18126TIP3   OH275868   0.955   0.622   6.163  0.3698 -0.0993 -0.3097
18126TIP3    H175869   1.036   0.572   6.173 -0.0055 -0.9424 -1.2430
18126TIP3    H275870   0.887   0.562   6.194 -0.1841 -0.5694 -2.3013
18127TIP3   OH275871   2.076   0.730  92.907 -0.0357  0.6448 -0.2083
18127TIP3    H175872   2.086   0.636  92.892 -1.5985  0.5035 -0.6161
18127TIP3    H275873   2.164   0.766  92.897  0.6163 -0.7892  0.1260
18128TIP3   OH275874   1.371   0.213  10.321  0.3128  0.5143  0.3243
18128TIP3    H175875   1.430   0.280  10.353  0.2744 -0.0261  1.5641
18128TIP3    H275876   1.299   0.212  10.384  0.2604 -0.6033  0.2666
18129TIP3   OH275877   1.829   2.583  98.232  0.4206  0.2533  0.0324
18129TIP3    H175878   1.746   2.614  98.195  0.1832  0.4719  0.7136
18129TIP3    H275879   1.863   2.522  98.167 -0.5758 -0.2943 -0.0031
18130TIP3   OH275880   1.038   1.238  76.419  0.3843  0.2025 -0.6092
18130TIP3    H175881   0.960   1.193  76.388  0.3057  0.2464 -0.4755
18130TIP3    H275882   1.041   1.320  76.369  0.3101  0.2291 -0.5660
18131TIP3   OH275883   2.558   2.234   4.253  0.5326 -0.0686  0.2874
18131TIP3    H175884   2.525   2.308   4.201 -1.7733 -0.8626  0.5274
18131TIP3    H275885   2.642   2.212   4.213 -0.1391  0.7735 -1.6878
18132TIP3   OH275886   0.770   0.953  29.488 -0.1359 -0.7648 -0.1310
18132TIP3    H175887   0.713   0.978  29.415 -0.0610  0.2183  0.1283
18132TIP3    H275888   0.744   1.012  29.559 -0.0173 -1.5196  0.5556
18133TIP3   OH275889   0.848   2.309  31.236 -0.5447  0.2497 -0.0013
18133TIP3    H175890   0.792   2.239  31.204 -1.9075  1.6960 -0.8944
18133TIP3    H275891   0.929   2.265  31.263 -1.6546 -1.7344  0.2229
18134TIP3   OH275892   1.723   1.164   4.366  0.0335 -0.1126  0.5577
18134TIP3    H175893   1.776   1.238   4.336  0.3812 -1.1982 -1.6968
18134TIP3    H275894   1.639   1.174   4.321 -0.1553 -0.7148  0.7575
18135TIP3   OH275895   0.735   0.205  10.892 -0.2481 -0.4368 -0.0114
18135TIP3    H175896   0.684   0.219  10.972  0.7609 -1.8691  0.9254
18135TIP3    H275897   0.748   0.110  10.888 -0.4920 -0.4166 -2.0368
18136TIP3   OH275898   1.050   1.433  90.401 -1.0092 -0.3840  0.3909
18136TIP3    H175899   1.065   1.527  90.406  1.1734 -0.7172  1.1960
18136TIP3    H275900   1.058   1.402  90.491 -2.8340 -1.2285  0.3044
18137TIP3   OH275901   0.053   1.841  51.731 -0.4876  0.1668  0.3806
18137TIP3    H175902   0.011   1.794  51.803  1.5686 -0.6130  1.1307
18137TIP3    H275903   0.139   1.865  51.765  0.2346  0.4977 -1.5706
18138TIP3   OH275904   2.583   0.836 103.274 -0.4617  0.0368 -0.0477
18138TIP3    H175905   2.554   0.853 103.364  0.2137  1.5098 -0.0847
18138TIP3    H275906   2.663   0.887 103.264 -0.3482 -0.3648 -1.3890
18139TIP3   OH275907   1.255   2.116 108.203  0.3876 -0.6259  0.2656
18139TIP3    H175908   1.253   2.023 108.185  1.8626 -0.3610 -1.4672
18139TIP3    H275909   1.312   2.153 108.136  0.3573  1.4402  1.2908
18140TIP3   OH275910   0.914   2.459  12.463 -0.4154 -0.0976 -0.1996
18140TIP3    H175911   0.925   2.498  12.377 -0.4001  2.5265  0.9012
18140TIP3    H275912   0.821   2.468  12.482 -0.0127  1.8603  1.1023
18141TIP3   OH275913   2.335   2.476  77.520 -1.2173  0.3969  0.3457
18141TIP3    H175914   2.241   2.461  77.532 -1.0357  1.2940  4.0594
18141TIP3    H275915   2.349   2.566  77.549  0.5394  1.1341 -2.4152
18142TIP3   OH275916   2.017   0.013 100.383 -0.1031  0.3945 -0.5042
18142TIP3    H175917   2.086   0.021 100.449 -0.3621  0.9135 -0.2910
18142TIP3    H275918   1.943   0.061 100.420 -0.4246  0.2441 -0.9435
18143TIP3   OH275919   2.413   0.414  93.389  0.0141 -0.5212  0.0597
18143TIP3    H175920   2.373   0.464  93.460  3.4705  2.1886  0.3967
18143TIP3    H275921   2.385   0.458  93.309 -1.2819 -1.5477 -0.0802
18144TIP3   OH275922   1.550   0.925   7.449  0.2332 -0.2701  0.3386
18144TIP3    H175923   1.644   0.934   7.435  0.1694 -0.5394 -0.3140
18144TIP3    H275924   1.540   0.915   7.544  0.8194  0.2034  0.4516
18145TIP3   OH275925   1.722   1.805  25.986 -0.7922 -0.2060 -0.6892
18145TIP3    H175926   1.723   1.748  25.908 -0.2294 -1.3713  0.1414
18145TIP3    H275927   1.781   1.762  26.048 -1.2649  0.6776  0.4068
18146TIP3   OH275928   2.295   1.955  17.034 -0.2760 -0.0459  0.3845
18146TIP3    H175929   2.249   1.941  17.116 -1.3681  0.9166 -0.0432
18146TIP3    H275930   2.266   1.883  16.977 -0.4806  0.0052  0.4268
18147TIP3   OH275931   0.269   2.365  73.407  0.8584  0.0049  0.0124
18147TIP3    H175932   0.194   2.423  73.424  0.5661 -0.1181 -0.7740
18147TIP3    H275933   0.275   2.309  73.484 -0.4856 -0.6405 -0.3309
18148TIP3   OH275934   1.901   1.981  25.851 -0.2740 -0.0716  0.4886
18148TIP3    H175935   1.833   1.940  25.905 -0.9775  0.3025 -0.0834
18148TIP3    H275936   1.894   2.074  25.870 -2.2463  0.4128 -2.0137
18149TIP3   OH275937   0.086   1.976  93.053  0.7127  0.0084 -0.0707
18149TIP3    H175938   0.092   2.058  93.004  0.9692  0.5424  0.8296
18149TIP3    H275939  -0.004   1.974  93.086  0.2202 -0.8436 -1.3605
18150TIP3   OH275940   1.519   0.004  12.449  0.3268  0.0349 -0.1045
18150TIP3    H175941   1.520  -0.049  12.369 -1.0240  1.2754 -1.0034
18150TIP3    H275942   1.538   0.093  12.419 -0.7759  0.6195  0.8548
18151TIP3   OH275943   2.049   1.911  19.290  0.6276 -0.0526  0.5551
18151TIP3    H175944   2.124   1.851  19.284  0.5489 -0.1517  0.5662
18151TIP3    H275945   2.008   1.890  19.374 -0.7215 -1.5294 -0.4269
18152TIP3   OH275946   0.171   0.069  30.375  0.2650 -0.3038  0.0222
18152TIP3    H175947   0.241   0.047  30.314  1.2237  1.8304  0.2598
18152TIP3    H275948   0.216   0.086  30.458 -0.5317  0.8758  0.2342
18153TIP3   OH275949   0.030   0.078  31.198  0.0492  0.1494  0.0402
18153TIP3    H175950   0.031  -0.018  31.190  1.3572  0.2465 -1.4040
18153TIP3    H275951  -0.034   0.095  31.267  0.0098 -1.7766  0.5483
18154TIP3   OH275952   0.464   0.368  13.236 -0.1393 -0.5171 -0.0926
18154TIP3    H175953   0.383   0.320  13.220 -0.9021  0.6875  0.0673
18154TIP3    H275954   0.480   0.418  13.156  0.0859 -0.2386  0.1204
18155TIP3   OH275955   2.002   0.878  79.004 -0.1832 -0.0628 -0.3343
18155TIP3    H175956   1.924   0.885  78.948 -1.2288 -0.8952  0.9588
18155TIP3    H275957   2.064   0.827  78.953 -1.6400 -2.0312 -0.2680
18156TIP3   OH275958   1.493   2.175   7.074 -0.6378 -0.3464 -0.3599
18156TIP3    H175959   1.551   2.100   7.077 -0.7061 -0.3679  0.9984
18156TIP3    H275960   1.513   2.218   6.990  1.1660 -0.4714 -0.0265
18157TIP3   OH275961   1.729   2.334  24.485  0.1945 -0.1758 -0.1030
18157TIP3    H175962   1.709   2.291  24.568  2.3313 -0.8106  0.1526
18157TIP3    H275963   1.652   2.317  24.430 -1.2413  0.2088  1.6885
18158TIP3   OH275964   0.693   1.026  79.059  0.8127 -0.4251  0.0868
18158TIP3    H175965   0.605   1.044  79.092  1.1782  1.0365  0.3287
18158TIP3    H275966   0.717   0.943  79.100 -0.5683 -0.9935 -0.2361
18159TIP3   OH275967   2.667   0.546  84.479  0.2723  0.4641  0.5462
18159TIP3    H175968   2.590   0.555  84.535  1.9064  0.6395  2.9156
18159TIP3    H275969   2.729   0.610  84.513  1.9401 -0.5530 -0.4428
18160TIP3   OH275970   1.500   0.336  79.964  0.6688 -1.3476  0.0917
18160TIP3    H175971   1.415   0.327  79.922  0.2762 -1.8251  0.9562
18160TIP3    H275972   1.558   0.371  79.896 -0.2534 -0.8754 -0.4631
18161TIP3   OH275973   2.662   0.660  80.025 -0.0026 -0.2001 -0.6923
18161TIP3    H175974   2.650   0.590  79.962 -1.0910  0.4671 -1.2502
18161TIP3    H275975   2.749   0.644  80.063  0.3704 -0.9994 -1.8424
18162TIP3   OH275976   2.072   2.362 101.599 -0.3018 -0.3511  0.5046
18162TIP3    H175977   2.039   2.397 101.516 -0.2090  0.4249  0.7868
18162TIP3    H275978   2.154   2.319 101.576  0.9266  1.8130  0.4901
18163TIP3   OH275979   0.596   0.775  19.430  0.2988  0.2991  0.0977
18163TIP3    H175980   0.616   0.835  19.358  0.4109  1.3404  0.9744
18163TIP3    H275981   0.680   0.762  19.474  0.1128  0.1709  0.4130
18164TIP3   OH275982   2.519   1.388 111.178  0.0601 -0.3586  0.3691
18164TIP3    H175983   2.443   1.389 111.121 -0.9630  0.3441  1.6970
18164TIP3    H275984   2.499   1.451 111.247  1.7911 -0.2517  0.8275
18165TIP3   OH275985   0.977   1.923   0.343  0.3895  0.6904  0.5428
18165TIP3    H175986   0.903   1.979   0.366  1.3594  1.5793  1.6050
18165TIP3    H275987   1.054   1.968   0.378  1.6459  0.5464 -1.7898
18166TIP3   OH275988   0.671   2.611  34.129  0.3401 -0.4208  0.1603
18166TIP3    H175989   0.602   2.676  34.114 -1.7802 -2.2246  1.4493
18166TIP3    H275990   0.732   2.624  34.056 -1.5322  1.0629 -1.2458
18167TIP3   OH275991   2.650   0.877  37.368 -0.0496 -0.3653 -0.0698
18167TIP3    H175992   2.558   0.860  37.349 -0.8861  1.5902  1.9209
18167TIP3    H275993   2.689   0.896  37.282 -1.4125 -1.4169 -0.9582
18168TIP3   OH275994   0.395   0.097 110.054 -0.0514 -0.7359 -0.4482
18168TIP3    H175995   0.474   0.141 110.086 -0.3825 -1.2016  1.1015
18168TIP3    H275996   0.323   0.146 110.093 -0.4754 -1.2623 -0.5573
18169TIP3   OH275997   1.865   2.564  80.889  0.0079 -0.2137  0.2242
18169TIP3    H175998   1.944   2.617  80.894  1.4358 -2.3183  1.5358
18169TIP3    H275999   1.866   2.528  80.800 -1.2270  2.1860 -0.8355
18170TIP3   OH276000   2.446   2.456  77.127 -0.4579  0.7876  0.2040
18170TIP3    H176001   2.478   2.525  77.069 -2.0715  1.6846  0.3164
18170TIP3    H276002   2.472   2.485  77.215 -0.5085  0.8827  0.1873
18171TIP3   OH276003   2.640   1.253  93.596  0.1680  0.3399  0.3382
18171TIP3    H176004   2.659   1.304  93.517  0.2188 -0.7011 -0.3485
18171TIP3    H276005   2.606   1.169  93.563  1.3964 -0.6039  1.3609
18172TIP3   OH276006   0.997   0.828   1.021  0.2142  0.0369 -0.2784
18172TIP3    H176007   0.919   0.862   1.066  0.3651 -0.0423  0.0439
18172TIP3    H276008   1.038   0.906   0.982  0.3733  0.1801  0.1711
18173TIP3   OH276009   1.291   2.321  18.597 -0.1869 -0.2979  0.1836
18173TIP3    H176010   1.334   2.395  18.554  1.9476 -0.8468  1.2354
18173TIP3    H276011   1.198   2.342  18.595  0.3289  2.2479  0.1372
18174TIP3   OH276012   2.082   1.647   2.546  0.1135  0.3028 -0.1456
18174TIP3    H176013   2.168   1.685   2.566  1.3058 -1.0840 -2.2319
18174TIP3    H276014   2.075   1.570   2.603  0.2850  0.3851 -0.0145
18175TIP3   OH276015   2.066   0.440  18.082  0.2559  0.0187  0.1591
18175TIP3    H176016   2.156   0.471  18.097 -0.1624  1.0929  0.5623
18175TIP3    H276017   2.041   0.479  17.999  0.1705 -0.3215  0.0227
18176TIP3   OH276018   0.239   1.881  16.223  0.6603 -0.8049  0.1222
18176TIP3    H176019   0.215   1.964  16.264  0.3690 -1.7970  2.0749
18176TIP3    H276020   0.321   1.899  16.178  0.3788  0.6409  0.1431
18177TIP3   OH276021   2.047   1.212  34.738  0.7218  0.0050  0.1972
18177TIP3    H176022   2.129   1.194  34.785 -0.8090 -0.1411  2.9875
18177TIP3    H276023   1.996   1.266  34.798 -0.9134  0.8747 -1.8515
18178TIP3   OH276024   1.943   0.676  84.910 -0.0588 -0.6428  0.4976
18178TIP3    H176025   1.975   0.609  84.849  0.3900  1.0115 -1.1990
18178TIP3    H276026   2.022   0.712  84.950 -0.2635 -0.7787  1.0413
18179TIP3   OH276027   1.703   2.496  96.532  0.1637 -0.3009  0.4482
18179TIP3    H176028   1.664   2.481  96.618 -0.1797  2.0635  0.7604
18179TIP3    H276029   1.795   2.514  96.550 -0.0189  0.7385  0.4082
18180TIP3   OH276030   1.830   1.698  14.160  0.2787 -0.0330  0.6430
18180TIP3    H176031   1.805   1.762  14.094 -0.0247 -0.2394  0.5540
18180TIP3    H276032   1.839   1.616  14.111  1.4461  0.0907  0.6106
18181TIP3   OH276033   2.335   0.501  90.952  0.5192  0.2472 -0.0574
18181TIP3    H176034   2.383   0.527  90.874  0.4624 -0.5608 -0.3793
18181TIP3    H276035   2.291   0.580  90.982  0.1623  0.4587 -1.1236
18182TIP3   OH276036   1.399   1.656  85.537  0.1157 -0.5808 -0.1435
18182TIP3    H176037   1.392   1.730  85.596  1.8833 -0.7119  0.2882
18182TIP3    H276038   1.309   1.639  85.509 -0.8549 -0.7233  2.7389
18183TIP3   OH276039   1.873   1.106  87.922  0.1456 -0.0370 -0.3109
18183TIP3    H176040   1.788   1.118  87.879  0.5350 -1.6962 -1.6133
18183TIP3    H276041   1.877   1.178  87.985 -1.9952  0.3980 -0.5690
18184TIP3   OH276042   0.739   2.066  37.622 -0.0404  0.5194 -0.3379
18184TIP3    H176043   0.655   2.104  37.646  0.5063  1.7228 -0.2549
18184TIP3    H276044   0.798   2.141  37.612  1.3534 -0.3586  0.8476
18185TIP3   OH276045   0.673   2.069   7.395 -0.0196 -0.2776  0.1675
18185TIP3    H176046   0.764   2.094   7.411 -0.0081 -0.9293  1.2507
18185TIP3    H276047   0.647   2.022   7.475 -1.0520 -0.8073 -0.4585
18186TIP3   OH276048   1.787   2.574 111.504  0.2370  0.7241  0.3982
18186TIP3    H176049   1.835   2.506 111.551  0.3214  1.4790  1.4220
18186TIP3    H276050   1.700   2.536 111.490 -0.3696  1.0787  2.7026
18187TIP3   OH276051   1.428   1.600  89.594 -0.0294 -0.0806 -0.4387
18187TIP3    H176052   1.522   1.619  89.601  0.2084 -0.7731 -1.5423
18187TIP3    H276053   1.420   1.548  89.514 -1.2162 -0.9669  0.2284
18188TIP3   OH276054   2.606   2.585  66.872 -0.7845 -0.0135 -0.2014
18188TIP3    H176055   2.577   2.654  66.813  0.0406 -0.3916 -1.0740
18188TIP3    H276056   2.683   2.548  66.830 -1.4535 -1.7662  0.0188
18189TIP3   OH276057   0.352   1.294   1.794  0.5321  0.2080 -0.1363
18189TIP3    H176058   0.397   1.272   1.876  0.7918 -0.9478 -0.5771
18189TIP3    H276059   0.420   1.329   1.737  0.8374 -1.1867 -0.6689
18190TIP3   OH276060   0.615   0.245  67.792  0.1784 -0.1934  0.2041
18190TIP3    H176061   0.583   0.322  67.745  0.8370 -0.4600 -0.7022
18190TIP3    H276062   0.704   0.268  67.818  0.0398 -0.2918  0.7822
18191TIP3   OH276063   1.240   2.170  16.692  0.1741 -0.1842 -0.1766
18191TIP3    H176064   1.243   2.076  16.676 -0.6338 -0.1054 -0.8571
18191TIP3    H276065   1.331   2.198  16.691  0.7015 -1.3776  2.7923
18192TIP3   OH276066   0.219   1.531 111.385  0.3387 -0.2557  0.2374
18192TIP3    H176067   0.292   1.542 111.446  1.4506 -1.0444 -0.9173
18192TIP3    H276068   0.212   1.436 111.373  0.0535 -0.1181 -0.7541
18193TIP3   OH276069   1.840   1.233  96.301  0.1455 -0.3187  0.0327
18193TIP3    H176070   1.783   1.301  96.265 -1.0821 -0.5089  1.5200
18193TIP3    H276071   1.891   1.278  96.368  0.2606 -0.5905  0.1303
18194TIP3   OH276072   0.369   1.500  68.531 -0.4859  0.1426 -0.2770
18194TIP3    H176073   0.354   1.496  68.436  2.0639  2.3586 -0.8856
18194TIP3    H276074   0.450   1.551  68.540 -0.3541 -0.4732  3.0967
18195TIP3   OH276075   2.635   0.450  27.529 -0.1232  0.1056  0.0543
18195TIP3    H176076   2.632   0.369  27.581  0.0814  0.3189  0.4044
18195TIP3    H276077   2.728   0.463  27.512 -0.3119 -1.2326 -2.3998
18196TIP3   OH276078   2.538   0.445   4.100 -0.3870 -0.1665 -0.0624
18196TIP3    H176079   2.595   0.385   4.148 -0.4400  0.3433  0.6657
18196TIP3    H276080   2.455   0.442   4.147  0.0538  1.5986  0.9546
18197TIP3   OH276081   0.713   1.493  52.260 -0.5874  0.3282 -0.4252
18197TIP3    H176082   0.618   1.509  52.261 -0.2049  3.0967 -0.7380
18197TIP3    H276083   0.752   1.581  52.265  1.9673 -0.5783 -2.4359
18198TIP3   OH276084   1.201   1.031  28.637  0.0258  0.1367  0.4116
18198TIP3    H176085   1.276   1.068  28.684  1.9301 -1.3205 -1.2716
18198TIP3    H276086   1.125   1.077  28.672  1.5487  0.8035  3.1243
18199TIP3   OH276087   1.166   2.563  77.254 -0.1460 -0.0583  0.1461
18199TIP3    H176088   1.230   2.559  77.182  1.0858  0.9043  1.1406
18199TIP3    H276089   1.216   2.539  77.332 -1.5801 -1.5740  0.6582
18200TIP3   OH276090   1.345   1.281  26.270 -0.2214  0.1578 -0.2087
18200TIP3    H176091   1.433   1.265  26.302  0.2885  0.7186 -1.2660
18200TIP3    H276092   1.289   1.275  26.347  0.5864 -1.3536  0.2877
18201TIP3   OH276093   2.297   0.414 104.022  0.4447 -0.3767 -0.5131
18201TIP3    H176094   2.259   0.497 104.053  1.9651 -0.1006  0.7474
18201TIP3    H276095   2.231   0.378 103.963 -0.7847  1.1338 -0.1253
18202TIP3   OH276096   2.542   1.161  78.768  0.3101 -0.4194  0.0771
18202TIP3    H176097   2.611   1.203  78.818 -0.6167  0.6644  0.5008
18202TIP3    H276098   2.513   1.228  78.706  1.5047 -1.7640 -2.0388
18203TIP3   OH276099   2.509   1.681  77.104 -0.1794 -0.2021  0.1856
18203TIP3    H176100   2.440   1.731  77.149 -0.3876  0.2513 -0.6211
18203TIP3    H276101   2.587   1.735  77.114 -0.2068 -0.1422  0.0787
18204TIP3   OH276102   2.118   1.291  28.689 -0.5608 -0.1027  0.1406
18204TIP3    H176103   2.157   1.372  28.657 -0.5196  0.9514  2.6113
18204TIP3    H276104   2.027   1.295  28.660 -0.5034  0.7116  0.0524
18205TIP3   OH276105   1.696   0.379  25.850  0.3656 -0.3217  0.4982
18205TIP3    H176106   1.617   0.332  25.879  1.3327 -1.0082  2.1072
18205TIP3    H276107   1.760   0.364  25.919  1.7071  0.8131 -0.4502
18206TIP3   OH276108   0.657   1.337  97.525  0.5784  0.1034 -0.0960
18206TIP3    H176109   0.740   1.349  97.478  1.3819  0.8028  1.4120
18206TIP3    H276110   0.612   1.420  97.515  0.7778  0.2754  0.3803
18207TIP3   OH276111   1.647   1.417  18.322  0.2097 -0.2532 -0.6190
18207TIP3    H176112   1.566   1.371  18.300  0.6813 -1.4317 -0.0011
18207TIP3    H276113   1.692   1.358  18.383  0.6465  1.2232  0.5487
18208TIP3   OH276114   1.146   1.927 103.202 -0.0474 -0.4146 -0.0610
18208TIP3    H176115   1.202   1.974 103.264  1.5559 -2.6370  0.3150
18208TIP3    H276116   1.086   1.876 103.257 -0.6099 -0.1594 -0.4226
18209TIP3   OH276117   2.414   0.260  74.696 -0.1531 -0.2141  0.0725
18209TIP3    H176118   2.350   0.289  74.632  0.3392 -1.2590 -0.9219
18209TIP3    H276119   2.397   0.167  74.707  0.2744 -0.2061  0.8756
18210TIP3   OH276120   0.125   1.595  26.631 -0.1606 -0.3247  0.1551
18210TIP3    H176121   0.072   1.606  26.710 -0.4627  2.2025 -0.3119
18210TIP3    H276122   0.146   1.501  26.628 -1.6563 -0.7789  2.2268
18211TIP3   OH276123   0.202   0.846  30.261 -0.5307 -0.6693 -0.2423
18211TIP3    H176124   0.230   0.928  30.303 -0.5941 -1.3207  1.1229
18211TIP3    H276125   0.205   0.865  30.167  2.0197  0.0864 -0.0939
18212TIP3   OH276126   1.338   1.543  35.323  0.2935  0.1268  0.2259
18212TIP3    H176127   1.418   1.584  35.357  0.9012 -1.0529  0.2546
18212TIP3    H276128   1.268   1.579  35.378  0.6180  2.0751 -0.5551
18213TIP3   OH276129   2.079   0.654  32.629 -0.3385 -0.1820 -0.3786
18213TIP3    H176130   2.155   0.712  32.633  0.5392 -1.2842 -0.3080
18213TIP3    H276131   2.095   0.600  32.551 -1.1904 -0.2363 -0.5200
18214TIP3   OH276132   1.088   2.083  76.696 -0.2971  0.1835  0.4813
18214TIP3    H176133   1.115   1.997  76.730  0.8043  1.2200  2.3875
18214TIP3    H276134   1.169   2.135  76.695 -0.7809  0.9821 -1.4634
18215TIP3   OH276135   2.482   1.545  13.270  0.3458  0.0784  0.2427
18215TIP3    H176136   2.471   1.515  13.180  0.4215 -0.2608  0.3453
18215TIP3    H276137   2.471   1.640  13.265 -0.1464  0.0105 -0.0439
18216TIP3   OH276138   0.975   2.014 112.126  0.1345 -0.4683 -0.0278
18216TIP3    H176139   0.920   1.935 112.127  0.3685 -0.6344 -0.1594
18216TIP3    H276140   0.917   2.083 112.093  0.4820 -1.0306 -1.9694
18217TIP3   OH276141   0.017   2.041  32.354 -0.1465  0.2758 -0.0186
18217TIP3    H176142   0.018   1.998  32.268 -0.5811 -1.6433  0.8955
18217TIP3    H276143   0.104   2.082  32.361  0.0553  0.0863 -1.1753
18218TIP3   OH276144   1.977   1.107 108.171 -0.1939  0.1310  0.1102
18218TIP3    H176145   1.928   1.075 108.247 -1.8724  2.1340 -0.0348
18218TIP3    H276146   2.036   1.174 108.207 -2.3239  2.4659 -0.4481
18219TIP3   OH276147   1.601   0.967 108.443  0.4445 -0.4488  0.3982
18219TIP3    H176148   1.583   0.886 108.490  2.3757 -1.0825  0.1114
18219TIP3    H276149   1.574   1.036 108.503 -0.3646 -1.2819  1.0154
18220TIP3   OH276150   1.203   2.047  15.646 -0.3008 -0.5859  0.4119
18220TIP3    H176151   1.175   2.105  15.575 -1.9335 -0.7183  0.9125
18220TIP3    H276152   1.274   2.095  15.690 -0.3358  0.1764 -0.3387
18221TIP3   OH276153   2.640   1.593  74.012 -0.3310 -0.0718 -0.1503
18221TIP3    H176154   2.589   1.514  73.993 -0.4541  0.3938 -1.9099
18221TIP3    H276155   2.615   1.655  73.944  2.0433  0.4358 -0.6472
18222TIP3   OH276156   1.006   1.324  74.108 -0.0004 -0.0996  0.1486
18222TIP3    H176157   1.076   1.287  74.054  0.3049  1.3904 -0.5192
18222TIP3    H276158   1.052   1.373  74.176 -0.3856  0.3796  0.0701
18223TIP3   OH276159   1.069   0.037  75.985 -0.4824  0.3798  0.4634
18223TIP3    H176160   1.153   0.061  75.945  0.0373  0.4498  1.5834
18223TIP3    H276161   1.091  -0.033  76.046 -0.9290  1.6239  2.1034
18224TIP3   OH276162   2.382   1.069  86.742  0.9984  0.2441  0.0934
18224TIP3    H176163   2.324   1.145  86.740  2.5876  1.5570  1.0686
18224TIP3    H276164   2.324   0.994  86.725 -0.6054  1.6479 -0.9704
18225TIP3   OH276165   2.295   2.246  85.824 -0.4534  0.2034  0.4643
18225TIP3    H176166   2.200   2.253  85.818 -0.4477  0.3758  0.6035
18225TIP3    H276167   2.310   2.152  85.839 -0.5596  0.0352 -0.3898
18226TIP3   OH276168   0.613   1.163  84.585 -0.1086  0.2552  0.4627
18226TIP3    H176169   0.543   1.151  84.521  0.9527  0.3568 -0.7768
18226TIP3    H276170   0.581   1.121  84.664 -0.8950 -1.1910 -0.5681
18227TIP3   OH276171   1.347   1.015  34.592  0.2530  0.4278  0.1492
18227TIP3    H176172   1.305   1.056  34.517  0.6750 -0.3330 -0.5170
18227TIP3    H276173   1.308   0.927  34.596  2.6963 -0.8383 -1.3440
18228TIP3   OH276174   2.213   2.126 104.954  0.0439 -0.2470  0.6629
18228TIP3    H176175   2.304   2.118 104.926  0.3765 -1.2182  1.8800
18228TIP3    H276176   2.212   2.090 105.043 -1.1102  1.7944  1.5421
18229TIP3   OH276177   1.637   2.305  98.069  0.0986 -0.8054  0.3213
18229TIP3    H176178   1.601   2.218  98.085  0.8645 -0.8677  1.9387
18229TIP3    H276179   1.585   2.340  97.997  0.2661 -2.8753 -0.8840
18230TIP3   OH276180   1.884   1.394  21.700 -0.0421  0.2283  0.3764
18230TIP3    H176181   1.923   1.315  21.739  0.9344  0.6329  0.2547
18230TIP3    H276182   1.879   1.456  21.773  2.1189  1.1095 -0.1454
18231TIP3   OH276183   1.565   2.516  94.710 -0.1779  0.4452  0.0445
18231TIP3    H176184   1.623   2.551  94.778  0.4872  0.1570 -0.3697
18231TIP3    H276185   1.622   2.499  94.636 -0.6229 -0.6940 -0.0630
18232TIP3   OH276186   0.851   1.600  28.008  0.2469  0.0834 -0.1528
18232TIP3    H176187   0.921   1.636  28.063 -0.6184 -0.1992  1.1882
18232TIP3    H276188   0.796   1.676  27.988 -0.1716 -0.0255  0.5302
18233TIP3   OH276189   1.681   0.769  34.399 -0.0958 -0.0249  0.1344
18233TIP3    H176190   1.770   0.756  34.367 -0.6185  0.0619 -1.4515
18233TIP3    H276191   1.691   0.809  34.485  1.3952 -0.5958  0.2442
18234TIP3   OH276192   1.521   2.430  24.312 -0.0144 -0.4835 -0.5747
18234TIP3    H176193   1.458   2.475  24.256  1.1731  1.7577 -0.2298
18234TIP3    H276194   1.607   2.458  24.280  0.7216  0.2369  1.7768
18235TIP3   OH276195   1.751   1.248  11.167 -0.2773  0.6607 -0.5187
18235TIP3    H176196   1.690   1.240  11.240 -0.0598  0.1752 -0.3896
18235TIP3    H276197   1.721   1.185  11.102 -0.1910  0.7540 -0.6519
18236TIP3   OH276198   1.645   1.785  97.124 -0.1960 -0.0304  0.2481
18236TIP3    H176199   1.685   1.852  97.069 -0.8984  2.0919  2.1733
18236TIP3    H276200   1.551   1.795  97.111 -0.2930 -1.8376 -0.7146
18237TIP3   OH276201   0.835   2.445  16.637  0.2588  0.1579 -0.4590
18237TIP3    H176202   0.889   2.384  16.586  0.7768  0.3101 -0.1013
18237TIP3    H276203   0.816   2.398  16.718 -0.1622  0.1016 -0.5871
18238TIP3   OH276204   0.062   2.584  94.596 -0.4929 -0.5939  0.0123
18238TIP3    H176205   0.028   2.664  94.637  0.9023 -0.6862  1.4396
18238TIP3    H276206   0.030   2.513  94.651 -0.1089 -0.8683 -0.1152
18239TIP3   OH276207   2.516   0.537  35.418 -0.5509  0.0010  0.2238
18239TIP3    H176208   2.588   0.475  35.424 -0.3001  0.1500 -0.9094
18239TIP3    H276209   2.556   0.622  35.434 -0.7872 -0.0604  1.2001
18240TIP3   OH276210   2.020   1.666  15.482 -0.0065 -0.6468  0.3371
18240TIP3    H176211   2.063   1.676  15.566 -0.9384 -1.2929  0.9077
18240TIP3    H276212   2.007   1.572  15.471 -1.0311 -0.4905  0.0754
18241TIP3   OH276213   0.258   2.277  88.398  0.5873 -0.0963 -0.6598
18241TIP3    H176214   0.286   2.201  88.448  1.4597  1.0808  0.6991
18241TIP3    H276215   0.162   2.269  88.393  0.5475 -0.5760  0.6329
18242TIP3   OH276216   0.897   0.634 109.221  0.3674 -0.0656 -0.0745
18242TIP3    H176217   0.968   0.578 109.191  2.1414  1.6539  0.6613
18242TIP3    H276218   0.923   0.722 109.193 -0.1406  0.9728  2.4925
18243TIP3   OH276219   0.305   0.272  11.078  0.0371 -0.0704  0.0198
18243TIP3    H176220   0.313   0.242  10.987 -1.0230  1.3363 -0.5761
18243TIP3    H276221   0.222   0.236  11.108  0.5817 -0.8750  0.5830
18244TIP3   OH276222   0.962   1.221  89.717 -0.3684  0.2886  0.3277
18244TIP3    H176223   0.914   1.150  89.760 -1.5981  0.5193 -0.6142
18244TIP3    H276224   0.953   1.204  89.624 -0.1526  1.3241  0.0960
18245TIP3   OH276225   2.481   2.522  98.056 -0.2881  0.0032 -0.1295
18245TIP3    H176226   2.509   2.465  98.127  3.9231 -0.8724 -2.1397
18245TIP3    H276227   2.523   2.606  98.075  1.6637 -0.4983 -1.8483
18246TIP3   OH276228   2.469   2.442  67.904  0.1722 -0.1335  0.1392
18246TIP3    H176229   2.505   2.417  67.819 -1.1612  0.9830 -0.8005
18246TIP3    H276230   2.397   2.381  67.919 -0.5980  0.6471 -0.3043
18247TIP3   OH276231   1.148   1.237  69.410 -0.5371 -0.6161  0.3032
18247TIP3    H176232   1.057   1.263  69.398 -0.8819 -0.5640  2.5707
18247TIP3    H276233   1.193   1.318  69.435 -0.1366 -0.8723  0.4195
18248TIP3   OH276234   0.353   1.520   3.293  0.2150 -0.1960  0.3712
18248TIP3    H176235   0.301   1.467   3.354  1.3962 -1.9910 -0.0881
18248TIP3    H276236   0.432   1.468   3.278  0.5320  0.7925 -1.7026
18249TIP3   OH276237   0.367   1.090 111.942  0.4318 -0.4086 -0.1807
18249TIP3    H176238   0.409   1.106 112.027  0.7339 -1.7187 -0.0518
18249TIP3    H276239   0.277   1.065 111.965  0.3848 -0.3310 -0.2812
18250TIP3   OH276240   0.245   2.583 109.918  0.0024 -0.2441  0.1640
18250TIP3    H176241   0.275   2.642 109.987 -0.4499 -2.0301  1.9572
18250TIP3    H276242   0.200   2.641 109.856 -0.5200  1.2935  1.8871
18251TIP3   OH276243   1.137   0.588   9.027  0.1371 -0.0105 -0.1140
18251TIP3    H176244   1.074   0.520   9.050 -0.0965  0.1840 -0.1759
18251TIP3    H276245   1.193   0.548   8.961 -1.4454  0.6046 -1.9039
18252TIP3   OH276246   0.520   1.129  31.520  0.3604  0.1816  0.0805
18252TIP3    H176247   0.566   1.211  31.502  1.9070 -0.6513  0.1065
18252TIP3    H276248   0.511   1.088  31.434  3.1944 -1.4300  0.4327
18253TIP3   OH276249   1.308   0.061  41.994  0.0509  0.0862 -0.2620
18253TIP3    H176250   1.362   0.004  41.940  0.8947  1.2710 -0.7171
18253TIP3    H276251   1.298   0.014  42.077  0.6297 -0.7601 -0.6652
18254TIP3   OH276252   1.387   1.046  24.424 -0.0055  0.8065 -0.4274
18254TIP3    H176253   1.452   0.980  24.450  0.3768  0.7006 -1.5795
18254TIP3    H276254   1.423   1.084  24.344 -0.4479  2.1057 -0.0231
18255TIP3   OH276255   1.588   0.999  83.630  0.1331 -0.1594 -0.2788
18255TIP3    H176256   1.673   0.974  83.666  0.3880 -0.3844 -1.0350
18255TIP3    H276257   1.525   0.974  83.698  0.4639 -2.0224 -0.6175
18256TIP3   OH276258   1.074   0.014  82.684  0.2647 -0.1173  0.3379
18256TIP3    H176259   1.030  -0.053  82.736 -0.7703 -0.2056 -0.6204
18256TIP3    H276260   1.023   0.094  82.699  0.3402  0.0032 -0.0290
18257TIP3   OH276261   0.924   1.834  20.622 -0.0423 -0.0231  0.3724
18257TIP3    H176262   0.930   1.771  20.693  1.2791 -0.4070 -0.0394
18257TIP3    H276263   0.867   1.792  20.557  1.3482 -1.1301 -0.1891
18258TIP3   OH276264   0.088   1.500  18.438 -0.1950  0.2818 -0.0671
18258TIP3    H176265   0.133   1.583  18.428 -1.0456  0.7240 -0.3338
18258TIP3    H276266   0.140   1.438  18.387 -0.9180  1.1786 -1.9981
18259TIP3   OH276267   0.322   1.447  89.942  0.1823 -0.1344  0.0985
18259TIP3    H176268   0.316   1.464  89.848 -0.9395  4.4647  0.7394
18259TIP3    H276269   0.241   1.402  89.964 -0.3200  0.2453 -0.9144
18260TIP3   OH276270   0.236   2.374   9.773 -0.1501  0.3631  0.1111
18260TIP3    H176271   0.246   2.309   9.843 -0.9804 -0.2169 -0.2934
18260TIP3    H276272   0.309   2.434   9.786 -1.3239  1.3995  2.6771
18261TIP3   OH276273   0.636   2.409  77.729  0.0754  0.0944 -0.0145
18261TIP3    H176274   0.672   2.356  77.658 -0.1943 -1.1112  0.7259
18261TIP3    H276275   0.703   2.475  77.746  0.7461 -0.4658 -0.4449
18262TIP3   OH276276   1.502   1.865 106.442  0.2928  0.0113 -0.0185
18262TIP3    H176277   1.515   1.817 106.524  2.9698 -0.5729 -0.6963
18262TIP3    H276278   1.506   1.957 106.468  1.6832 -0.1612  0.4868
18263TIP3   OH276279   2.258   0.722  36.393 -0.2082  0.0526  0.2941
18263TIP3    H176280   2.242   0.640  36.347 -0.6118  0.7390 -0.8472
18263TIP3    H276281   2.171   0.749  36.423 -0.9724  2.2388 -3.2268
18264TIP3   OH276282   1.814   0.917  25.435 -0.3837  0.0666 -0.3895
18264TIP3    H176283   1.808   0.822  25.427 -1.6052  0.1401 -0.4222
18264TIP3    H276284   1.781   0.937  25.523 -0.3716  0.4811 -0.4741
18265TIP3   OH276285   1.633   2.429  80.762 -0.0179 -0.2528  0.2106
18265TIP3    H176286   1.617   2.409  80.854  0.9884 -0.7542  0.2909
18265TIP3    H276287   1.598   2.518  80.750 -2.9069 -1.2750  0.2964
18266TIP3   OH276288   1.845   2.120  21.841  0.1424 -0.9001 -0.0917
18266TIP3    H176289   1.860   2.196  21.786  1.7932 -1.2660 -0.1808
18266TIP3    H276290   1.932   2.085  21.860 -0.3086 -0.6720  2.9392
18267TIP3   OH276291   0.849   1.066  33.570 -0.2959  0.6407  0.0825
18267TIP3    H176292   0.911   1.138  33.582 -0.6884  1.1567 -0.9220
18267TIP3    H276293   0.886   1.015  33.498 -0.8924  0.7891 -0.3285
18268TIP3   OH276294   2.010   2.193   1.143  0.2289  0.1198  0.1825
18268TIP3    H176295   2.056   2.121   1.186  2.3839  1.2104 -0.1513
18268TIP3    H276296   1.955   2.151   1.077  0.2556 -1.3002  1.0273
18269TIP3   OH276297   0.692   2.333 105.818 -0.5669  0.0857  0.3068
18269TIP3    H176298   0.714   2.279 105.741 -0.3115 -0.2693  0.6240
18269TIP3    H276299   0.671   2.269 105.886 -2.1289  0.4135  0.1566
18270TIP3   OH276300   0.478   2.079  66.280  0.1008  1.1212  0.2019
18270TIP3    H176301   0.556   2.023  66.278 -1.2687 -0.8753 -1.6206
18270TIP3    H276302   0.423   2.042  66.350 -0.8021  0.1007 -0.9988
18271TIP3   OH276303   2.057   2.568 102.975 -0.3588 -0.0716  0.4191
18271TIP3    H176304   1.977   2.600 102.932 -0.3962 -0.6409  0.0514
18271TIP3    H276305   2.099   2.513 102.909 -0.0693 -0.4137  0.8877
18272TIP3   OH276306   0.283   1.808  79.307 -0.1230  0.5516 -0.1489
18272TIP3    H176307   0.218   1.874  79.332 -0.2198 -0.1439  1.5914
18272TIP3    H276308   0.232   1.729  79.289  0.1700  0.1402  0.7361
18273TIP3   OH276309   1.240   0.820   8.359 -0.3969  0.0560  0.4206
18273TIP3    H176310   1.289   0.897   8.388  0.1873  0.2487 -1.0153
18273TIP3    H276311   1.174   0.855   8.299 -1.2267 -0.3967  1.0409
18274TIP3   OH276312   2.417   1.262  89.785 -0.5433 -0.1351  0.1207
18274TIP3    H176313   2.365   1.322  89.731  2.0464  1.5241 -0.7171
18274TIP3    H276314   2.430   1.309  89.867  0.0868 -0.2779  0.1039
18275TIP3   OH276315   0.493   1.760  77.174 -0.2473 -0.5982 -0.0569
18275TIP3    H176316   0.400   1.766  77.152 -0.2072 -0.5617 -0.2231
18275TIP3    H276317   0.516   1.847  77.206 -0.3247 -0.6739  0.2043
18276TIP3   OH276318   1.793   0.367  25.076 -0.1647  0.0039  0.1422
18276TIP3    H176319   1.756   0.307  25.141 -1.0184  2.4856  2.1052
18276TIP3    H276320   1.888   0.363  25.091 -0.1017 -1.5793 -0.4926
18277TIP3   OH276321   1.981   2.606 100.949 -0.1878  0.4810  0.3748
18277TIP3    H176322   1.980   2.606 100.853  1.0940  0.0255  0.3433
18277TIP3    H276323   1.934   2.527 100.973 -2.6883  1.8213  0.2198
18278TIP3   OH276324   2.451   2.051 104.448 -0.3731  0.1761 -0.5555
18278TIP3    H176325   2.523   1.996 104.479  0.5824  0.5501 -2.0074
18278TIP3    H276326   2.391   1.989 104.406 -0.2834  0.0046 -0.4361
18279TIP3   OH276327   0.411   0.102  99.673  0.0827 -0.1183  0.3242
18279TIP3    H176328   0.369   0.030  99.719  0.2167 -1.4021 -1.4405
18279TIP3    H276329   0.373   0.100  99.585  1.8909  0.3598 -0.5142
18280TIP3   OH276330   1.130   1.485  35.155  0.2818 -0.2270  0.1979
18280TIP3    H176331   1.198   1.503  35.219 -0.5022  0.7461  0.7751
18280TIP3    H276332   1.162   1.525  35.074 -0.1216  1.3006  0.7573
18281TIP3   OH276333   2.149   0.041  99.134 -0.4793 -0.1528 -0.3909
18281TIP3    H176334   2.142   0.084  99.049 -0.5755  2.4668  0.8274
18281TIP3    H276335   2.237   0.005  99.136 -0.8626 -1.2537 -1.9954
18282TIP3   OH276336   0.597   0.328  27.164  0.1379  0.0761  0.2048
18282TIP3    H176337   0.568   0.345  27.253  0.4378 -1.5788  0.6355
18282TIP3    H276338   0.516   0.326  27.112 -0.0515  0.8381  0.4520
18283TIP3   OH276339   1.350   1.194  93.247 -0.0704  0.0945 -0.1636
18283TIP3    H176340   1.324   1.217  93.337 -1.2658 -1.3296 -0.1004
18283TIP3    H276341   1.445   1.202  93.247 -0.1077  0.8801  1.0028
18284TIP3   OH276342   2.112   1.066  16.218  0.1413 -0.3031 -0.3230
18284TIP3    H176343   2.103   1.160  16.232 -0.9294 -0.4560  0.0818
18284TIP3    H276344   2.121   1.029  16.306 -0.6230 -0.6855 -0.3955
18285TIP3   OH276345   2.594   2.496  92.127  0.2543  0.3567 -0.6727
18285TIP3    H176346   2.646   2.520  92.051  2.2815 -0.6550  0.3151
18285TIP3    H276347   2.551   2.414  92.101 -1.4344  1.5168 -1.7207
18286TIP3   OH276348   0.418   0.896  85.180 -0.7218  0.0154  0.4329
18286TIP3    H176349   0.393   0.835  85.250 -1.7484  0.8485  0.8053
18286TIP3    H276350   0.344   0.895  85.120 -0.6205  0.6840  0.2915
18287TIP3   OH276351   2.637   2.211  29.743 -0.4421  0.5782 -0.0598
18287TIP3    H176352   2.563   2.173  29.789 -0.5014 -0.7190 -1.1512
18287TIP3    H276353   2.693   2.246  29.812 -1.0598 -0.3048  0.9216
18288TIP3   OH276354   1.091   1.292  98.599  0.2284  0.4512 -0.0281
18288TIP3    H176355   1.116   1.199  98.598  1.6847  0.8140 -0.3512
18288TIP3    H276356   1.118   1.324  98.513  2.1434  1.7321  0.9884
18289TIP3   OH276357   0.062   0.461  87.127 -0.0268  0.2815 -0.3600
18289TIP3    H176358   0.070   0.366  87.138 -2.0963  0.1027 -0.1462
18289TIP3    H276359   0.001   0.471  87.054 -0.4481  1.4587  0.1493
18290TIP3   OH276360   0.563   0.867 106.176 -0.1305  0.0512 -0.2619
18290TIP3    H176361   0.573   0.772 106.170  0.9917  0.1458 -0.1799
18290TIP3    H276362   0.471   0.884 106.154 -0.2780 -1.0256 -0.5030
18291TIP3   OH276363   2.387   1.604  26.669  0.4799  0.9011  0.1390
18291TIP3    H176364   2.388   1.513  26.641 -0.3858  0.7204  0.6806
18291TIP3    H276365   2.356   1.602  26.759 -0.0945  1.7740 -0.0274
18292TIP3   OH276366   2.219   0.901   7.988  0.2477 -0.2555  0.4010
18292TIP3    H176367   2.291   0.922   8.047  0.5904 -0.3225  0.0064
18292TIP3    H276368   2.256   0.841   7.924 -0.0115  0.1526 -0.1388
18293TIP3   OH276369   2.084   0.659  90.572  0.4471  0.6054  0.3075
18293TIP3    H176370   2.132   0.732  90.610  1.5059 -1.0236  2.3159
18293TIP3    H276371   2.139   0.582  90.590 -1.1118 -0.8413 -0.7443
18294TIP3   OH276372   1.367   1.790  21.363 -0.0400  0.0453 -0.1526
18294TIP3    H176373   1.401   1.701  21.371 -1.4647 -0.4516  0.9228
18294TIP3    H276374   1.360   1.805  21.269 -0.8336 -1.4280 -0.3610
18295TIP3   OH276375   0.110   2.387   7.899 -0.0961  0.2164  0.3560
18295TIP3    H176376   0.060   2.400   7.980 -1.7273 -0.9720 -0.4031
18295TIP3    H276377   0.153   2.302   7.910 -0.3178  0.0540 -0.0102
18296TIP3   OH276378   1.063   1.949  35.524 -0.1056  0.0489 -0.5087
18296TIP3    H176379   0.968   1.945  35.532 -0.0640 -0.1487 -0.0579
18296TIP3    H276380   1.080   2.030  35.476 -0.4721  0.3939 -0.0599
18297TIP3   OH276381   0.653   1.959  91.295  0.0287 -0.9114 -0.2555
18297TIP3    H176382   0.663   1.944  91.201  2.0900 -0.1868 -0.2131
18297TIP3    H276383   0.571   1.915  91.319 -0.7675 -0.7293 -2.4525
18298TIP3   OH276384   0.228   1.698  87.051  0.0694  0.1529 -0.6283
18298TIP3    H176385   0.218   1.783  87.008  0.6949 -0.2825 -1.6671
18298TIP3    H276386   0.297   1.654  87.002 -1.1288 -1.4781 -0.9129
18299TIP3   OH276387   0.871   1.073   9.695  0.0325  0.2095 -0.1997
18299TIP3    H176388   0.854   1.031   9.779  1.9040  0.8105  0.5230
18299TIP3    H276389   0.874   1.001   9.632  0.8917 -0.5018  0.6373
18300TIP3   OH276390   0.995   1.014   5.815  0.1986 -0.1645 -0.2739
18300TIP3    H176391   0.997   0.950   5.744  0.8499  0.5373 -0.9158
18300TIP3    H276392   1.045   0.974   5.886 -1.3434 -1.3133  0.1983
18301TIP3   OH276393   2.000   1.640 105.186  0.8331  0.2815  0.5651
18301TIP3    H176394   1.968   1.580 105.253  1.1914 -2.0329 -1.2085
18301TIP3    H276395   2.095   1.637 105.195  0.8314  1.4203  1.1063
18302TIP3   OH276396   0.869   1.746  34.121  0.2946 -0.0401 -0.4231
18302TIP3    H176397   0.781   1.758  34.084 -0.6834 -2.4153  0.9145
18302TIP3    H276398   0.907   1.673  34.072  1.6102  1.0173 -1.0465
18303TIP3   OH276399   0.305   2.117  15.317 -0.1637  0.4572 -0.1056
18303TIP3    H176400   0.293   2.201  15.361  0.6899 -0.4818  2.0967
18303TIP3    H276401   0.376   2.133  15.254 -0.1412  1.4186  0.1466
18304TIP3   OH276402   1.037   0.674 100.531 -0.2071  0.0798  0.5163
18304TIP3    H176403   0.955   0.708 100.494  0.6326  1.9751  0.2958
18304TIP3    H276404   1.105   0.703 100.470  0.7556 -0.4832  1.3016
18305TIP3   OH276405   1.030   1.995  91.449 -0.0365  0.0646  0.4680
18305TIP3    H176406   0.979   1.941  91.509  1.3252 -1.3090  0.4469
18305TIP3    H276407   1.116   1.954  91.446  0.7523  1.6620 -0.3603
18306TIP3   OH276408   2.076   0.205  96.122 -0.7262  0.2001 -0.5094
18306TIP3    H176409   2.110   0.229  96.036  0.3007 -0.3022 -0.2561
18306TIP3    H276410   2.040   0.117  96.110  0.5740 -0.4119 -0.1586
18307TIP3   OH276411   0.527   2.478 102.038 -0.3245  0.4657  0.5625
18307TIP3    H176412   0.452   2.421 102.057 -0.2884  0.3149  0.2586
18307TIP3    H276413   0.541   2.468 101.944  0.6914 -0.2750  0.7802
18308TIP3   OH276414   2.143   0.100   8.354  0.3400  0.1722  0.6029
18308TIP3    H176415   2.238   0.086   8.347  0.3977  0.6887  0.2898
18308TIP3    H276416   2.119   0.139   8.270 -0.1587  0.0096  0.6705
18309TIP3   OH276417   1.429   1.130   3.246 -0.3515 -0.4116 -0.3873
18309TIP3    H176418   1.484   1.206   3.226  0.9552 -1.1983  0.0457
18309TIP3    H276419   1.490   1.066   3.284 -1.8173 -0.8406  1.3545
18310TIP3   OH276420   2.084   1.237  20.792 -0.0312 -0.5648  0.3400
18310TIP3    H176421   2.038   1.161  20.757 -1.6587  0.6141 -0.1831
18310TIP3    H276422   2.101   1.292  20.716 -0.0305  0.1934  0.8756
18311TIP3   OH276423   0.748   2.177  78.852 -0.4555 -0.2971  0.8277
18311TIP3    H176424   0.749   2.259  78.802  1.3976  0.6267  2.2425
18311TIP3    H276425   0.656   2.151  78.854 -0.6874 -0.3793 -2.9364
18312TIP3   OH276426   1.051   0.205  18.601  0.2284 -0.6237 -0.7626
18312TIP3    H176427   0.963   0.170  18.616 -0.0332  0.4466  0.2882
18312TIP3    H276428   1.071   0.180  18.510 -1.1874 -0.7918 -1.0536
18313TIP3   OH276429   0.038   2.527   2.767 -0.3895 -0.0304  0.2285
18313TIP3    H176430   0.109   2.554   2.709  1.0480  0.7569  2.2523
18313TIP3    H276431   0.076   2.528   2.854 -2.7203 -0.2871  1.3258
18314TIP3   OH276432   0.919   2.293  79.067 -0.2023 -0.2257 -0.7836
18314TIP3    H176433   0.929   2.226  79.135  0.3714 -0.0081 -0.6530
18314TIP3    H276434   0.879   2.246  78.993  0.5666 -0.8194 -0.8434
18315TIP3   OH276435   0.809   0.099  12.200 -0.3472  0.2060 -0.7077
18315TIP3    H176436   0.738   0.055  12.247 -0.8819  1.0141 -0.7534
18315TIP3    H276437   0.889   0.073  12.247 -0.6872 -0.5228 -0.5220
18316TIP3   OH276438   2.278   0.402  42.718  0.3950  0.3234  0.2969
18316TIP3    H176439   2.242   0.314  42.706 -1.0378  0.7164  1.3946
18316TIP3    H276440   2.204   0.454  42.749  2.2053  0.8420  4.3409
18317TIP3   OH276441   2.540   0.647  41.020  0.5013 -0.1924  0.5862
18317TIP3    H176442   2.568   0.557  41.038 -1.4430 -0.7790  0.8046
18317TIP3    H276443   2.447   0.641  41.002  0.7783  1.4359 -1.9419
18318TIP3   OH276444   2.380   1.826  14.189  0.3141  0.2628 -0.1902
18318TIP3    H176445   2.291   1.856  14.171  0.2260  0.5252  0.6101
18318TIP3    H276446   2.432   1.907  14.191  0.8797 -0.0110 -2.1959
18319TIP3   OH276447   1.865   1.950 103.687 -0.1962  0.0048 -0.0004
18319TIP3    H176448   1.823   1.988 103.764 -1.9841  0.4876 -1.1525
18319TIP3    H276449   1.838   1.858 103.686  0.1099 -0.0891  0.1258
18320TIP3   OH276450   1.363   1.153  19.674 -0.4075 -0.6308  0.2117
18320TIP3    H176451   1.363   1.196  19.589  0.1054  0.1437  0.5900
18320TIP3    H276452   1.440   1.096  19.673  0.7982  0.9323  0.9004
18321TIP3   OH276453   0.760   1.518  90.740 -0.0450 -0.1672  0.1036
18321TIP3    H176454   0.675   1.507  90.697  0.2661  2.0341 -1.2245
18321TIP3    H276455   0.742   1.573  90.816  0.2393  0.8156 -0.5199
18322TIP3   OH276456   1.283   1.814  89.460  0.0736 -0.4093  0.1840
18322TIP3    H176457   1.279   1.899  89.502  1.5922 -0.4754  0.5219
18322TIP3    H276458   1.346   1.764  89.513 -0.3670 -1.5439 -0.3384
18323TIP3   OH276459   0.515   2.512 103.381  0.1743  0.0220 -0.3074
18323TIP3    H176460   0.527   2.454 103.456  1.5570 -0.8385 -1.1689
18323TIP3    H276461   0.525   2.455 103.304  1.2041  1.2986 -1.1657
18324TIP3   OH276462   1.068   2.582  18.672  0.2844 -0.1116 -0.1440
18324TIP3    H176463   1.031   2.499  18.644  0.7328 -0.3611 -0.0091
18324TIP3    H276464   0.992   2.638  18.688 -0.0163 -0.4594 -0.3361
18325TIP3   OH276465   2.114   2.026  18.929 -0.4089  0.1972  0.0711
18325TIP3    H176466   2.204   2.034  18.963 -0.2022  1.2684 -0.6845
18325TIP3    H276467   2.108   1.935  18.901  0.4096  0.0762  0.2441
18326TIP3   OH276468   2.631   1.545  90.336 -0.3361  0.5641  0.0284
18326TIP3    H176469   2.605   1.605  90.266  1.4996  2.3527  0.7903
18326TIP3    H276470   2.714   1.508  90.306 -1.6931 -2.1784 -0.6844
18327TIP3   OH276471   2.569   1.083  36.008 -0.0483 -0.0792  0.2986
18327TIP3    H176472   2.632   1.105  36.076  0.1000  0.0916  0.1028
18327TIP3    H276473   2.499   1.037  36.055 -0.7543  1.4802  0.8497
18328TIP3   OH276474   1.954   1.378   1.842 -0.5000  0.1291  0.2275
18328TIP3    H176475   1.943   1.311   1.775  1.9386 -0.2363  0.1109
18328TIP3    H276476   1.901   1.346   1.916 -0.4297 -1.2720 -0.2917
18329TIP3   OH276477   0.469   2.457  34.262 -0.3829  0.6697 -0.3149
18329TIP3    H176478   0.511   2.537  34.232  0.7820  0.3187  0.2819
18329TIP3    H276479   0.524   2.427  34.335  0.4377 -1.7164 -1.7653
18330TIP3   OH276480   1.244   2.241  34.772 -0.2837  0.3250  1.2165
18330TIP3    H176481   1.298   2.287  34.836  0.0374  0.8832  0.5636
18330TIP3    H276482   1.210   2.310  34.714  1.1567 -0.3034 -0.4898
18331TIP3   OH276483   0.427   0.341 105.036 -0.0137 -0.7709 -0.1154
18331TIP3    H176484   0.451   0.306 105.122 -0.7184 -0.0449  0.4025
18331TIP3    H276485   0.509   0.344 104.987  0.0905 -3.0820 -0.1891
18332TIP3   OH276486   1.259   2.580  31.704  0.2476  0.6569  0.0233
18332TIP3    H176487   1.204   2.503  31.714  1.5997 -0.0953  2.3568
18332TIP3    H276488   1.205   2.653  31.735 -0.1497  0.2465  0.3004
18333TIP3   OH276489   1.474   0.155   2.324 -0.0189 -0.1774 -0.0616
18333TIP3    H176490   1.486   0.060   2.322 -2.2019 -0.4913 -1.2939
18333TIP3    H276491   1.383   0.167   2.351  0.3746  1.5950  0.5642
18334TIP3   OH276492   1.239   2.451  86.128  0.0671 -0.0612 -0.5158
18334TIP3    H176493   1.145   2.444  86.144  0.2713  0.1351  0.9027
18334TIP3    H276494   1.249   2.533  86.080 -0.3578  0.6833  0.6203
18335TIP3   OH276495   0.466   1.156  88.215 -0.2820 -0.2391 -0.3203
18335TIP3    H176496   0.509   1.239  88.195 -0.9143  1.2036  3.4863
18335TIP3    H276497   0.512   1.122  88.292 -2.2694 -1.5378  0.3933
18336TIP3   OH276498   0.878   0.049  75.811 -0.3403 -0.1806  0.7167
18336TIP3    H176499   0.953   0.029  75.867 -1.6142 -3.8494  1.4201
18336TIP3    H276500   0.810   0.080  75.872 -1.8313 -4.4729  1.5661
18337TIP3   OH276501   0.771   1.866  89.879 -0.4532  0.3846  0.0098
18337TIP3    H176502   0.730   1.866  89.793  1.1018 -1.1944 -0.7929
18337TIP3    H276503   0.704   1.830  89.937 -0.8039 -0.5694 -0.9529
18338TIP3   OH276504   2.347   1.836  75.857  0.4967 -0.3309 -0.6072
18338TIP3    H176505   2.388   1.909  75.904  1.4132 -0.0647 -1.7618
18338TIP3    H276506   2.387   1.758  75.895 -2.4887 -0.5383  2.6041
18339TIP3   OH276507   2.201   2.578   4.284 -0.2016  0.1130  0.0156
18339TIP3    H176508   2.187   2.511   4.217  1.1799 -0.5712  0.3725
18339TIP3    H276509   2.225   2.657   4.235  2.7000 -0.8601 -0.3299
18340TIP3   OH276510   1.031   1.975   5.791 -0.1265  0.4185  0.2942
18340TIP3    H176511   1.084   1.937   5.721  1.1534 -0.9140  1.9040
18340TIP3    H276512   0.986   2.048   5.749  0.0061 -0.7539 -2.0799
18341TIP3   OH276513   1.831   0.023  15.867 -0.0033  0.2934 -0.1587
18341TIP3    H176514   1.925   0.005  15.862  0.0594  0.4290  0.4198
18341TIP3    H276515   1.822   0.080  15.944 -0.6213 -0.1684  0.1166
18342TIP3   OH276516   1.648   2.053  97.400 -0.0024  0.2673 -0.0654
18342TIP3    H176517   1.633   1.962  97.425  1.0950 -0.5060 -1.9795
18342TIP3    H276518   1.743   2.063  97.400  0.0568  0.4868 -2.6003
18343TIP3   OH276519   1.182   2.416  77.719  0.2476 -0.0528 -0.0510
18343TIP3    H176520   1.170   2.490  77.778  0.5307 -0.0063 -0.0451
18343TIP3    H276521   1.131   2.345  77.758  0.0357  0.1210 -0.0136
18344TIP3   OH276522   0.457   0.957 109.562  0.4466 -0.5268  0.4708
18344TIP3    H176523   0.538   0.980 109.608  0.7660  0.0381 -0.3360
18344TIP3    H276524   0.471   0.867 109.534  0.6078 -0.5860  0.7330
18345TIP3   OH276525   2.291   0.892  95.410  0.4648  0.2268  0.3555
18345TIP3    H176526   2.228   0.917  95.342  1.1338 -1.2760 -0.8680
18345TIP3    H276527   2.251   0.817  95.454  0.1743  0.9998  1.4761
18346TIP3   OH276528   0.387   1.774  12.100 -0.0431  0.3452  0.5917
18346TIP3    H176529   0.449   1.774  12.027 -0.2687  0.3763  0.3972
18346TIP3    H276530   0.426   1.832  12.165 -1.2293  2.7467 -0.7063
18347TIP3   OH276531   0.247   0.834   3.594  0.5828 -0.1226 -0.3513
18347TIP3    H176532   0.277   0.749   3.624  0.5459 -0.6454 -1.7010
18347TIP3    H276533   0.255   0.830   3.498 -0.9990  0.7807 -0.5602
18348TIP3   OH276534   2.014   1.568  77.472 -0.2195  0.0719 -0.3861
18348TIP3    H176535   2.087   1.514  77.439 -0.3309  0.1559 -0.7720
18348TIP3    H276536   2.021   1.650  77.423  0.4922  0.7631  0.8482
18349TIP3   OH276537   1.786   0.370  77.289 -0.1013 -0.5912  0.0577
18349TIP3    H176538   1.735   0.450  77.299  1.0299 -0.0157  1.6063
18349TIP3    H276539   1.876   0.399  77.275  0.2778 -1.5841  0.2970
18350TIP3   OH276540   1.326   2.682  18.659 -0.2304 -0.5078  0.3916
18350TIP3    H176541   1.237   2.670  18.693 -0.1656 -1.5085  0.2360
18350TIP3    H276542   1.351   2.596  18.627  0.4348 -0.0100 -0.4641
18351TIP3   OH276543   1.106   0.039 102.213 -0.1195  0.0281  0.0442
18351TIP3    H176544   1.026   0.090 102.225 -0.1683 -0.1189  0.3348
18351TIP3    H276545   1.097  -0.001 102.127 -1.0458 -1.2268  0.7030
18352TIP3   OH276546   0.005   0.782  79.607 -0.0339  0.8802  0.1927
18352TIP3    H176547  -0.066   0.727  79.640  0.4984 -1.0994 -1.7561
18352TIP3    H276548   0.079   0.762  79.664 -0.0787  0.2404  0.0273
18353TIP3   OH276549   0.924   0.563  24.870  0.0675 -0.5785 -0.3402
18353TIP3    H176550   0.967   0.644  24.845 -0.6697  0.4760  1.6103
18353TIP3    H276551   0.942   0.503  24.797  1.1000  1.1322 -1.5723
18354TIP3   OH276552   0.027   1.969   5.897 -0.1896 -0.6077 -0.2044
18354TIP3    H176553   0.091   1.906   5.932  0.4933  0.4085  0.4363
18354TIP3    H276554   0.061   1.992   5.810  1.0894  0.9232  0.6483
18355TIP3   OH276555   0.873   1.554  75.445  0.1152 -0.0798 -0.0277
18355TIP3    H176556   0.855   1.481  75.386  2.5349 -1.7088  1.0758
18355TIP3    H276557   0.795   1.560  75.501 -0.8475 -0.6224 -1.2694
18356TIP3   OH276558   1.747   0.081  77.149 -0.0718  0.6646  0.0003
18356TIP3    H176559   1.711   0.155  77.198 -1.6523  0.2908 -0.5450
18356TIP3    H276560   1.833   0.066  77.189 -1.1542  0.5377  2.5195
18357TIP3   OH276561   2.570   0.447  89.574 -0.1277  0.0524 -0.1489
18357TIP3    H176562   2.596   0.519  89.632  1.1948 -0.4063 -0.1304
18357TIP3    H276563   2.478   0.465  89.554  0.0267  1.4619  0.2611
18358TIP3   OH276564   1.154   1.404  12.571 -0.2041 -0.1054 -0.7990
18358TIP3    H176565   1.086   1.361  12.519 -0.5185 -0.6245  0.0004
18358TIP3    H276566   1.116   1.410  12.659  1.0004 -0.9897 -0.1736
18359TIP3   OH276567   1.818   1.192  32.480 -0.0448  0.3589  0.0310
18359TIP3    H176568   1.881   1.157  32.544  0.7192  0.1927 -0.7895
18359TIP3    H276569   1.789   1.275  32.517  0.0217  0.0341  0.8235
18360TIP3   OH276570   2.628   2.197   8.269 -0.5281 -0.3060  0.3092
18360TIP3    H176571   2.712   2.208   8.314 -1.0554 -0.2225  1.2902
18360TIP3    H276572   2.615   2.279   8.222 -0.1034 -0.2816  0.2317
18361TIP3   OH276573   2.484   2.514  25.756  0.1584  0.4954  0.5149
18361TIP3    H176574   2.531   2.568  25.692  1.2693 -1.6885 -0.6072
18361TIP3    H276575   2.405   2.485  25.710  1.2198 -1.5119 -0.1222
18362TIP3   OH276576   1.580   1.173  12.561  0.1325 -0.2153  0.4310
18362TIP3    H176577   1.563   1.136  12.474  1.2797  0.7867 -0.2530
18362TIP3    H276578   1.495   1.204  12.591 -0.0143  1.0175 -1.1177
18363TIP3   OH276579   0.377   0.595  23.693 -0.0821  0.2735 -0.1851
18363TIP3    H176580   0.378   0.643  23.610  2.1111 -0.7455 -0.8232
18363TIP3    H276581   0.333   0.512  23.671  1.4773 -0.4627 -0.6756
18364TIP3   OH276582   0.763   0.348  75.209 -0.0759  0.1257 -0.1578
18364TIP3    H176583   0.769   0.327  75.116 -3.0378 -2.7542  0.1253
18364TIP3    H276584   0.675   0.384  75.220  0.2964  0.6316  1.5124
18365TIP3   OH276585   0.747   0.996  26.307  0.6657 -1.0856 -0.3375
18365TIP3    H176586   0.778   0.906  26.323  0.7184 -0.7411  1.8445
18365TIP3    H276587   0.826   1.049  26.308  0.4441 -0.7377  0.9232
18366TIP3   OH276588   1.675   0.202  33.597 -0.2158 -0.0471  0.3731
18366TIP3    H176589   1.719   0.281  33.627 -0.1295  0.7614 -1.7531
18366TIP3    H276590   1.733   0.131  33.622  0.7470  0.7438  0.4250
18367TIP3   OH276591   1.112   0.842  93.464 -0.4029 -0.3259 -0.0744
18367TIP3    H176592   1.100   0.759  93.417 -1.7354  0.8409 -1.9232
18367TIP3    H276593   1.205   0.863  93.452  0.0673 -1.7323  0.8119
18368TIP3   OH276594   0.676   1.017  36.081 -0.0138  0.2518  0.2126
18368TIP3    H176595   0.661   1.099  36.127 -3.5588  1.0199 -1.9512
18368TIP3    H276596   0.618   0.954  36.124  0.2922 -0.3070 -0.1708
18369TIP3   OH276597   0.481   2.467  26.552  0.2723  0.1038  0.1304
18369TIP3    H176598   0.570   2.440  26.574  0.3069  0.7435  0.8050
18369TIP3    H276599   0.446   2.505  26.633  0.1875  1.9249 -0.7155
18370TIP3   OH276600   1.043   1.675  98.384  0.2286  0.0822  0.5074
18370TIP3    H176601   1.057   1.587  98.350  1.5448  0.1621  0.8112
18370TIP3    H276602   1.117   1.726  98.351 -1.1955  1.4272 -0.7921
18371TIP3   OH276603   0.319   0.608  18.516 -0.3551 -0.0006 -0.1650
18371TIP3    H176604   0.276   0.634  18.434 -1.1479 -1.7885 -0.3600
18371TIP3    H276605   0.300   0.515  18.524  2.7543 -0.7104  0.2083
18372TIP3   OH276606   1.189   1.327  83.905 -0.3154  0.6191  0.1349
18372TIP3    H176607   1.098   1.307  83.882  0.0482 -0.6509 -0.2684
18372TIP3    H276608   1.241   1.283  83.838  0.5894  1.9678 -0.0848
18373TIP3   OH276609   2.274   0.772   5.176 -0.0437  0.0691  0.1624
18373TIP3    H176610   2.313   0.833   5.114  0.9900  1.2850  1.9245
18373TIP3    H276611   2.235   0.827   5.244 -0.5121 -1.2099  0.9778
18374TIP3   OH276612   1.353   0.778  11.542  0.1779  0.2276 -0.0536
18374TIP3    H176613   1.352   0.859  11.593  1.8840 -0.7916  1.7184
18374TIP3    H276614   1.443   0.771  11.510 -0.2234 -0.4592 -1.0879
18375TIP3   OH276615   1.764   0.934  78.818 -0.6380 -0.0885 -0.0874
18375TIP3    H176616   1.680   0.977  78.806  1.4689  4.6221 -0.0381
18375TIP3    H276617   1.815   0.958  78.741  1.6381 -0.0800  1.3245
18376TIP3   OH276618   1.867   0.689  22.684  0.4359 -0.2422 -0.0691
18376TIP3    H176619   1.948   0.734  22.661  0.9455  0.5595  2.9111
18376TIP3    H276620   1.895   0.605  22.721 -0.2250 -0.8078 -0.8226
18377TIP3   OH276621   0.571   0.756  81.280  0.1384  0.1492  0.8904
18377TIP3    H176622   0.495   0.736  81.335 -0.9192 -0.8936 -0.8669
18377TIP3    H276623   0.639   0.784  81.342 -1.5469  0.7823  2.5379
18378TIP3   OH276624   0.602   0.890  19.186 -0.4044 -0.2472 -0.5377
18378TIP3    H176625   0.507   0.886  19.175 -0.8079  2.6613  0.8968
18378TIP3    H276626   0.627   0.971  19.142  1.2117 -0.2780  0.2701
18379TIP3   OH276627   2.261   1.346 102.738  0.2281  0.3703  0.3600
18379TIP3    H176628   2.263   1.338 102.833  0.3956  0.8437  0.3976
18379TIP3    H276629   2.339   1.397 102.716 -1.3467  2.9026  0.2496
18380TIP3   OH276630   1.125   1.314  19.007 -0.6083 -0.1973 -0.0193
18380TIP3    H176631   1.066   1.388  18.993 -0.2636 -0.0112 -0.5081
18380TIP3    H276632   1.084   1.264  19.078 -0.8790  0.4228  0.2722
18381TIP3   OH276633   1.538   0.315   2.545  0.2619 -0.0106  0.0326
18381TIP3    H176634   1.528   0.271   2.461  1.3097  0.3039 -0.2738
18381TIP3    H276635   1.633   0.321   2.558  0.1452  1.5369  0.3756
18382TIP3   OH276636   2.322   2.199  21.229 -0.0968 -0.2752  0.2100
18382TIP3    H176637   2.301   2.275  21.174  1.7858  1.2648  1.4476
18382TIP3    H276638   2.402   2.163  21.190 -0.7874 -1.4450 -0.1646
18383TIP3   OH276639   0.860   0.475  89.028  0.5258  0.1799 -0.0337
18383TIP3    H176640   0.868   0.381  89.037 -1.4304  0.0535  0.9717
18383TIP3    H276641   0.816   0.503  89.108  1.9182  2.0988  0.1304
18384TIP3   OH276642   0.357   2.547 107.862 -0.2191  0.3307  0.5296
18384TIP3    H176643   0.411   2.486 107.913  0.6115  0.5553 -0.0465
18384TIP3    H276644   0.304   2.593 107.927 -1.1789 -1.2930  0.9384
18385TIP3   OH276645   2.586   2.508  79.714  0.9174  0.4049 -0.2920
18385TIP3    H176646   2.613   2.597  79.737 -0.7383  1.1803 -1.1981
18385TIP3    H276647   2.580   2.509  79.618 -2.4634  0.4029 -0.1739
18386TIP3   OH276648   0.425   0.264   5.667 -0.1084  0.2352  0.0472
18386TIP3    H176649   0.462   0.184   5.704 -2.7161 -0.7227  0.7866
18386TIP3    H276650   0.337   0.270   5.705 -0.7043  2.4230 -1.4820
18387TIP3   OH276651   2.400   2.392   1.076 -0.0957  0.0160 -0.0568
18387TIP3    H176652   2.308   2.407   1.053  0.8285  1.3405 -3.5545
18387TIP3    H276653   2.406   2.298   1.093 -1.9083 -0.2889 -0.8618
18388TIP3   OH276654   1.313   2.164   8.404  0.1860  0.5216  0.2974
18388TIP3    H176655   1.393   2.147   8.356 -0.5458 -0.0335 -0.7742
18388TIP3    H276656   1.335   2.235   8.464  1.5113  0.2608  0.1453
18389TIP3   OH276657   0.307   1.411  33.279  0.3029 -0.0859 -0.6260
18389TIP3    H176658   0.328   1.505  33.274 -1.1053  0.4321  1.6055
18389TIP3    H276659   0.324   1.388  33.370 -1.5150 -1.4246 -0.5697
18390TIP3   OH276660   0.845   1.595  33.375 -0.1703  0.6980  0.3983
18390TIP3    H176661   0.785   1.596  33.450  0.3431 -2.6736  1.0125
18390TIP3    H276662   0.882   1.684  33.372 -1.3147  1.3597  3.1900
18391TIP3   OH276663   2.655   0.143  88.407 -0.2063  0.0025  0.9358
18391TIP3    H176664   2.616   0.097  88.481  0.0491  0.0591  1.1100
18391TIP3    H276665   2.647   0.083  88.334 -2.2395  0.7143  0.5225
18392TIP3   OH276666   2.100   0.069  80.130 -0.4716  0.4371  0.1116
18392TIP3    H176667   2.109   0.007  80.057 -0.3976  0.8102 -0.1995
18392TIP3    H276668   2.150   0.030  80.201 -2.2232 -0.9577  0.6552
18393TIP3   OH276669   1.772   1.332  31.300  0.3561  0.4534  0.4600
18393TIP3    H176670   1.682   1.307  31.319 -0.7763  2.6769 -1.3675
18393TIP3    H276671   1.813   1.252  31.267 -0.9320 -0.5854  1.2815
18394TIP3   OH276672   2.361   1.239  19.035 -0.7514  0.0182 -0.1207
18394TIP3    H176673   2.270   1.258  19.057 -0.3512  1.3249  0.4579
18394TIP3    H276674   2.387   1.309  18.976 -0.3080 -0.7170 -0.8186
18395TIP3   OH276675   2.199   0.332 108.893 -0.2289  0.3730  0.2224
18395TIP3    H176676   2.238   0.342 108.979 -0.7436  2.3965  0.2686
18395TIP3    H276677   2.115   0.377 108.899 -1.6923 -2.0788 -0.4796
18396TIP3   OH276678   0.277   2.572  51.357 -0.0934 -0.1704 -0.4804
18396TIP3    H176679   0.235   2.633  51.295 -0.6762 -1.5534 -1.4941
18396TIP3    H276680   0.367   2.603  51.364 -1.2612  3.2503  2.1925
18397TIP3   OH276681   1.338   0.170  73.719 -0.3333  0.4013 -0.2923
18397TIP3    H176682   1.364   0.102  73.656  1.2156  0.7184 -0.0219
18397TIP3    H276683   1.342   0.252  73.669  0.3228  0.5864  0.0593
18398TIP3   OH276684   1.054   1.782  91.656 -0.0699 -0.0800 -0.4328
18398TIP3    H176685   1.031   1.692  91.678 -0.7706  0.2198  0.1128
18398TIP3    H276686   0.972   1.831  91.669  0.9419  1.1369  2.1277
18399TIP3   OH276687   0.848   0.939 110.956 -0.4624 -0.0534  0.7660
18399TIP3    H176688   0.771   0.996 110.963 -1.1592 -1.1227  2.7745
18399TIP3    H276689   0.863   0.910 111.045  0.8431 -1.7522  0.0348
18400TIP3   OH276690   0.002   1.555  20.870 -0.5734 -0.6553 -0.3273
18400TIP3    H176691  -0.068   1.518  20.816  0.3997 -1.6649 -0.9442
18400TIP3    H276692   0.042   1.479  20.913 -0.1273 -0.0526  0.3407
18401TIP3   OH276693   1.477   2.228  31.444  0.1380  0.5307  0.2060
18401TIP3    H176694   1.421   2.163  31.402 -0.4585  0.9643  0.3163
18401TIP3    H276695   1.565   2.207  31.415 -0.0903 -0.1252 -0.0192
18402TIP3   OH276696   2.271   1.914  24.990 -0.0173 -0.0645  0.2327
18402TIP3    H176697   2.285   1.837  24.934 -1.3782 -0.8304  0.8956
18402TIP3    H276698   2.200   1.962  24.947  0.4463  0.5405  0.1255
18403TIP3   OH276699   0.360   2.139  33.247  0.1615 -0.6490  0.3675
18403TIP3    H176700   0.375   2.065  33.188  1.8325  1.2294 -1.7465
18403TIP3    H276701   0.404   2.114  33.328 -1.1197 -2.7912  0.4754
18404TIP3   OH276702   1.976   0.337  99.457 -0.4104 -0.0406  0.6342
18404TIP3    H176703   1.946   0.258  99.411  0.7823  0.2399 -0.6640
18404TIP3    H276704   2.051   0.367  99.407 -0.6858  1.7964  1.2551
18405TIP3   OH276705   1.257   0.971  28.986  0.5078  0.1174 -0.2645
18405TIP3    H176706   1.193   0.969  29.058  0.0351 -0.3649 -0.6929
18405TIP3    H276707   1.244   1.057  28.945 -0.0834 -0.0995 -0.5416
18406TIP3   OH276708   1.925   1.779  90.427 -0.3680 -0.2847  0.0061
18406TIP3    H176709   1.973   1.862  90.426 -0.8383  0.0905  2.3186
18406TIP3    H276710   1.972   1.724  90.364  2.0321  0.6333  0.8699
18407TIP3   OH276711   1.188   0.390 107.159  0.1648  0.2820  0.2690
18407TIP3    H176712   1.280   0.380 107.133 -0.0782 -0.5693 -0.2907
18407TIP3    H276713   1.184   0.352 107.247  0.2744 -0.0018  0.1542
18408TIP3   OH276714   0.291   0.922 106.104  0.4521  0.1558 -0.0296
18408TIP3    H176715   0.232   0.849 106.086  0.8715 -0.2038  0.0514
18408TIP3    H276716   0.269   0.987 106.037 -1.0199  0.6249  0.8591
18409TIP3   OH276717   0.026   0.879 108.209 -0.1560  0.4979  0.3655
18409TIP3    H176718  -0.051   0.923 108.245  0.7481  1.7038  0.8939
18409TIP3    H276719  -0.002   0.846 108.124 -1.2401  0.9555  0.5410
18410TIP3   OH276720   1.603   0.976   6.160  0.1701 -0.3255 -0.1814
18410TIP3    H176721   1.539   0.962   6.229  0.9369 -1.3742  0.3410
18410TIP3    H276722   1.568   1.051   6.110 -1.7788 -1.2740 -0.3331
18411TIP3   OH276723   0.782   0.781  19.794 -0.1203 -0.4103  0.3428
18411TIP3    H176724   0.754   0.734  19.873  1.9405  0.7952  1.9140
18411TIP3    H276725   0.721   0.855  19.788  0.5821  0.3391  1.7714
18412TIP3   OH276726   1.212   1.841  20.631 -0.0036 -0.1481 -0.1023
18412TIP3    H176727   1.232   1.817  20.721  0.7645  0.3203 -0.1387
18412TIP3    H276728   1.116   1.835  20.625 -0.2142  1.2808  1.1724
18413TIP3   OH276729   1.346   2.249  99.331 -0.0798  0.4198 -0.2017
18413TIP3    H176730   1.361   2.163  99.371  1.0864  0.5060 -0.4164
18413TIP3    H276731   1.426   2.267  99.283 -0.0418  1.9418  0.3934
18414TIP3   OH276732   2.546   0.985   6.588 -0.0228  0.1840 -0.5024
18414TIP3    H176733   2.581   1.011   6.503  0.7797 -2.1642 -0.9476
18414TIP3    H276734   2.592   0.904   6.610 -0.7303  0.3460  1.8506
18415TIP3   OH276735   0.813   1.328  88.931  0.1760 -0.1200 -0.0659
18415TIP3    H176736   0.844   1.268  88.864  0.2925 -0.6472  0.4527
18415TIP3    H276737   0.882   1.394  88.939  1.0801 -1.1582  0.9227
18416TIP3   OH276738   0.745   0.737  13.591 -0.3935 -0.4247  0.2153
18416TIP3    H176739   0.664   0.786  13.606 -0.6009 -0.3168 -1.1089
18416TIP3    H276740   0.773   0.709  13.678 -1.6352 -0.1168  0.7329
18417TIP3   OH276741   2.354   2.546  32.920  0.5767 -0.1647 -0.8920
18417TIP3    H176742   2.290   2.533  32.850 -0.6733 -1.7193  0.4577
18417TIP3    H276743   2.365   2.641  32.925 -3.2285  0.3793  0.1476
18418TIP3   OH276744   1.510   1.200 101.552 -0.5962  0.1232  0.8463
18418TIP3    H176745   1.523   1.249 101.634  1.0886  0.0532  0.6612
18418TIP3    H276746   1.494   1.268 101.486 -0.8645  0.2526  1.0428
18419TIP3   OH276747   2.528   1.314  86.122  0.0139  0.1791 -0.0446
18419TIP3    H176748   2.490   1.266  86.048  0.6061  0.3759 -0.4784
18419TIP3    H276749   2.531   1.250  86.193 -0.9931  0.1142 -0.0447
18420TIP3   OH276750   0.671   1.263 109.524 -0.3597 -0.1021 -0.3030
18420TIP3    H176751   0.633   1.299 109.604 -0.7957 -2.1142  0.4719
18420TIP3    H276752   0.617   1.297 109.453 -1.7061 -0.4570  0.5252
18421TIP3   OH276753   0.605   0.832   3.399 -0.2651  0.5061  0.1653
18421TIP3    H176754   0.607   0.787   3.314 -0.1154  0.6188  0.1077
18421TIP3    H276755   0.513   0.852   3.414 -0.1853  1.3816 -0.4434
18422TIP3   OH276756   0.768   0.190  98.886  0.2571 -0.4537 -0.3949
18422TIP3    H176757   0.845   0.247  98.887 -1.6602  2.2984 -1.1388
18422TIP3    H276758   0.724   0.207  98.969 -0.0584 -1.3229 -0.3689
18423TIP3   OH276759   2.329   0.219  37.503 -0.0669  0.3719  0.3375
18423TIP3    H176760   2.369   0.133  37.515 -0.5030  0.1456  0.1795
18423TIP3    H276761   2.333   0.259  37.590  0.4001  0.3127  0.3489
18424TIP3   OH276762   1.701   2.238  99.968 -0.2064  0.6985 -0.2257
18424TIP3    H176763   1.716   2.176 100.040  1.2814 -0.1388 -1.1771
18424TIP3    H276764   1.664   2.184  99.898  0.5288  0.9995 -0.8606
18425TIP3   OH276765   1.438   1.833 104.120  0.3659 -0.0440  0.7133
18425TIP3    H176766   1.413   1.742 104.140 -1.2852  0.3693  0.6584
18425TIP3    H276767   1.371   1.886 104.163 -0.6905  1.0351 -2.0043
18426TIP3   OH276768   0.581   0.746  95.214 -0.2074 -0.1972 -0.3071
18426TIP3    H176769   0.559   0.837  95.197  0.5822  0.0984  0.1857
18426TIP3    H276770   0.556   0.700  95.134 -0.1633  0.5254 -0.7446
18427TIP3   OH276771   0.879   2.282 112.100 -0.0887  0.1793 -0.2818
18427TIP3    H176772   0.910   2.296 112.010  0.3063  0.7577 -0.0617
18427TIP3    H276773   0.812   2.349 112.113  1.0964  1.2715  0.4336
18428TIP3   OH276774   0.201   0.405  95.532  0.2558 -0.2893  0.1638
18428TIP3    H176775   0.129   0.404  95.470  0.0741  0.8915  0.3379
18428TIP3    H276776   0.173   0.467  95.600 -0.1390 -2.4958  2.1401
18429TIP3   OH276777   1.634   1.346  15.823 -0.0459 -0.5489 -0.1835
18429TIP3    H176778   1.639   1.408  15.750  0.8025 -0.1279  0.2225
18429TIP3    H276779   1.625   1.260  15.780 -2.7717 -0.0854 -0.7363
18430TIP3   OH276780   0.996   1.003  21.875 -0.1599  0.2292 -0.4776
18430TIP3    H176781   1.076   0.985  21.825  0.2862  0.4330  0.1523
18430TIP3    H276782   0.930   1.023  21.809 -0.0639 -1.3124 -1.0953
18431TIP3   OH276783   0.562   0.283  98.689  0.0448 -0.0330 -0.2309
18431TIP3    H176784   0.489   0.338  98.719  1.4825  2.3773 -0.8771
18431TIP3    H276785   0.611   0.262  98.768  0.6130  1.4311 -0.1547
18432TIP3   OH276786   1.341   2.050  12.296  0.7307  0.0891  0.0423
18432TIP3    H176787   1.296   2.134  12.287  0.7362  0.0404 -0.4711
18432TIP3    H276788   1.319   2.002  12.216  1.4921 -0.0251 -0.1087
18433TIP3   OH276789   0.583   2.207  27.238 -0.0278 -0.2815 -0.5365
18433TIP3    H176790   0.541   2.181  27.321  0.7118 -2.3069 -0.7531
18433TIP3    H276791   0.510   2.228  27.180 -0.6898 -1.5838 -0.2178
18434TIP3   OH276792   2.408   2.609  80.118  0.2377  0.3670 -0.2958
18434TIP3    H176793   2.366   2.525  80.135 -1.0957  1.2781  1.1850
18434TIP3    H276794   2.498   2.587  80.095 -0.2730 -1.4893 -0.6567
18435TIP3   OH276795   0.492   2.564  73.367  0.6595  1.0026  0.0576
18435TIP3    H176796   0.416   2.511  73.342  1.6129 -0.3245 -0.0935
18435TIP3    H276797   0.492   2.636  73.304 -0.6238  1.1820  0.2381
18436TIP3   OH276798   0.361   0.324  27.019 -0.1577  0.5544 -0.0437
18436TIP3    H176799   0.368   0.340  26.924 -1.2455  1.6522  0.0399
18436TIP3    H276800   0.352   0.229  27.026 -1.6603  0.5727 -1.1816
18437TIP3   OH276801   1.688   2.554   1.158  0.0607  0.4529  0.9709
18437TIP3    H176802   1.693   2.539   1.063 -2.0724  1.0959  0.7043
18437TIP3    H276803   1.747   2.490   1.195  2.1229  1.1545 -0.8574
18438TIP3   OH276804   1.844   0.994  14.258 -0.4808  0.0114  0.2098
18438TIP3    H176805   1.820   1.085  14.275  0.1677 -0.1709  2.3512
18438TIP3    H276806   1.939   0.993  14.261 -0.4659 -0.6991 -0.1497
18439TIP3   OH276807   1.381   0.782  25.676 -0.3828  0.6030  0.3129
18439TIP3    H176808   1.446   0.713  25.691 -0.3317  0.2212 -1.4115
18439TIP3    H276809   1.420   0.861  25.711 -0.3132 -0.1620  2.0793
18440TIP3   OH276810   2.221   2.359  83.098  0.3928  0.1886 -0.1073
18440TIP3    H176811   2.282   2.299  83.143  1.2854  0.5685 -0.7969
18440TIP3    H276812   2.255   2.366  83.009 -0.9993 -0.0427 -0.6896
18441TIP3   OH276813   2.134   1.433  78.728  1.0776  0.1497 -0.0729
18441TIP3    H176814   2.158   1.520  78.761 -0.3355  0.4890  0.1447
18441TIP3    H276815   2.122   1.380  78.807 -0.3504  0.4170 -0.0853
18442TIP3   OH276816   2.348   0.869   9.507 -0.4048 -0.6121 -0.7098
18442TIP3    H176817   2.366   0.935   9.574 -1.5097  0.4058 -1.3652
18442TIP3    H276818   2.413   0.801   9.522  0.4804  0.4097  0.2883
18443TIP3   OH276819   0.106   2.376  88.692 -0.1104  0.1818 -0.0723
18443TIP3    H176820   0.102   2.452  88.634 -2.3305 -0.1328 -0.3881
18443TIP3    H276821   0.070   2.304  88.640  3.1766 -1.5203 -0.2837
18444TIP3   OH276822   1.397   0.011  29.746  0.0432  0.0053 -0.2054
18444TIP3    H176823   1.396   0.002  29.651 -0.9937  1.4456 -0.3709
18444TIP3    H276824   1.458   0.084  29.762 -0.4828  0.3765  0.1442
18445TIP3   OH276825   2.405   1.121  73.471 -0.0228  0.7583 -0.1025
18445TIP3    H176826   2.403   1.028  73.492 -1.0123  1.0134  1.1212
18445TIP3    H276827   2.494   1.149  73.494  1.1648 -0.3365 -2.9293
18446TIP3   OH276828   1.777   1.589  92.636  0.1971  0.3929  0.3449
18446TIP3    H176829   1.752   1.501  92.665  1.0589  0.1983  0.5120
18446TIP3    H276830   1.722   1.605  92.559  2.2996 -1.6368 -1.7423
18447TIP3   OH276831   2.298   1.609  78.531 -0.6339  0.3745 -0.3796
18447TIP3    H176832   2.276   1.678  78.468 -0.5136 -1.0576 -2.0894
18447TIP3    H276833   2.387   1.583  78.507 -0.3958  0.1272  0.7302
18448TIP3   OH276834   1.245   1.862  99.609 -0.1202  0.1212  0.0636
18448TIP3    H176835   1.166   1.873  99.557 -0.1393  1.6495  0.3975
18448TIP3    H276836   1.216   1.866  99.699  0.3549  0.9728  0.1906
18449TIP3   OH276837   0.868   0.584  25.155 -0.0204 -0.4868  0.0688
18449TIP3    H176838   0.870   0.551  25.065  0.9733  0.3971 -0.2634
18449TIP3    H276839   0.935   0.653  25.156 -2.3594  1.9159  0.5505
18450TIP3   OH276840   0.946   0.604  13.770 -0.1432 -0.0727 -0.6609
18450TIP3    H176841   0.916   0.514  13.769  2.5704 -1.0730 -1.3226
18450TIP3    H276842   1.025   0.603  13.824 -0.4980  2.0999  0.0060
18451TIP3   OH276843   1.610   1.488  27.303  0.3572  0.5073 -1.0520
18451TIP3    H176844   1.646   1.414  27.351 -0.5837  1.3434  1.0671
18451TIP3    H276845   1.636   1.565  27.354 -1.8357  1.3289 -1.0708
18452TIP3   OH276846   0.923   2.060  26.032  0.0726  0.0353  0.1949
18452TIP3    H176847   0.987   2.032  25.967  1.5846  0.9966  1.2140
18452TIP3    H276848   0.939   2.004  26.107 -0.6736 -0.0819  0.2753
18453TIP3   OH276849   0.347   1.190  16.102  0.5590  0.5201  0.3146
18453TIP3    H176850   0.352   1.198  16.197 -1.6407  0.8714  0.4404
18453TIP3    H276851   0.307   1.272  16.072 -1.2580 -0.6384 -0.6202
18454TIP3   OH276852   1.761   0.753 106.657  0.3548  0.4709 -0.0988
18454TIP3    H176853   1.743   0.795 106.573  1.8994  0.3027 -0.5409
18454TIP3    H276854   1.815   0.817 106.705 -0.8821  0.7555  0.9658
18455TIP3   OH276855   1.715   1.809 110.400  0.1718 -0.1164 -0.5641
18455TIP3    H176856   1.787   1.784 110.459 -2.7623 -0.7846  3.1383
18455TIP3    H276857   1.725   1.904 110.390  0.7519  0.0440  1.1894
18456TIP3   OH276858   1.068   2.297  74.339 -0.1029  0.6434  0.2692
18456TIP3    H176859   1.117   2.215  74.325 -0.1090  0.4023  1.5509
18456TIP3    H276860   1.097   2.328  74.425  0.1770  2.1980 -0.3544
18457TIP3   OH276861   0.236   1.757  35.494 -0.2060 -0.2254  0.6612
18457TIP3    H176862   0.212   1.847  35.513 -0.1111 -0.1408  0.3776
18457TIP3    H276863   0.276   1.760  35.407  0.2936 -0.4510  0.8796
18458TIP3   OH276864   1.748   0.756  28.404 -0.2745  0.3609  0.1512
18458TIP3    H176865   1.840   0.747  28.379 -0.5462 -1.7957 -0.3220
18458TIP3    H276866   1.717   0.832  28.355  0.4580 -0.8498 -2.4014
18459TIP3   OH276867   0.993   0.742 102.467 -0.2101 -0.3440  0.1646
18459TIP3    H176868   0.934   0.671 102.493 -2.2546  1.1748 -0.1517
18459TIP3    H276869   0.999   0.798 102.544  1.7547 -1.0144  0.5639
18460TIP3   OH276870   1.546   2.646 100.862 -0.3893 -0.5837  0.1256
18460TIP3    H176871   1.554   2.613 100.951  1.3597 -0.1710  0.1782
18460TIP3    H276872   1.514   2.572 100.811 -0.4190 -1.1286  0.9292
18461TIP3   OH276873   2.497   2.672 101.708 -0.6844  0.6471  0.8191
18461TIP3    H176874   2.416   2.699 101.664 -0.0055  0.7420 -0.4117
18461TIP3    H276875   2.535   2.753 101.740  0.2994  0.9561 -1.0430
18462TIP3   OH276876   0.635   1.030   9.233  0.2290 -0.1411 -0.1593
18462TIP3    H176877   0.707   1.060   9.177 -0.4212  1.5426 -0.1323
18462TIP3    H276878   0.558   1.076   9.201 -0.6893 -1.2639  0.3671
18463TIP3   OH276879   2.363   1.105   6.116 -0.0183 -0.3145 -0.0944
18463TIP3    H176880   2.401   1.191   6.099  1.1482 -0.7765  0.0673
18463TIP3    H276881   2.347   1.069   6.028  1.6889 -0.8541 -0.2108
18464TIP3   OH276882   2.505   1.042   5.282 -0.1037  0.3856 -0.0222
18464TIP3    H176883   2.548   1.017   5.364 -0.5713  0.5680  0.2762
18464TIP3    H276884   2.418   1.071   5.308 -0.7734 -0.9461 -0.7405
18465TIP3   OH276885   2.215   2.241  42.555  0.3899 -0.4407  0.1788
18465TIP3    H176886   2.141   2.218  42.612  1.0882  0.7392  1.6268
18465TIP3    H276887   2.184   2.317  42.506  0.1888 -0.7700 -0.2153
18466TIP3   OH276888   1.041   2.584  23.471  0.2412 -0.4472  0.1347
18466TIP3    H176889   1.081   2.608  23.388  0.7276  0.9037  0.7299
18466TIP3    H276890   1.110   2.597  23.536  0.2518 -2.6565  0.6404
18467TIP3   OH276891   1.185   0.282  94.001  0.2951 -0.0496  0.4327
18467TIP3    H176892   1.236   0.228  93.940 -2.0326 -0.6532 -1.0880
18467TIP3    H276893   1.215   0.371  93.985  1.5793 -0.4828  0.3345
18468TIP3   OH276894   0.458   1.962  76.925 -0.1962 -0.7598  0.1135
18468TIP3    H176895   0.404   2.021  76.873  1.2340  1.7813  1.3593
18468TIP3    H276896   0.434   1.874  76.894 -2.6577  0.4010 -1.5730
18469TIP3   OH276897   0.034   2.642   7.900  0.4445 -0.8887 -0.1785
18469TIP3    H176898   0.078   2.557   7.892  1.9918 -0.0424 -1.3526
18469TIP3    H276899   0.052   2.670   7.989  1.6108 -0.9530 -0.3755
18470TIP3   OH276900   0.036   1.119  78.363 -0.4931 -0.1283  0.1900
18470TIP3    H176901   0.025   1.026  78.379 -1.1649 -0.3238 -1.2398
18470TIP3    H276902  -0.050   1.157  78.382 -0.3073  0.1465  0.4794
18471TIP3   OH276903   0.227   1.280  22.036 -0.3635 -0.4043  0.0308
18471TIP3    H176904   0.245   1.187  22.049 -0.3388 -0.4222 -0.1305
18471TIP3    H276905   0.155   1.283  21.973 -0.2498 -0.3111 -0.0966
18472TIP3   OH276906   0.261   0.602  80.011  0.0166  0.6105 -0.5506
18472TIP3    H176907   0.276   0.694  80.035  0.8803  0.5859 -0.9552
18472TIP3    H276908   0.244   0.604  79.917  1.9852  0.1834 -0.9547
18473TIP3   OH276909   2.263   1.072   0.355 -0.1020  0.0158 -0.0563
18473TIP3    H176910   2.261   1.164   0.380  0.0570  0.1217 -0.4180
18473TIP3    H276911   2.172   1.052   0.332 -0.2226 -0.0471  0.4678
18474TIP3   OH276912   1.412   0.149 111.182 -0.5059  0.1739 -0.2444
18474TIP3    H176913   1.500   0.116 111.165 -0.2579  0.2607  0.7883
18474TIP3    H276914   1.420   0.244 111.172 -0.4652  0.1850 -0.1169
18475TIP3   OH276915   1.761   1.398  30.938 -0.2107 -0.0902 -0.2261
18475TIP3    H176916   1.671   1.393  30.970 -0.8902 -0.7039 -2.0929
18475TIP3    H276917   1.814   1.411  31.017 -2.0272  1.8757  0.7688
18476TIP3   OH276918   0.272   0.823 101.581 -0.0365 -0.2011  0.1861
18476TIP3    H176919   0.355   0.836 101.627 -0.2003 -1.1007  0.7530
18476TIP3    H276920   0.244   0.734 101.605 -0.6480 -0.2966 -0.8211
18477TIP3   OH276921   1.280   1.109  80.511  0.1780 -0.2809 -0.3154
18477TIP3    H176922   1.260   1.175  80.445  1.8197 -1.0367 -1.6533
18477TIP3    H276923   1.302   1.031  80.460  0.0156 -1.3411  1.1811
18478TIP3   OH276924   2.007   0.553 108.137 -0.1528  0.5333  0.2869
18478TIP3    H176925   1.935   0.535 108.198 -0.2033 -1.2677 -0.2558
18478TIP3    H276926   2.073   0.486 108.158  0.1888  0.4394 -1.0420
18479TIP3   OH276927   1.569   0.583  10.577  0.4885  0.2117 -0.7561
18479TIP3    H176928   1.513   0.507  10.584  0.1831  0.3522 -1.5648
18479TIP3    H276929   1.544   0.639  10.650 -0.7685  0.4879 -1.3703
18480TIP3   OH276930   1.696   1.889 104.193 -0.0846 -0.5538  0.1302
18480TIP3    H176931   1.676   1.968 104.243  1.3775 -0.3329  0.4030
18480TIP3    H276932   1.610   1.858 104.163 -0.5933  2.3272 -1.8533
18481TIP3   OH276933   0.054   1.629  31.544  0.0878 -0.0033 -0.2197
18481TIP3    H176934   0.028   1.541  31.570  0.3684  0.3051  1.1884
18481TIP3    H276935   0.015   1.686  31.610 -1.2609  1.1009 -1.8595
18482TIP3   OH276936   0.677   2.104  20.750 -0.1179  0.0897  0.0820
18482TIP3    H176937   0.738   2.146  20.689 -1.0383  0.1906 -0.8043
18482TIP3    H276938   0.635   2.036  20.697 -0.8953  0.1407  0.6245
18483TIP3   OH276939   2.536   0.434 102.143 -0.0325  0.2482  0.1879
18483TIP3    H176940   2.614   0.455 102.193  0.8224 -0.2257 -0.9005
18483TIP3    H276941   2.528   0.507 102.081 -0.1612  0.0473 -0.0347
18484TIP3   OH276942   0.905   2.521  18.132  0.1357  0.1363  0.1548
18484TIP3    H176943   0.830   2.474  18.095 -0.1460  0.7771 -0.1053
18484TIP3    H276944   0.869   2.605  18.159  0.2179 -0.4918  2.3749
18485TIP3   OH276945   1.627   1.403 100.870 -0.0289  0.4045  0.0978
18485TIP3    H176946   1.582   1.396 100.786  0.0997  0.8888 -0.0158
18485TIP3    H276947   1.573   1.352 100.931  0.7229 -1.3288 -0.6108
18486TIP3   OH276948   0.890   1.481 104.907 -0.0584 -0.0132 -0.1798
18486TIP3    H176949   0.959   1.427 104.947 -0.8924 -0.9458  0.0326
18486TIP3    H276950   0.934   1.525 104.834  0.1668 -2.7215 -1.7931
18487TIP3   OH276951   0.083   1.265  94.239 -0.2320 -0.0485  0.8929
18487TIP3    H176952   0.176   1.285  94.251 -0.1702 -0.3969  1.0146
18487TIP3    H276953   0.076   1.172  94.261 -0.4360 -0.2607 -0.0539
18488TIP3   OH276954   0.477   1.631 104.250  0.2833  0.1491  0.1477
18488TIP3    H176955   0.463   1.543 104.214 -0.9078  0.4278 -0.1124
18488TIP3    H276956   0.423   1.688 104.195 -0.9396  0.7039  1.8236
18489TIP3   OH276957   1.085   2.401  87.305 -0.0948  0.1331  0.7746
18489TIP3    H176958   1.078   2.386  87.211 -0.5767  0.0220  0.8226
18489TIP3    H276959   1.003   2.365  87.341 -0.3128  0.9596  1.1386
18490TIP3   OH276960   0.460   1.943  24.920 -0.4686 -0.0136 -0.1017
18490TIP3    H176961   0.439   1.854  24.950 -1.9774  0.0611 -0.8466
18490TIP3    H276962   0.463   1.995  25.000  1.9160 -0.9619  0.5121
18491TIP3   OH276963   2.591   2.077  91.872 -0.2374 -0.2198  0.8597
18491TIP3    H176964   2.630   2.000  91.830 -1.3217 -0.4307  0.2147
18491TIP3    H276965   2.544   2.121  91.801  0.6769  1.2651  1.1250
18492TIP3   OH276966   0.196   1.215  24.949  0.0471  0.2934 -0.1637
18492TIP3    H176967   0.181   1.121  24.950 -1.2717  0.4325  2.5591
18492TIP3    H276968   0.121   1.251  24.902 -1.4462  0.1267  1.9469
18493TIP3   OH276969   0.177   2.379  30.646 -0.2487 -0.1055 -0.3892
18493TIP3    H176970   0.155   2.399  30.555 -1.2714 -1.6046 -0.5132
18493TIP3    H276971   0.112   2.427  30.697  1.6969  2.6029 -0.2551
18494TIP3   OH276972   1.195   0.064  22.915 -0.3417 -0.1855  0.4707
18494TIP3    H176973   1.118   0.060  22.971 -1.0070 -1.4009 -0.4802
18494TIP3    H276974   1.255  -0.001  22.952 -0.5862 -0.6460  0.0670
18495TIP3   OH276975   2.045   2.074  83.016  0.1762 -0.0555  0.4465
18495TIP3    H176976   2.106   2.108  82.950  0.8192 -1.0439  0.5061
18495TIP3    H276977   2.099   2.016  83.070 -0.7253 -0.6002  0.7731
18496TIP3   OH276978   1.496   1.549  74.620  0.1555  0.2913 -0.0274
18496TIP3    H176979   1.403   1.543  74.642  0.8541  0.3279  3.7027
18496TIP3    H276980   1.507   1.636  74.583 -0.8684  1.7166  2.7579
18497TIP3   OH276981   1.754   2.330  20.203 -0.5124 -0.3499 -0.3177
18497TIP3    H176982   1.748   2.293  20.115 -1.0731 -0.2586 -0.3222
18497TIP3    H276983   1.733   2.257  20.261  1.0575 -0.7265 -0.1901
18498TIP3   OH276984   0.687   0.491  98.279  0.2543  0.3381 -0.0516
18498TIP3    H176985   0.781   0.481  98.290  0.1109  0.0497  0.9729
18498TIP3    H276986   0.666   0.572  98.325 -0.0405  0.2507 -0.0278
18499TIP3   OH276987   0.162   0.829 106.811  0.0721  0.0718 -0.2431
18499TIP3    H176988   0.195   0.914 106.840 -0.5008  0.0260  0.5722
18499TIP3    H276989   0.186   0.768 106.881 -0.1708 -0.2981 -0.4728
18500TIP3   OH276990   2.524   0.936 111.849 -0.1795 -0.3585 -0.0891
18500TIP3    H176991   2.464   0.951 111.922  0.5891  2.4119  0.0970
18500TIP3    H276992   2.479   0.873 111.793 -1.7354 -0.9255  1.7000
18501TIP3   OH276993   1.695   2.309   2.738  0.6035 -0.3503  0.0441
18501TIP3    H176994   1.731   2.395   2.721 -0.0293 -0.0329  0.2676
18501TIP3    H276995   1.607   2.326   2.771  0.6928 -1.0621  0.6643
18502TIP3   OH276996   0.648   2.051  14.082 -0.1516 -0.0993 -0.1536
18502TIP3    H176997   0.668   2.099  14.162 -0.2691 -1.3712  0.6778
18502TIP3    H276998   0.576   1.992  14.107 -0.1608 -0.5373 -1.1785
18503TIP3   OH276999   0.014   0.285  28.469 -0.2103 -0.0784 -0.5894
18503TIP3    H177000   0.107   0.275  28.487 -0.5781  0.5276  2.1049
18503TIP3    H277001   0.003   0.378  28.450 -0.4988  0.3024  1.2344
18504TIP3   OH277002   0.917   2.451  12.196  0.1044  0.5478  0.4598
18504TIP3    H177003   0.964   2.369  12.180 -1.8848 -0.4623 -0.6773
18504TIP3    H277004   0.965   2.516  12.144  0.7146 -0.2624 -0.0270
18505TIP3   OH277005   0.495   2.429  68.576 -0.1518 -0.4190  0.2207
18505TIP3    H177006   0.417   2.396  68.532 -0.5650 -0.0474  0.6680
18505TIP3    H277007   0.541   2.351  68.606  0.8384 -0.7878 -1.9983
18506TIP3   OH277008   1.774   0.233  90.469  0.1021 -0.1290 -0.0958
18506TIP3    H177009   1.716   0.242  90.544 -1.6470 -0.3738 -1.3775
18506TIP3    H277010   1.847   0.293  90.488 -1.7207  2.0588  0.4974
18507TIP3   OH277011   1.853   1.317  27.930 -0.1086  0.1210 -0.7444
18507TIP3    H177012   1.903   1.399  27.926  0.2774 -0.0605  0.1061
18507TIP3    H277013   1.859   1.281  27.842 -0.1194  0.9113 -1.0832
18508TIP3   OH277014   1.238   1.003  95.003 -0.1021  0.4570 -0.3180
18508TIP3    H177015   1.172   0.982  94.936 -1.0009  0.8038  0.4382
18508TIP3    H277016   1.295   0.926  95.005 -2.9026 -1.7610  1.8811
18509TIP3   OH277017   2.211   1.282  31.532 -0.0652 -0.0618 -0.5862
18509TIP3    H177018   2.186   1.209  31.475 -0.7174 -1.8028  1.7590
18509TIP3    H277019   2.273   1.244  31.594  0.5841  1.7251 -0.0729
18510TIP3   OH277020   2.065   2.314 101.135 -0.2681  0.3338 -0.0775
18510TIP3    H177021   2.009   2.391 101.126  0.7022  0.9329 -1.2862
18510TIP3    H277022   2.004   2.240 101.138 -1.1416  1.0064 -0.7130
18511TIP3   OH277023   2.491   2.022  97.461 -0.1063  0.0198  0.0668
18511TIP3    H177024   2.579   2.007  97.496  0.1030  1.6760  0.3545
18511TIP3    H277025   2.440   1.946  97.489  0.9953 -0.4925  0.7325
18512TIP3   OH277026   1.217   0.435   3.001  0.1034 -0.4733  0.2089
18512TIP3    H177027   1.269   0.406   3.076 -1.9286 -0.9262  1.5172
18512TIP3    H277028   1.245   0.378   2.930  0.2092 -1.8656  1.3122
18513TIP3   OH277029   2.182   0.042 111.594  0.1580 -0.1613 -0.0468
18513TIP3    H177030   2.173  -0.038 111.646  2.8385 -0.2827  0.3593
18513TIP3    H277031   2.108   0.096 111.620 -2.0001 -2.6144 -0.6347
18514TIP3   OH277032   0.889   2.349  29.541  0.0175 -0.4005 -0.5592
18514TIP3    H177033   0.893   2.349  29.636 -1.0843  0.2541 -0.5018
18514TIP3    H277034   0.912   2.439  29.516 -1.4646 -0.0784 -0.8099
18515TIP3   OH277035   1.301   0.292  11.236 -0.2224 -0.2901  0.1077
18515TIP3    H177036   1.241   0.320  11.305 -0.5850 -1.8902  0.4774
18515TIP3    H277037   1.383   0.272  11.282  0.2999  0.9325 -0.2631
18516TIP3   OH277038   0.488   1.877  95.003 -0.4628 -0.7132 -0.0389
18516TIP3    H177039   0.548   1.843  95.068  0.4716  1.4544  0.3126
18516TIP3    H277040   0.523   1.847  94.919 -0.2960 -1.4670  0.2908
18517TIP3   OH277041   1.721   1.625  14.427 -0.0250 -0.2422 -0.7906
18517TIP3    H177042   1.746   1.666  14.344  1.6882 -0.5553 -0.4737
18517TIP3    H277043   1.628   1.605  14.417 -0.4194  1.8475 -1.7167
18518TIP3   OH277044   2.339   2.307  13.278 -0.1031  0.0970 -0.2218
18518TIP3    H177045   2.284   2.247  13.228  0.0400  0.7858 -1.2289
18518TIP3    H277046   2.422   2.308  13.231  0.1169  0.5594  0.1759
18519TIP3   OH277047   0.655   0.075  19.726  0.1280 -0.3445 -0.8473
18519TIP3    H177048   0.675   0.127  19.804  0.3345  0.8731 -1.6718
18519TIP3    H277049   0.740   0.042  19.697  0.1507 -0.2203 -0.9282
18520TIP3   OH277050   1.060   1.789  51.691  0.4497 -0.9784 -0.3232
18520TIP3    H177051   1.121   1.789  51.765  1.4387 -1.1236 -1.1170
18520TIP3    H277052   0.974   1.782  51.731  0.9401 -0.6486  0.8352
18521TIP3   OH277053   1.456   1.583  82.086 -0.3037 -0.4741 -0.0831
18521TIP3    H177054   1.404   1.622  82.016 -0.7344  0.1158  0.5602
18521TIP3    H277055   1.464   1.491  82.061  0.6618 -0.0130 -1.5794
18522TIP3   OH277056   2.519   1.088  10.338 -0.1115 -0.1532 -0.1788
18522TIP3    H177057   2.592   1.115  10.393  1.7847 -0.1444 -2.5669
18522TIP3    H277058   2.490   1.005  10.376 -0.4611  0.9350  2.1693
18523TIP3   OH277059   2.042   1.373  16.915 -0.0269  0.4592  0.3203
18523TIP3    H177060   2.016   1.292  16.870 -1.0621  0.9734 -0.0457
18523TIP3    H277061   2.136   1.365  16.927 -0.0014 -0.4687 -0.3941
18524TIP3   OH277062   1.027   0.525  35.952 -0.0514 -0.3468 -0.7002
18524TIP3    H177063   1.040   0.517  35.858 -1.2021  0.8109 -0.9781
18524TIP3    H277064   1.000   0.616  35.965 -2.1981 -1.0807  0.4486
18525TIP3   OH277065   1.935   0.157  29.547  0.5295 -0.4995  0.0444
18525TIP3    H177066   1.903   0.085  29.602  0.7032 -0.6247 -0.0141
18525TIP3    H277067   1.857   0.201  29.516  0.3686 -1.5631 -1.1221
18526TIP3   OH277068   1.308   1.166   9.153  0.1519  0.2688  0.1608
18526TIP3    H177069   1.299   1.260   9.139 -0.3138  0.4453  1.4804
18526TIP3    H277070   1.251   1.147   9.228  1.3953 -0.7881  0.8943
18527TIP3   OH277071   1.906   1.772  34.128 -0.3491 -0.2635  0.4934
18527TIP3    H177072   1.936   1.777  34.218  1.0275 -0.7229  0.0895
18527TIP3    H277073   1.948   1.847  34.085  0.4636 -1.0577 -0.1431
18528TIP3   OH277074   0.114   0.058 109.764 -0.4945 -0.1588  0.2825
18528TIP3    H177075   0.097   0.033 109.674 -0.0395  0.9413 -0.1306
18528TIP3    H277076   0.028   0.069 109.803 -0.7060  0.3914 -0.3272
18529TIP3   OH277077   0.440   2.614  88.729  0.3157  0.3247  0.0481
18529TIP3    H177078   0.372   2.589  88.666 -0.6314 -0.1114  1.2190
18529TIP3    H277079   0.442   2.542  88.792  2.0434  0.2144 -0.0832
18530TIP3   OH277080   1.790   1.663   4.124 -0.7733 -0.5117  0.3030
18530TIP3    H177081   1.862   1.726   4.121 -1.6766  0.5393 -2.0187
18530TIP3    H277082   1.825   1.589   4.172  1.3073  0.6022  0.6354
18531TIP3   OH277083   1.743   2.283 102.617 -0.3978  0.1731 -0.1237
18531TIP3    H177084   1.667   2.283 102.558 -0.4479  0.7656 -0.0525
18531TIP3    H277085   1.789   2.365 102.598  0.9849 -0.7762 -1.1457
18532TIP3   OH277086   2.651   2.526   5.200 -0.6374  0.2976 -0.2131
18532TIP3    H177087   2.625   2.566   5.283  0.2203  1.0467 -0.2917
18532TIP3    H277088   2.643   2.596   5.136 -0.2244  0.0293 -0.5651
18533TIP3   OH277089   0.706   2.066  10.907  0.0494  0.3288 -0.1497
18533TIP3    H177090   0.762   2.141  10.925  0.4347 -0.4343  2.1509
18533TIP3    H277091   0.620   2.104  10.889  0.6924  1.3757 -1.1555
18534TIP3   OH277092   0.005   0.899  36.637 -0.0451 -0.1063  0.0694
18534TIP3    H177093  -0.065   0.952  36.597 -2.0596 -1.3993  1.6761
18534TIP3    H277094  -0.021   0.809  36.621  0.7794 -0.6239  1.4666
18535TIP3   OH277095   1.592   0.996  79.792 -0.1588 -0.1855  0.2153
18535TIP3    H177096   1.629   1.084  79.790  0.6089 -0.5082 -0.0302
18535TIP3    H277097   1.650   0.943  79.737 -1.7130 -0.4464 -1.2592
18536TIP3   OH277098   1.895   0.127  94.666  0.3639  0.3918  0.1322
18536TIP3    H177099   1.980   0.134  94.624 -0.5957 -1.3485 -2.2953
18536TIP3    H277100   1.853   0.211  94.648  0.5402  0.2237 -1.1670
18537TIP3   OH277101   2.056   1.918   3.096 -0.1871  1.0131  0.0642
18537TIP3    H177102   2.127   1.981   3.079  0.4056  0.4761  0.4973
18537TIP3    H277103   2.038   1.879   3.010  0.5524  0.6322  0.0765
18538TIP3   OH277104   0.638   1.464  22.671  0.1196 -0.2665 -0.5614
18538TIP3    H177105   0.640   1.536  22.734  0.8273 -1.5202  0.9091
18538TIP3    H277106   0.639   1.508  22.586 -3.0448  1.5541  0.1701
18539TIP3   OH277107   1.939   1.119  74.240  0.4380  0.0262 -0.3046
18539TIP3    H177108   1.871   1.085  74.298 -0.0363  1.0269 -0.2610
18539TIP3    H277109   1.897   1.128  74.155  0.0341  2.0814  0.0528
18540TIP3   OH277110   1.090   0.945 101.447  0.7434 -0.2598 -0.0770
18540TIP3    H177111   1.109   0.907 101.533  1.3466  0.9515  0.3514
18540TIP3    H277112   1.102   1.039 101.460 -1.3725  0.1794 -0.9095
18541TIP3   OH277113   0.491   1.797  79.554 -0.1576  0.2450 -0.4642
18541TIP3    H177114   0.454   1.792  79.642  0.0361 -1.2518 -0.4404
18541TIP3    H277115   0.420   1.833  79.500 -1.0495 -0.8833 -0.0842
18542TIP3   OH277116   2.533   1.905  95.306  0.3483  0.4491 -0.2353
18542TIP3    H177117   2.541   1.922  95.212  0.1950 -1.6585 -0.6778
18542TIP3    H277118   2.451   1.857  95.314  0.7581 -0.1034  0.8442
18543TIP3   OH277119   2.528   0.757  15.553 -0.1739 -0.2421  0.3028
18543TIP3    H177120   2.436   0.781  15.543 -0.0177 -0.0751 -0.8033
18543TIP3    H277121   2.526   0.677  15.605 -1.1001 -1.5887 -1.6883
18544TIP3   OH277122   1.298   1.768 101.318  0.2426  0.2112 -0.2630
18544TIP3    H177123   1.263   1.833 101.379 -0.7117 -1.6418  1.2585
18544TIP3    H277124   1.393   1.772 101.330  0.1760  1.0549  0.0613
18545TIP3   OH277125   0.610   2.274  73.309 -0.6561  0.3108 -0.1797
18545TIP3    H177126   0.590   2.364  73.333  0.3726  0.4133  0.3594
18545TIP3    H277127   0.668   2.243  73.379  3.0680  0.8336 -2.7282
18546TIP3   OH277128   1.524   2.593  32.797 -0.2556 -0.0546 -0.2952
18546TIP3    H177129   1.558   2.670  32.752 -0.5618 -0.2817 -0.9290
18546TIP3    H277130   1.525   2.524  32.731 -1.7191 -0.1347 -0.2781
18547TIP3   OH277131   2.624   2.032  19.564  0.3385  0.2528  0.3959
18547TIP3    H177132   2.680   1.972  19.612  1.3167 -0.0607 -1.0667
18547TIP3    H277133   2.548   1.979  19.539  1.8304 -0.8848 -2.1026
18548TIP3   OH277134   1.726   1.551  77.428 -0.7635 -0.6079 -0.2925
18548TIP3    H177135   1.729   1.516  77.339  1.3096  0.5554 -0.7296
18548TIP3    H277136   1.814   1.540  77.461  0.2478  4.3163 -0.6088
18549TIP3   OH277137   2.103   0.333  27.797 -0.1659  0.2785  0.0487
18549TIP3    H177138   2.073   0.410  27.748  0.0573 -0.1895 -0.8224
18549TIP3    H277139   2.197   0.331  27.783 -0.2463 -0.5040 -0.4392
18550TIP3   OH277140   1.650   2.262   6.338  0.2587 -0.1593 -0.2059
18550TIP3    H177141   1.736   2.300   6.322  0.0677  0.5361  0.3350
18550TIP3    H277142   1.667   2.185   6.393  0.5233  0.0869  0.0586
18551TIP3   OH277143   1.742   0.839   5.979 -0.2885  0.2227 -0.3852
18551TIP3    H177144   1.715   0.895   6.052 -0.9643 -0.4388 -0.1236
18551TIP3    H277145   1.669   0.844   5.917 -0.8554 -1.2429  0.1353
18552TIP3   OH277146   2.212   2.051  77.515 -0.0130 -0.0826 -0.1054
18552TIP3    H177147   2.223   2.021  77.605 -0.3725 -1.6860 -0.5770
18552TIP3    H277148   2.287   2.108  77.500  1.7391 -2.1751  0.2555
18553TIP3   OH277149   0.190   2.266  77.519 -0.1081 -0.0020  0.2353
18553TIP3    H177150   0.215   2.299  77.433 -0.5924 -0.0843  0.0574
18553TIP3    H277151   0.212   2.337  77.580  2.5521 -0.8569  0.4095
18554TIP3   OH277152   0.099   1.712   2.751  0.3569  0.1573  0.3514
18554TIP3    H177153   0.047   1.666   2.685  0.4172 -1.5339  1.4187
18554TIP3    H277154   0.187   1.674   2.743  0.8843  1.3885  0.0712
18555TIP3   OH277155   2.039   0.346  15.829  0.1679 -0.0154 -0.6030
18555TIP3    H177156   2.119   0.294  15.844  1.6913  1.8816 -1.7542
18555TIP3    H277157   2.070   0.428  15.792 -2.2035  1.5890  0.7348
18556TIP3   OH277158   0.779   0.735  83.797 -0.0932  0.0541  0.2367
18556TIP3    H177159   0.782   0.779  83.711  0.3780  1.3822  0.9005
18556TIP3    H277160   0.870   0.708  83.812 -0.1335  0.0244  0.4174
18557TIP3   OH277161   0.337   2.153 108.812 -0.2798 -0.3701  0.1538
18557TIP3    H177162   0.361   2.178 108.723 -0.0811 -1.5459 -0.1343
18557TIP3    H277163   0.279   2.223 108.841 -0.5904 -0.1208 -1.0158
18558TIP3   OH277164   1.834   2.496  87.094 -0.2507  0.2455 -0.6554
18558TIP3    H177165   1.849   2.420  87.038 -0.1121 -0.9060  0.8808
18558TIP3    H277166   1.914   2.549  87.084  0.3861 -0.6528 -0.4865
18559TIP3   OH277167   2.541   2.040   9.932 -0.1911 -0.1296  0.0429
18559TIP3    H177168   2.558   1.993   9.850 -0.5209 -0.0810 -0.0568
18559TIP3    H277169   2.470   2.101   9.910 -2.1151 -1.9141  1.0017
18560TIP3   OH277170   0.738   0.573  89.712 -0.0807  0.1008  0.1855
18560TIP3    H177171   0.701   0.562  89.624  1.2428 -1.0601 -0.2661
18560TIP3    H277172   0.831   0.590  89.697  0.1350  0.0425  1.3604
18561TIP3   OH277173   2.675   0.953 109.472 -0.0924  0.2400  0.5055
18561TIP3    H177174   2.599   0.989 109.518 -0.5660 -1.6759  1.3422
18561TIP3    H277175   2.643   0.871 109.434  1.4223 -0.3638  0.4434
18562TIP3   OH277176   1.822   2.262   7.497  0.1409  0.6563  0.0151
18562TIP3    H177177   1.771   2.301   7.569 -2.9508 -1.0590 -1.0661
18562TIP3    H277178   1.783   2.298   7.418  0.5771 -0.8069 -0.8939
18563TIP3   OH277179   1.542   0.245  19.502 -0.1825 -0.1636  0.4609
18563TIP3    H177180   1.496   0.184  19.444 -0.6447 -0.7381  1.4034
18563TIP3    H277181   1.635   0.222  19.492  0.2158  2.1670 -2.8064
18564TIP3   OH277182   1.268   1.399   6.401  0.2925 -0.0494 -0.7664
18564TIP3    H177183   1.247   1.478   6.451  1.1790  0.3183 -0.9450
18564TIP3    H277184   1.229   1.414   6.315  0.6359  0.3035 -0.8679
18565TIP3   OH277185   2.214   0.350 107.914 -0.0945 -0.4768 -0.5445
18565TIP3    H177186   2.251   0.273 107.871  0.4115 -1.0162  0.8097
18565TIP3    H277187   2.152   0.314 107.978  0.3162  0.2168  0.2615
18566TIP3   OH277188   0.293   1.977  77.174 -0.1425 -0.0000  0.0477
18566TIP3    H177189   0.311   1.991  77.267 -0.4299 -1.7036  0.3889
18566TIP3    H277190   0.371   2.010  77.129 -0.2568  1.4051  0.8309
18567TIP3   OH277191   1.148   0.211 108.245  0.0858  0.0883  0.0231
18567TIP3    H177192   1.127   0.301 108.271 -1.3652 -0.5806  1.2883
18567TIP3    H277193   1.097   0.196 108.166  2.1483  1.1123 -1.5906
18568TIP3   OH277194   1.341   2.478  19.549 -0.3375  0.1363  0.1955
18568TIP3    H177195   1.409   2.545  19.542 -1.2094  0.9081 -1.5008
18568TIP3    H277196   1.371   2.407  19.492 -1.4145  0.9446 -1.4477
18569TIP3   OH277197   2.217   1.485  15.583  0.2502  0.2677  0.2470
18569TIP3    H177198   2.169   1.554  15.630 -0.3920 -0.7273  1.0825
18569TIP3    H277199   2.153   1.416  15.569  0.8758 -0.1542 -0.6357
18570TIP3   OH277200   1.606   0.916  96.853  0.4442 -0.1641  0.2628
18570TIP3    H177201   1.605   0.998  96.902  1.5608  0.2354 -0.3491
18570TIP3    H277202   1.673   0.863  96.896  1.7008  0.3302 -1.0105
18571TIP3   OH277203   1.021   0.290  26.843  0.0126 -0.0775 -0.0574
18571TIP3    H177204   1.020   0.196  26.826  2.2271 -0.0400 -0.7185
18571TIP3    H277205   0.928   0.314  26.850 -0.6221 -2.1755 -0.5057
18572TIP3   OH277206   0.183   0.501   1.830 -0.1458 -0.2765  0.5036
18572TIP3    H177207   0.219   0.568   1.889 -1.1431  1.2898 -0.6095
18572TIP3    H277208   0.259   0.470   1.781  0.2146  0.6662  0.4386
18573TIP3   OH277209   1.013   0.423 102.765 -0.0590  0.7126 -0.1441
18573TIP3    H177210   0.987   0.512 102.788  1.3095  1.2139 -0.4329
18573TIP3    H277211   0.944   0.392 102.705 -1.4418  0.9174  1.2747
18574TIP3   OH277212   2.195   1.927  23.493 -0.4233  0.1786  0.6188
18574TIP3    H177213   2.226   1.992  23.431  0.7303 -0.5679  0.3746
18574TIP3    H277214   2.162   1.977  23.567  0.8432  1.0357  0.6191
18575TIP3   OH277215   2.293   1.812  74.760  0.1575 -0.1860  0.3463
18575TIP3    H177216   2.307   1.732  74.710 -1.2053 -0.4601  0.3558
18575TIP3    H277217   2.335   1.880  74.707 -1.2921 -0.4559 -1.2802
18576TIP3   OH277218   1.099   2.009   7.772 -0.4538  0.4059 -0.0478
18576TIP3    H177219   1.146   1.954   7.709 -2.3512  0.7765 -1.9036
18576TIP3    H277220   1.149   2.091   7.774  0.8783 -0.3835  0.7071
18577TIP3   OH277221   0.216   2.321  80.804  0.8914  0.2267 -0.4220
18577TIP3    H177222   0.187   2.287  80.889  2.4610  1.7804  0.8169
18577TIP3    H277223   0.269   2.250  80.767  0.9653 -0.1196  0.3262
18578TIP3   OH277224   1.371   1.693   5.332  0.2593  0.0784 -0.0145
18578TIP3    H177225   1.332   1.605   5.333 -1.2266  0.6739 -1.0784
18578TIP3    H277226   1.416   1.699   5.248 -1.7182  1.1048 -1.0943
18579TIP3   OH277227   2.392   2.381  85.333  0.3846  0.4955 -0.0613
18579TIP3    H177228   2.471   2.343  85.371  0.2594 -1.5188 -1.6678
18579TIP3    H277229   2.337   2.402  85.408  1.4390 -0.3398  0.9874
18580TIP3   OH277230   0.375   2.628  14.092  0.0586 -0.0717  0.1703
18580TIP3    H177231   0.425   2.696  14.048 -0.6561 -0.3758 -1.1816
18580TIP3    H277232   0.284   2.657  14.086 -0.1833 -0.7860  0.2143
18581TIP3   OH277233   1.052   2.421  14.637  0.0946  0.4404  0.3703
18581TIP3    H177234   1.095   2.419  14.723 -0.7261 -0.6442  0.7835
18581TIP3    H277235   1.038   2.328  14.616 -0.0082  0.7122 -0.7837
18582TIP3   OH277236   0.647   2.377  79.623 -0.3135 -0.5124  0.4013
18582TIP3    H177237   0.631   2.461  79.666  0.8655 -0.8863  1.6498
18582TIP3    H277238   0.742   2.375  79.608 -0.4974 -1.0611 -0.8449
18583TIP3   OH277239   2.453   1.370 100.934 -0.0972 -0.1064 -0.3565
18583TIP3    H177240   2.533   1.317 100.934 -1.6259 -2.5957 -0.9243
18583TIP3    H277241   2.384   1.309 100.962 -2.0721  1.5043 -1.4475
18584TIP3   OH277242   2.255   2.538  75.562 -0.2636  0.1424 -0.5231
18584TIP3    H177243   2.208   2.580  75.490 -1.3046  0.2697  0.2130
18584TIP3    H277244   2.189   2.485  75.606  0.4110 -0.0923  0.2223
18585TIP3   OH277245   1.358   0.291 101.177 -0.2081  0.5115 -0.4675
18585TIP3    H177246   1.408   0.268 101.098  0.9315  0.7426  0.1577
18585TIP3    H277247   1.348   0.386 101.171  2.3247  0.9587  0.9804
18586TIP3   OH277248   0.485   0.426  29.304 -0.3470  0.0366 -0.8118
18586TIP3    H177249   0.553   0.405  29.240  0.7875 -1.1715  0.7430
18586TIP3    H277250   0.514   0.509  29.343 -1.0849  0.8219 -1.8436
18587TIP3   OH277251   1.031   2.599  13.710 -0.7513 -0.4512  0.5015
18587TIP3    H177252   1.064   2.511  13.729 -1.2157 -0.7588 -0.0671
18587TIP3    H277253   0.989   2.627  13.791  0.1765 -0.3826  0.9753
18588TIP3   OH277254   0.464   0.194  30.307  0.5962 -0.1768 -0.2830
18588TIP3    H177255   0.525   0.173  30.378  0.5976  1.7286  0.3362
18588TIP3    H277256   0.500   0.149  30.230  0.9902 -1.6995  0.7431
18589TIP3   OH277257   0.544   2.179   3.370  0.0045 -0.4631  0.5167
18589TIP3    H177258   0.463   2.200   3.415  0.0269 -1.3501  0.9947
18589TIP3    H277259   0.611   2.227   3.418  0.0071 -1.2813  1.3686
18590TIP3   OH277260   1.567   1.928  89.367 -0.4418  0.3142 -0.2011
18590TIP3    H177261   1.602   1.963  89.285 -2.0055  1.0898 -0.5618
18590TIP3    H277262   1.486   1.977  89.382 -1.2257 -1.1965  0.7590
18591TIP3   OH277263   0.025   0.802  32.985 -0.2355 -0.1121 -0.4252
18591TIP3    H177264  -0.035   0.734  32.954 -2.1176  0.7310  1.1481
18591TIP3    H277265  -0.000   0.816  33.077  3.1449 -0.4766  0.6943
18592TIP3   OH277266   0.074   0.146  94.142  0.0355  0.3205  0.1408
18592TIP3    H177267  -0.009   0.143  94.094  0.3585 -0.5147 -0.3754
18592TIP3    H277268   0.067   0.077  94.207 -0.0109  0.8191  0.6789
18593TIP3   OH277269   1.238   2.630  80.115  0.3913 -0.5035 -0.5050
18593TIP3    H177270   1.313   2.596  80.166 -0.4957 -2.2317 -0.2709
18593TIP3    H277271   1.168   2.640  80.180  0.4662  1.4019 -0.6594
18594TIP3   OH277272   2.346   1.633  93.650 -0.0545 -0.3041 -0.1525
18594TIP3    H177273   2.320   1.542  93.659  0.7272 -0.4381  0.8981
18594TIP3    H277274   2.361   1.644  93.556  2.9270 -2.1763 -0.0176
18595TIP3   OH277275   1.599   0.408 104.406  0.1011 -0.0027 -0.4894
18595TIP3    H177276   1.508   0.435 104.420 -0.5642 -2.1057 -0.4488
18595TIP3    H277277   1.612   0.335 104.467  0.8022 -1.7471 -2.6008
18596TIP3   OH277278   0.993   0.380  77.733 -0.1088 -0.5157  0.3367
18596TIP3    H177279   1.056   0.450  77.744  1.6669 -1.8934 -0.5858
18596TIP3    H277280   0.910   0.425  77.714  0.9500  1.3120 -0.1890
18597TIP3   OH277281   0.470   0.399  26.465  0.2022  0.1779 -0.0308
18597TIP3    H177282   0.443   0.307  26.470  3.1944 -0.7546  1.3197
18597TIP3    H277283   0.471   0.428  26.556  0.8778  1.0404 -0.3050
18598TIP3   OH277284   1.527   0.511  11.625  0.6206 -0.5861  0.0716
18598TIP3    H177285   1.524   0.416  11.639 -1.0501 -0.6934 -0.7658
18598TIP3    H277286   1.496   0.523  11.535 -1.4181  0.8723  0.8980
18599TIP3   OH277287   1.877   1.992  93.872  0.3411  0.6438 -0.0797
18599TIP3    H177288   1.794   1.950  93.894 -0.0415  1.1437 -0.5304
18599TIP3    H277289   1.856   2.048  93.797  1.4696 -0.6091 -1.3979
18600TIP3   OH277290   1.621   0.239   5.502  0.0456 -0.1230  0.3162
18600TIP3    H177291   1.539   0.284   5.484 -0.1196 -0.2365  0.7747
18600TIP3    H277292   1.666   0.295   5.565 -0.1503 -0.5885  0.8709
18601TIP3   OH277293   2.105   1.689  14.451 -0.3481  0.3650  0.0522
18601TIP3    H177294   2.060   1.741  14.385  0.9263 -0.4960 -1.5950
18601TIP3    H277295   2.181   1.742  14.475 -0.8610  0.7190  0.9388
18602TIP3   OH277296   1.495   1.742 102.913  0.1415 -0.3083 -0.0822
18602TIP3    H177297   1.542   1.752 102.830  0.1420 -0.7540 -0.1438
18602TIP3    H277298   1.425   1.807 102.909  0.3089 -0.1404 -0.3135
18603TIP3   OH277299   1.606   2.519  11.385  0.0257  0.2563 -0.1250
18603TIP3    H177300   1.662   2.450  11.424  0.1695  0.0879 -0.6257
18603TIP3    H277301   1.645   2.535  11.299  0.0711  1.0660  0.0446
18604TIP3   OH277302   1.449   0.288  20.563  0.0059  0.0960 -0.1037
18604TIP3    H177303   1.384   0.358  20.553  0.1928  0.1263 -1.1673
18604TIP3    H277304   1.524   0.317  20.511  0.5005 -0.3966  0.3293
18605TIP3   OH277305   1.823   1.150  81.556 -0.0730  0.1569  0.0578
18605TIP3    H177306   1.897   1.181  81.609  0.5453  0.5982 -1.0068
18605TIP3    H277307   1.861   1.139  81.468 -0.5023 -2.7769  0.1681
18606TIP3   OH277308   0.856   1.766  12.009 -0.2071  0.0790  0.1527
18606TIP3    H177309   0.773   1.772  12.056 -1.1706 -1.5998 -1.2489
18606TIP3    H277310   0.845   1.821  11.932 -0.2120 -0.5132 -0.2780
18607TIP3   OH277311   0.340   0.179 109.473  0.1863  0.2442 -0.1203
18607TIP3    H177312   0.337   0.199 109.566  0.1704  0.1521 -0.1027
18607TIP3    H277313   0.263   0.223 109.437 -0.2563 -0.3933  0.0348
18608TIP3   OH277314   0.604   1.870 107.999  0.1279  0.2697  0.0924
18608TIP3    H177315   0.696   1.881 107.975  0.1367 -0.0611 -0.0188
18608TIP3    H277316   0.584   1.779 107.980 -0.4895  0.5746 -0.8129
18609TIP3   OH277317   2.353   1.518   0.512  0.2527  0.2168 -0.0336
18609TIP3    H177318   2.306   1.580   0.457  0.4692  0.6978  0.3210
18609TIP3    H277319   2.433   1.563   0.538 -0.2830  0.3890  1.4596
18610TIP3   OH277320   2.380   2.091  28.772  0.0142  0.2496 -0.5286
18610TIP3    H177321   2.395   2.183  28.752  3.2992  0.4440  2.0173
18610TIP3    H277322   2.424   2.043  28.702  2.7030  0.7687  0.7058
18611TIP3   OH277323   2.371   1.164  95.163 -0.5056  0.7309 -0.3098
18611TIP3    H177324   2.332   1.076  95.168  0.8983  0.1321  1.1035
18611TIP3    H277325   2.368   1.187  95.071  0.5276 -1.5036 -0.9518
18612TIP3   OH277326   1.475   0.992  95.793 -0.1337  0.1836  0.1213
18612TIP3    H177327   1.501   0.998  95.701  0.9921  1.5847  0.4865
18612TIP3    H277328   1.518   1.067  95.835 -0.7670 -0.3206  1.7545
18613TIP3   OH277329   0.564   2.241 107.309 -0.2941  0.3883 -0.3361
18613TIP3    H177330   0.643   2.188 107.305  0.0599  0.9032 -0.3784
18613TIP3    H277331   0.597   2.331 107.314 -0.8445  0.5166  1.5597
18614TIP3   OH277332   0.693   1.717  10.291 -0.8363 -0.6571 -0.6683
18614TIP3    H177333   0.704   1.770  10.211  0.9926 -1.3435 -0.9146
18614TIP3    H277334   0.721   1.776  10.362 -1.6612 -0.3279 -0.6031
18615TIP3   OH277335   2.154   2.118  92.195  0.5347  0.0602  0.5312
18615TIP3    H177336   2.108   2.117  92.111  1.4999 -0.0903 -0.0260
18615TIP3    H277337   2.097   2.070  92.255  0.3382 -0.8120 -0.3338
18616TIP3   OH277338   1.520   0.568  25.322 -0.2082 -0.0326  0.1967
18616TIP3    H177339   1.496   0.655  25.291 -1.7345 -0.6268 -0.3619
18616TIP3    H277340   1.614   0.574  25.341  0.3729  0.9076 -2.6178
18617TIP3   OH277341   2.503   1.965 101.701 -0.5189 -0.0427 -0.4607
18617TIP3    H177342   2.476   1.939 101.613  0.3108 -1.2817 -0.3825
18617TIP3    H277343   2.437   1.928 101.759 -0.2107 -0.6000 -0.4602
18618TIP3   OH277344   2.189   2.598  41.845  0.0657 -0.1034 -0.6006
18618TIP3    H177345   2.193   2.507  41.814 -0.7018 -0.5385  0.5145
18618TIP3    H277346   2.096   2.616  41.857  0.2940  0.1365  1.0793
18619TIP3   OH277347   0.001   2.513  91.427  0.4960  0.2587 -0.1426
18619TIP3    H177348   0.024   2.601  91.457  1.0110  0.4610 -1.0819
18619TIP3    H277349   0.063   2.495  91.356  1.5561 -1.5863  1.1810
18620TIP3   OH277350   1.776   0.960  28.598  0.2096 -0.4518 -0.0906
18620TIP3    H177351   1.794   0.870  28.571  1.4865 -0.0214 -0.7551
18620TIP3    H277352   1.787   0.959  28.694 -0.1892 -1.0768 -0.0454
18621TIP3   OH277353   2.372   1.089  20.767 -0.1282  0.3536  0.1766
18621TIP3    H177354   2.388   1.021  20.701  0.6788  0.3801  0.3464
18621TIP3    H277355   2.295   1.135  20.734  1.2796  1.5129 -1.7178
18622TIP3   OH277356   0.741   0.807  63.843  0.9880  0.0802  0.2708
18622TIP3    H177357   0.701   0.762  63.917 -3.0460  1.1085 -1.0613
18622TIP3    H277358   0.689   0.887  63.831  2.4265  0.7284 -2.7339
18623TIP3   OH277359   1.892   0.962   8.260 -0.1189 -0.4114 -0.1411
18623TIP3    H177360   1.816   0.995   8.212 -0.5913 -0.3379  0.6510
18623TIP3    H277361   1.896   0.869   8.238 -1.1876 -0.6905  0.7943
18624TIP3   OH277362   1.856   2.282 104.951  0.0725  0.0415  0.3269
18624TIP3    H177363   1.905   2.234 104.883 -1.4198 -0.9485 -0.1031
18624TIP3    H277364   1.844   2.218 105.021  2.0371  1.2080  1.8076
18625TIP3   OH277365   0.065   0.590   9.672  0.5672 -0.0779 -0.4038
18625TIP3    H177366   0.123   0.568   9.599  1.2915 -1.3730  0.5127
18625TIP3    H277367   0.054   0.508   9.720  0.9895  0.9315  1.5385
18626TIP3   OH277368   2.513   2.614  13.677 -0.0576  0.4076  0.6009
18626TIP3    H177369   2.527   2.642  13.586  2.2910 -0.0912  0.7425
18626TIP3    H277370   2.523   2.693  13.729 -0.2179  0.4918  0.5023
18627TIP3   OH277371   2.451   1.234   7.419  0.7263  0.2565  0.0523
18627TIP3    H177372   2.397   1.231   7.341  0.8668 -1.6716 -0.0205
18627TIP3    H277373   2.392   1.211   7.491  0.8518  0.9049  0.3786
18628TIP3   OH277374   0.303   1.878  18.932 -0.0925  0.0433 -0.5090
18628TIP3    H177375   0.238   1.840  18.990  1.3030  0.4958  1.4460
18628TIP3    H277376   0.272   1.857  18.844 -2.8467  0.2579  0.3251
18629TIP3   OH277377   0.157   0.683  84.629  0.2569  0.2148  0.3327
18629TIP3    H177378   0.217   0.756  84.644  1.8318 -0.9052 -0.2728
18629TIP3    H277379   0.200   0.608  84.670 -0.7211 -0.6401 -0.1673
18630TIP3   OH277380   0.648   1.515 112.201 -0.2473 -0.1062 -0.3311
18630TIP3    H177381   0.708   1.441 112.191 -0.2464 -0.1960  0.2807
18630TIP3    H277382   0.673   1.555 112.284 -1.2303 -0.3298  0.0949
18631TIP3   OH277383   0.585   1.467  76.089 -0.8331 -0.5896 -0.1392
18631TIP3    H177384   0.572   1.390  76.034 -0.9051 -1.5201  1.1559
18631TIP3    H277385   0.678   1.489  76.078 -1.1580  0.1264 -1.7314
18632TIP3   OH277386   0.243   1.823  22.271  0.1347 -0.4401 -0.1724
18632TIP3    H177387   0.236   1.799  22.178 -0.0967 -0.9770 -0.0219
18632TIP3    H277388   0.175   1.771  22.314  1.4695 -1.6321  0.5722
18633TIP3   OH277389   0.566   0.313  99.401  0.2547 -0.0080 -0.3385
18633TIP3    H177390   0.619   0.247  99.446  0.3225  0.7685  0.7758
18633TIP3    H277391   0.480   0.272  99.392  0.4279 -0.4322 -0.0994
18634TIP3   OH277392   2.083   2.623  87.104  0.2794  0.2524 -0.9471
18634TIP3    H177393   2.120   2.541  87.136 -2.4476 -0.5935  0.4042
18634TIP3    H277394   2.117   2.690  87.163  1.4167 -0.0926 -1.1886
18635TIP3   OH277395   2.575   1.112  21.393 -0.5302 -0.2929 -0.9097
18635TIP3    H177396   2.501   1.071  21.438 -1.7404  1.2967 -1.3052
18635TIP3    H277397   2.533   1.175  21.333  1.1379  0.1317 -1.6736
18636TIP3   OH277398   1.831   1.794   6.916 -0.4469 -0.2275 -0.1436
18636TIP3    H177399   1.774   1.722   6.888 -0.8144 -0.1809  0.4541
18636TIP3    H277400   1.872   1.762   6.997  0.2297 -0.1822 -0.4631
18637TIP3   OH277401   1.643   0.728  79.243 -0.0276 -0.2294 -0.0482
18637TIP3    H177402   1.598   0.806  79.210 -1.5482 -1.6756 -1.5889
18637TIP3    H277403   1.735   0.751  79.242 -0.5366  2.3595  1.8481
18638TIP3   OH277404   2.354   0.713  35.020  0.5203 -0.4428  0.4204
18638TIP3    H177405   2.332   0.659  35.096 -1.0874 -1.6578 -0.8335
18638TIP3    H277406   2.366   0.651  34.948  1.1267  0.7248 -0.5236
18639TIP3   OH277407   0.263   0.783  31.751 -0.3036  0.8514 -0.2860
18639TIP3    H177408   0.322   0.714  31.720  0.5675  0.1642  2.5407
18639TIP3    H277409   0.321   0.855  31.775 -0.3807  0.0653  2.7963
18640TIP3   OH277410   1.249   2.470  32.790 -0.3491  0.0693  0.6571
18640TIP3    H177411   1.274   2.431  32.706  0.5082 -0.6595  1.2307
18640TIP3    H277412   1.309   2.544  32.801  0.1806 -0.4140  1.0627
18641TIP3   OH277413   2.333   1.969   1.494  0.2394 -0.3057 -0.1839
18641TIP3    H177414   2.346   2.063   1.482 -0.4909 -0.2039 -0.2402
18641TIP3    H277415   2.286   1.962   1.577  0.7765 -0.6643  0.0993
18642TIP3   OH277416   0.444   1.468  13.313  0.5965 -0.7179  0.6165
18642TIP3    H177417   0.464   1.549  13.359  0.3262 -0.3547  0.1031
18642TIP3    H277418   0.404   1.496  13.230 -0.5302 -1.3865  0.9139
18643TIP3   OH277419   0.430   2.582  10.444 -0.4456 -0.1834  0.7044
18643TIP3    H177420   0.344   2.547  10.468 -0.6388 -0.7798 -0.7348
18643TIP3    H277421   0.492   2.512  10.464 -0.1198  0.5961  2.6560
18644TIP3   OH277422   0.745   1.012   0.012 -0.2913 -0.3463 -0.1201
18644TIP3    H177423   0.735   0.926  -0.028 -1.3820  0.1645 -1.0244
18644TIP3    H277424   0.741   0.996   0.106  0.9702 -1.4268 -0.2299
18645TIP3   OH277425   1.775   0.288  79.290 -0.7870 -0.4205  0.5958
18645TIP3    H177426   1.710   0.250  79.230  0.1534  0.9622 -1.4096
18645TIP3    H277427   1.735   0.369  79.321  0.3076  1.0297 -1.5424
18646TIP3   OH277428   0.649   1.261  98.556 -0.5211 -0.0695  0.0548
18646TIP3    H177429   0.570   1.305  98.524 -0.3640  0.7588  0.7674
18646TIP3    H277430   0.719   1.296  98.502 -0.4026  0.5508  0.5897
18647TIP3   OH277431   1.855   2.211  25.396 -0.2072 -0.6199 -0.2100
18647TIP3    H177432   1.792   2.199  25.467 -0.6052 -1.0824 -0.6315
18647TIP3    H277433   1.889   2.123  25.379  0.8265 -0.3309  0.2476
18648TIP3   OH277434   0.718   1.506  22.407 -0.0687  0.3648  0.8156
18648TIP3    H177435   0.810   1.527  22.424 -0.0911  0.4645  0.8158
18648TIP3    H277436   0.720   1.417  22.373 -0.0354  0.1054  1.4702
18649TIP3   OH277437   0.413   2.055  99.890  0.2409  0.3116 -0.2726
18649TIP3    H177438   0.405   1.989  99.821  0.5325  1.1598 -1.1370
18649TIP3    H277439   0.465   2.125  99.851  1.7164  0.1569  1.2983
18650TIP3   OH277440   0.368   0.793 105.756  0.1493  0.6307 -0.0389
18650TIP3    H177441   0.287   0.762 105.796 -0.6711  0.7180 -1.5648
18650TIP3    H277442   0.358   0.888 105.750  0.1721  0.6044 -0.5972
18651TIP3   OH277443   0.079   0.953 102.616  0.1962  0.6466  0.3253
18651TIP3    H177444  -0.003   0.980 102.574  0.8464  0.4289 -1.1494
18651TIP3    H277445   0.052   0.911 102.698 -1.0479  2.2978  0.8114
18652TIP3   OH277446   1.758   0.391  34.378 -0.7688  0.6220  0.5986
18652TIP3    H177447   1.662   0.382  34.379 -0.7099 -0.0507  0.7417
18652TIP3    H277448   1.790   0.302  34.393 -0.1094  0.4792 -1.4147
18653TIP3   OH277449   0.446   0.452  52.129  0.5140  0.0194  0.5409
18653TIP3    H177450   0.459   0.546  52.121 -0.1416  0.0761  0.1213
18653TIP3    H277451   0.421   0.423  52.041  1.2698 -0.6402  0.5268
18654TIP3   OH277452   0.377   2.134  67.184 -0.2446  1.2662  0.0341
18654TIP3    H177453   0.428   2.163  67.259 -0.9225  3.0413 -0.1316
18654TIP3    H277454   0.286   2.146  67.210 -0.7139 -2.3191  0.5094
18655TIP3   OH277455   2.021   1.300 102.078  0.2169  0.0968  0.0268
18655TIP3    H177456   2.062   1.354 102.147 -0.3295 -0.8579  1.1360
18655TIP3    H277457   1.936   1.276 102.115  0.4270 -1.4634 -0.4644
18656TIP3   OH277458   0.614   0.076  28.858  0.3243  0.0150 -0.3618
18656TIP3    H177459   0.692   0.132  28.861  0.6797 -0.4185 -1.2496
18656TIP3    H277460   0.645  -0.006  28.821  0.2665 -1.6142  2.8864
18657TIP3   OH277461   0.477   1.111  93.404  0.1973 -0.3094  0.8691
18657TIP3    H177462   0.492   1.134  93.312  1.2020  1.1589  1.3664
18657TIP3    H277463   0.382   1.106  93.413 -0.0556  2.2312  0.3323
18658TIP3   OH277464   0.200   0.565  64.427 -0.1721  0.3858  0.1421
18658TIP3    H177465   0.130   0.618  64.465 -2.5838 -1.6758 -1.1071
18658TIP3    H277466   0.175   0.475  64.446  0.5576 -0.5598 -2.8247
18659TIP3   OH277467   1.793   1.612  31.239 -0.1351  0.3270 -0.3782
18659TIP3    H177468   1.780   1.517  31.235 -0.0599  0.2789  0.2843
18659TIP3    H277469   1.704   1.649  31.234 -0.4766  0.0833  2.1695
18660TIP3   OH277470   2.609   0.325  36.070 -0.2312 -0.3808 -0.6268
18660TIP3    H177471   2.619   0.350  35.978 -0.2160 -0.2448 -0.5883
18660TIP3    H277472   2.560   0.397  36.109 -1.8260 -1.2729 -0.9186
18661TIP3   OH277473   0.629   2.539  89.652  0.3871 -0.2751  0.0676
18661TIP3    H177474   0.566   2.548  89.724 -4.5225 -1.9487 -3.4381
18661TIP3    H277475   0.645   2.629  89.623  0.2088  0.2457  1.4819
18662TIP3   OH277476   0.836   2.282  92.275  0.5314  0.1679  0.4925
18662TIP3    H177477   0.781   2.217  92.319 -1.4766 -0.9200 -3.1979
18662TIP3    H277478   0.907   2.231  92.237 -0.7147  0.0467 -1.8835
18663TIP3   OH277479   1.884   0.717 103.731 -0.0456  0.0130  0.2878
18663TIP3    H177480   1.839   0.642 103.769 -1.9028  0.9277  0.0034
18663TIP3    H277481   1.850   0.792 103.780  1.6847  0.7169  0.4910
18664TIP3   OH277482   2.637   2.383  97.642 -0.1379  0.4505  0.0804
18664TIP3    H177483   2.606   2.327  97.713 -1.7415  0.6409 -0.4412
18664TIP3    H277484   2.675   2.459  97.687  1.0247 -0.4920  0.7588
18665TIP3   OH277485   2.457   0.056   3.274 -0.1632 -0.5109  0.1484
18665TIP3    H177486   2.540   0.101   3.261 -0.4397  0.1224  0.4866
18665TIP3    H277487   2.454   0.037   3.368 -0.2021 -0.9183  0.0629
18666TIP3   OH277488   0.460   1.771 106.908 -0.3006  0.1045 -0.1358
18666TIP3    H177489   0.430   1.849 106.862 -0.3032 -0.4907 -1.1694
18666TIP3    H277490   0.380   1.727 106.938 -0.3049  0.3976  0.2909
18667TIP3   OH277491   2.226   1.576  19.569  0.3945 -0.3287  0.2720
18667TIP3    H177492   2.164   1.601  19.637  1.5463 -0.5481  1.4497
18667TIP3    H277493   2.180   1.509  19.518 -0.7095  0.2734  0.4481
18668TIP3   OH277494   2.254   1.056 108.410 -0.3298  0.1833  0.0939
18668TIP3    H177495   2.206   1.131 108.377 -0.5005 -0.2936 -0.7668
18668TIP3    H277496   2.211   1.036 108.494 -1.7525 -0.3124 -0.7198
18669TIP3   OH277497   0.374   1.105  84.461 -0.4020  0.6545 -0.4309
18669TIP3    H177498   0.361   1.029  84.405 -2.1305 -0.7188  1.6667
18669TIP3    H277499   0.367   1.180  84.403  2.6574 -0.6863 -2.8406
18670TIP3   OH277500   2.178   0.330  35.463 -0.9774  0.4515 -0.1110
18670TIP3    H177501   2.131   0.251  35.436  0.1769  0.0812 -1.1007
18670TIP3    H277502   2.125   0.402  35.428 -0.5228  0.0243 -1.7595
18671TIP3   OH277503   1.276   2.681  99.107 -0.4921  0.9818  0.0057
18671TIP3    H177504   1.250   2.693  99.199  0.3618  1.0521  0.2450
18671TIP3    H277505   1.194   2.689  99.058 -1.1738 -0.3874  0.8657
18672TIP3   OH277506   0.001   1.582  63.057 -0.2323  0.1032 -0.8795
18672TIP3    H177507  -0.060   1.535  63.000 -1.5409  0.1265  0.4332
18672TIP3    H277508   0.005   1.670  63.021 -0.8940  0.0633 -1.0707
18673TIP3   OH277509   2.289   1.275  24.826  0.7783  0.1681  0.3142
18673TIP3    H177510   2.278   1.335  24.899 -0.5492  0.1607  0.1392
18673TIP3    H277511   2.282   1.188  24.865  0.0330  0.1646  0.1769
18674TIP3   OH277512   2.248   0.218  17.709 -0.1353 -0.6207 -0.1429
18674TIP3    H177513   2.292   0.260  17.635  1.0736 -0.3105  0.7174
18674TIP3    H277514   2.182   0.162  17.669 -0.3393  0.4663 -1.4066
18675TIP3   OH277515   2.493   1.028  12.199 -0.0441  0.0184 -0.3323
18675TIP3    H177516   2.583   0.997  12.186  0.4067 -0.1359  2.5591
18675TIP3    H277517   2.451   0.960  12.252 -1.1105  1.1984  0.4012
18676TIP3   OH277518   1.432   2.682  47.166 -0.2385  0.0559 -0.3910
18676TIP3    H177519   1.460   2.590  47.168  2.2105  0.7485 -0.5239
18676TIP3    H277520   1.464   2.716  47.083 -0.4507  1.2509 -0.0053
18677TIP3   OH277521   0.305   0.711  35.444  0.0173 -0.1509 -0.0849
18677TIP3    H177522   0.366   0.784  35.458 -0.1116 -0.4943  2.9991
18677TIP3    H277523   0.355   0.633  35.468 -0.8305 -0.7139 -0.0966
18678TIP3   OH277524   1.615   0.684  95.461 -0.0591  0.0990 -0.1359
18678TIP3    H177525   1.708   0.675  95.483  0.3012  1.7249 -0.8452
18678TIP3    H277526   1.602   0.625  95.387 -0.0714 -1.5386  1.1071
18679TIP3   OH277527   1.180   1.424  31.285  0.0818  0.9356 -0.2740
18679TIP3    H177528   1.144   1.506  31.250  0.0042  1.8369  1.7650
18679TIP3    H277529   1.105   1.382  31.327  0.2145 -0.0245 -0.9750
18680TIP3   OH277530   2.469   1.662  25.934  0.1635  0.5681 -0.2467
18680TIP3    H177531   2.520   1.720  25.991 -0.4292  0.1102  0.7774
18680TIP3    H277532   2.520   1.580  25.933  0.5734  0.8190 -1.0265
18681TIP3   OH277533   2.589   1.797   9.217 -0.2868 -0.8213  0.2534
18681TIP3    H177534   2.639   1.784   9.298 -0.0320  0.7728  0.3804
18681TIP3    H277535   2.497   1.802   9.246 -0.2555 -0.9148  0.3684
18682TIP3   OH277536   1.812   0.633 106.958  0.4384 -0.0633 -0.2376
18682TIP3    H177537   1.877   0.702 106.976  0.1130  0.1754  0.0333
18682TIP3    H277538   1.737   0.680 106.923  0.6173 -0.4000 -1.0835
18683TIP3   OH277539   0.124   1.354  35.118 -0.1623  0.2045  0.2358
18683TIP3    H177540   0.079   1.271  35.103  0.2186  0.3426 -1.9736
18683TIP3    H277541   0.055   1.420  35.118 -0.3072  0.0523  0.4376
18684TIP3   OH277542   2.162   2.368  89.290 -0.2202  0.1930  0.5657
18684TIP3    H177543   2.138   2.352  89.381  0.0633  1.1728  0.8339
18684TIP3    H277544   2.120   2.298  89.241  0.3525 -0.8666  1.5462
18685TIP3   OH277545   1.521   1.221   1.597  0.3092 -0.0486  0.1022
18685TIP3    H177546   1.435   1.186   1.573  0.2779  1.3474 -2.1056
18685TIP3    H277547   1.580   1.146   1.589 -0.6316 -0.9828  1.4987
18686TIP3   OH277548   1.827   1.858  78.844 -0.1927 -0.8865  0.0050
18686TIP3    H177549   1.745   1.808  78.848 -0.4381 -0.6565 -1.3018
18686TIP3    H277550   1.879   1.813  78.777 -0.4229  0.5542 -1.1957
18687TIP3   OH277551   1.648   2.677  24.563 -0.1426 -0.3206  0.6248
18687TIP3    H177552   1.614   2.719  24.483 -0.6509  0.4433  1.2295
18687TIP3    H277553   1.584   2.609  24.583 -0.8151  0.4530  1.1911
18688TIP3   OH277554   1.273   1.386   5.341 -0.5661  0.3176 -0.3508
18688TIP3    H177555   1.342   1.351   5.285 -0.6112  0.3229 -0.4095
18688TIP3    H277556   1.255   1.315   5.403 -3.0039 -1.1148 -2.5244
18689TIP3   OH277557   2.414   1.693  74.183  0.3851 -0.6498  0.0150
18689TIP3    H177558   2.464   1.631  74.130 -0.8915 -0.6639 -1.2611
18689TIP3    H277559   2.433   1.779  74.145  0.3844 -0.5217  0.3019
18690TIP3   OH277560   0.311   2.126  74.719  0.1156 -0.3589 -0.2913
18690TIP3    H177561   0.387   2.148  74.774  0.1476  2.2944 -1.2404
18690TIP3    H277562   0.347   2.072  74.649  1.3456  1.2908 -1.0213
18691TIP3   OH277563   1.976   2.472  96.552 -0.2046 -0.0776 -0.7910
18691TIP3    H177564   2.015   2.559  96.562 -1.1998  0.1415  2.0610
18691TIP3    H277565   2.051   2.412  96.548  0.4879  0.6657  0.4954
18692TIP3   OH277566   0.394   2.015   1.492 -0.0336 -0.1815  0.0050
18692TIP3    H177567   0.369   1.980   1.578  0.9723  0.0524  0.4035
18692TIP3    H277568   0.371   2.108   1.497 -1.0221 -0.3876 -0.4021
18693TIP3   OH277569   1.606   0.601 105.070  0.1168 -0.2674  0.2479
18693TIP3    H177570   1.558   0.526 105.034 -1.3699  1.3110 -1.2064
18693TIP3    H277571   1.574   0.609 105.160 -0.0835 -1.0668  0.2530
18694TIP3   OH277572   0.535   2.566 104.629  0.4287  0.1046 -0.6666
18694TIP3    H177573   0.604   2.602 104.574  0.8069  1.4882  0.6273
18694TIP3    H277574   0.558   2.474 104.639  1.1590  0.1692 -1.6138
18695TIP3   OH277575   2.028   0.517  84.701  0.5835  0.4502 -0.2956
18695TIP3    H177576   2.115   0.483  84.684  0.8813  0.1150  1.7130
18695TIP3    H277577   2.015   0.584  84.633  1.6163 -0.7684 -1.7673
18696TIP3   OH277578   2.385   1.983   0.177  0.0802 -0.2753  0.0076
18696TIP3    H177579   2.424   1.896   0.172  1.4354  0.3263 -0.3676
18696TIP3    H277580   2.408   2.014   0.265  0.6312  0.1506 -0.2788
18697TIP3   OH277581   0.548   1.727 107.486  0.8980  0.1826 -0.0606
18697TIP3    H177582   0.629   1.739 107.535  0.9531 -0.1706 -0.0595
18697TIP3    H277583   0.479   1.731 107.552  1.0376 -1.3770  0.2238
18698TIP3   OH277584   1.650   1.925  17.388  0.1236 -0.5345 -0.6574
18698TIP3    H177585   1.655   1.995  17.323 -1.0011 -0.8765 -1.1403
18698TIP3    H277586   1.579   1.869  17.358  0.0851 -1.1294  0.4642
18699TIP3   OH277587   0.198   2.484   3.632 -0.1021 -0.1849 -0.1291
18699TIP3    H177588   0.251   2.559   3.658  2.8585 -2.2875  0.5024
18699TIP3    H277589   0.134   2.474   3.702  1.0960  0.2840  1.0629
18700TIP3   OH277590   1.788   1.642  90.622 -0.0785 -0.0698  0.0077
18700TIP3    H177591   1.722   1.603  90.565 -0.2029  1.2339 -0.7821
18700TIP3    H277592   1.851   1.683  90.562  0.1611  0.7456  0.7935
18701TIP3   OH277593   2.455   1.761  36.803 -0.1354 -0.0437 -0.5854
18701TIP3    H177594   2.520   1.704  36.844 -0.0379  0.9517  0.7385
18701TIP3    H277595   2.411   1.804  36.877 -2.5434 -0.9023 -1.4203
18702TIP3   OH277596   1.264   1.741  14.708  0.0990 -0.5542  0.3331
18702TIP3    H177597   1.204   1.716  14.778  0.8580 -1.0683  0.8134
18702TIP3    H277598   1.325   1.667  14.700  0.5623 -0.1237 -0.2602
18703TIP3   OH277599   0.563   1.053   5.908 -0.2601 -0.1265  0.0428
18703TIP3    H177600   0.561   1.100   5.991 -1.8213  2.0622 -1.1320
18703TIP3    H277601   0.486   0.996   5.910 -0.3783  0.0340  0.0377
18704TIP3   OH277602   0.418   1.063  98.564  0.4098  0.7975 -0.0544
18704TIP3    H177603   0.488   1.127  98.570  1.4064 -0.2453 -0.2047
18704TIP3    H277604   0.449   0.988  98.615 -1.2717  0.8762  1.2046
18705TIP3   OH277605   0.744   1.346 111.045 -0.8877  0.3363  0.4785
18705TIP3    H177606   0.714   1.436 111.056 -1.0080  0.2163  1.2108
18705TIP3    H277607   0.808   1.350 110.974 -2.7514  0.5700 -1.2923
18706TIP3   OH277608   1.001   1.442  24.865 -0.0633 -0.3161  0.6678
18706TIP3    H177609   0.967   1.461  24.952 -0.9510  2.6341 -0.2051
18706TIP3    H277610   0.923   1.436  24.809  0.5621  1.3976 -0.4756
18707TIP3   OH277611   0.485   0.275  93.369  0.1434 -0.2938 -0.3913
18707TIP3    H177612   0.495   0.238  93.457  0.5662 -0.9665 -0.7082
18707TIP3    H277613   0.424   0.215  93.325 -0.0479  0.0260 -0.5655
18708TIP3   OH277614   2.375   1.342  14.856 -0.0915 -0.3530 -0.3595
18708TIP3    H177615   2.367   1.420  14.802  0.9057  1.2417  1.6417
18708TIP3    H277616   2.469   1.333  14.872 -0.1257 -2.3151 -0.9641
18709TIP3   OH277617   0.616   2.507   7.892  0.4118 -0.4159 -0.1874
18709TIP3    H177618   0.614   2.413   7.875  0.3959 -0.6602  1.1080
18709TIP3    H277619   0.709   2.528   7.901  0.4294 -0.2552 -0.6981
18710TIP3   OH277620   1.793   1.686  32.938 -0.4535  0.0680 -0.2179
18710TIP3    H177621   1.712   1.683  32.988  0.3723 -2.0111  1.1194
18710TIP3    H277622   1.765   1.702  32.848 -2.5273 -2.0419 -0.0512
18711TIP3   OH277623   0.629   1.589  67.197  0.4563 -0.6565  0.0760
18711TIP3    H177624   0.634   1.527  67.269  0.7907  1.3106  1.8584
18711TIP3    H277625   0.543   1.574  67.158 -0.6139 -0.4732  2.2037
18712TIP3   OH277626   1.697   0.365  18.880  0.0788  0.8126  0.0583
18712TIP3    H177627   1.767   0.317  18.835 -0.2583  1.2023 -0.9284
18712TIP3    H277628   1.620   0.310  18.871 -0.2632  1.4121 -0.9067
18713TIP3   OH277629   2.276   0.468  59.530  0.3064 -0.0068 -0.0780
18713TIP3    H177630   2.326   0.401  59.483  0.6627  1.0688 -1.3218
18713TIP3    H277631   2.291   0.449  59.623 -1.9456 -3.3452 -0.2449
18714TIP3   OH277632   0.441   1.726 108.422  0.2334 -0.4219 -0.2309
18714TIP3    H177633   0.387   1.691 108.493  1.5977 -1.5768  0.2850
18714TIP3    H277634   0.483   1.803 108.460  2.1931 -1.9075  0.8574
18715TIP3   OH277635   2.569   2.378  18.184 -0.4698 -0.4685 -0.6229
18715TIP3    H177636   2.615   2.323  18.247  0.0845  0.4912 -0.1695
18715TIP3    H277637   2.625   2.376  18.106 -0.6697 -0.8808 -0.7604
18716TIP3   OH277638   0.106   1.524  69.294 -0.9371  0.0698 -0.2758
18716TIP3    H177639   0.037   1.482  69.346 -1.5346  2.1076  0.7080
18716TIP3    H277640   0.186   1.481  69.322 -1.6605 -1.5204 -0.5406
18717TIP3   OH277641   0.910   1.302  30.302 -0.0158 -0.7442 -0.5299
18717TIP3    H177642   0.952   1.220  30.325 -0.4097 -1.0608 -0.9092
18717TIP3    H277643   0.939   1.321  30.213  2.4570  1.0941  0.5585
18718TIP3   OH277644   1.755   1.307  24.357 -0.3094  0.0326  0.0509
18718TIP3    H177645   1.802   1.380  24.396 -0.3000 -0.1456  0.3814
18718TIP3    H277646   1.799   1.229  24.391 -0.7531 -0.1338  0.2550
18719TIP3   OH277647   2.313   2.313 106.959  0.2587 -0.1477 -0.0188
18719TIP3    H177648   2.400   2.299 106.998  1.1986  0.0318 -1.9263
18719TIP3    H277649   2.326   2.295 106.866 -1.4241  1.2639 -0.5757
18720TIP3   OH277650   2.457   2.246  78.985  0.6685 -0.5037 -0.4163
18720TIP3    H177651   2.499   2.276  78.904  0.8847 -1.2348 -0.5786
18720TIP3    H277652   2.436   2.154  78.969  1.5268 -0.9239  0.6682
18721TIP3   OH277653   1.464   1.228  16.732 -0.1943  0.4581  0.5116
18721TIP3    H177654   1.472   1.142  16.774 -1.4376  0.2547  0.3743
18721TIP3    H277655   1.430   1.285  16.801 -2.6247  0.0362 -0.2354
18722TIP3   OH277656   1.719   2.508  57.901  0.2703  0.5906  0.0864
18722TIP3    H177657   1.793   2.564  57.879  0.7143 -0.9276 -2.7069
18722TIP3    H277658   1.643   2.551  57.861  0.0449  0.8242  0.7427
18723TIP3   OH277659   1.532   0.366  11.992  0.6305 -0.0162 -0.7294
18723TIP3    H177660   1.518   0.291  12.049  0.6055  0.4906 -0.0539
18723TIP3    H277661   1.445   0.406  11.984  1.1237  1.6985  1.4420
18724TIP3   OH277662   1.954   2.401  18.028 -0.4021 -0.0691  0.8918
18724TIP3    H177663   2.044   2.373  18.008 -1.3301 -2.9123  0.2248
18724TIP3    H277664   1.962   2.451  18.109  2.0244  1.6266 -0.2602
18725TIP3   OH277665   0.879   1.496  90.049  0.2007 -1.1132  0.6333
18725TIP3    H177666   0.856   1.482  89.957  1.2110 -0.2184  0.2240
18725TIP3    H277667   0.974   1.481  90.052  0.0894 -1.6835  1.6481
18726TIP3   OH277668   2.649   0.934  17.083  0.5087 -0.2648 -0.2574
18726TIP3    H177669   2.706   0.986  17.027 -1.3536  2.7292  0.3899
18726TIP3    H277670   2.598   0.880  17.022  0.3432  0.9798 -1.2458
18727TIP3   OH277671   2.419   0.824  10.360 -0.2235  0.3021 -0.5785
18727TIP3    H177672   2.385   0.836  10.271 -0.1501 -0.3073 -0.6957
18727TIP3    H277673   2.422   0.729  10.372  0.4635  0.3599 -0.1970
18728TIP3   OH277674   1.024   1.265  30.966  0.4576  0.4226 -0.1146
18728TIP3    H177675   1.027   1.192  31.028 -0.7289 -1.4417 -2.1102
18728TIP3    H277676   0.932   1.292  30.966  0.7271  1.3545 -0.0350
18729TIP3   OH277677   1.249   0.402  36.459 -0.1066 -0.4557  0.2002
18729TIP3    H177678   1.162   0.426  36.490 -0.4936  0.5945 -1.5540
18729TIP3    H277679   1.235   0.367  36.372  1.4238  2.5815 -1.4275
18730TIP3   OH277680   0.248   0.173  21.904  0.1354  0.1581  0.4610
18730TIP3    H177681   0.244   0.157  21.998 -0.1355 -3.6365 -0.0379
18730TIP3    H277682   0.332   0.218  21.892  0.5916 -0.0379  2.4475
18731TIP3   OH277683   2.150   1.941   4.625  0.3106 -0.2571 -0.3894
18731TIP3    H177684   2.167   2.035   4.630  0.8057 -0.3399 -0.4228
18731TIP3    H277685   2.161   1.919   4.532 -0.2771 -0.2634 -0.4588
18732TIP3   OH277686   0.109   1.261  76.233 -0.0203  0.1635  0.0660
18732TIP3    H177687   0.141   1.195  76.295  0.1491  0.9274  0.8104
18732TIP3    H277688   0.187   1.293  76.189 -0.2465 -1.1520 -1.3627
18733TIP3   OH277689   1.987   0.271  92.479 -0.0453  0.1624  0.0049
18733TIP3    H177690   2.011   0.332  92.410  0.8187  0.8735  0.9044
18733TIP3    H277691   2.034   0.190  92.456  1.7347  0.9585  0.7174
18734TIP3   OH277692   0.160   0.554 101.645  0.2963 -0.2957  0.0360
18734TIP3    H177693   0.092   0.548 101.577 -0.2754 -0.9467  0.6477
18734TIP3    H277694   0.221   0.483 101.624 -0.9281 -1.7871  1.2972
18735TIP3   OH277695   0.636   2.465  66.782  0.2924  0.9618 -0.6816
18735TIP3    H177696   0.672   2.396  66.837  0.0194  1.2099 -0.1733
18735TIP3    H277697   0.544   2.441  66.772  0.5327  0.4554 -1.7665
18736TIP3   OH277698   0.837   1.404  33.700  0.0179 -0.2201  0.5024
18736TIP3    H177699   0.890   1.376  33.626 -0.2771  1.5700 -0.4541
18736TIP3    H277700   0.899   1.444  33.761  0.0876 -0.4719  0.5986
18737TIP3   OH277701   1.164   0.534  34.394  0.4020  0.0157 -0.1242
18737TIP3    H177702   1.113   0.477  34.336 -1.5087 -0.4715  1.9184
18737TIP3    H277703   1.119   0.531  34.478  2.0345  2.1077  0.9493
18738TIP3   OH277704   2.437   1.946  27.608 -0.3777  0.0428  0.3075
18738TIP3    H177705   2.358   1.936  27.662 -0.4205  2.1091  0.7035
18738TIP3    H277706   2.504   1.976  27.669 -0.2742  1.8860 -0.6543
18739TIP3   OH277707   0.552   1.351   8.179 -0.0945  0.3589 -0.3531
18739TIP3    H177708   0.548   1.273   8.123 -0.4176 -1.1593  1.6703
18739TIP3    H277709   0.645   1.364   8.195 -0.1041 -0.6429  0.6201
18740TIP3   OH277710   1.554   0.803  92.597 -0.1833 -0.1278  0.1696
18740TIP3    H177711   1.633   0.759  92.629 -0.8480 -1.0560  0.5773
18740TIP3    H277712   1.561   0.798  92.501  0.0429 -0.6015  0.2075
18741TIP3   OH277713   2.439   0.168  43.711  0.0309 -0.1693  0.1221
18741TIP3    H177714   2.402   0.256  43.717 -0.9121 -0.5343 -0.1338
18741TIP3    H277715   2.386   0.116  43.772  0.6937 -0.5314  0.4059
18742TIP3   OH277716   1.311   1.557  28.237 -0.2378  0.0838 -0.7076
18742TIP3    H177717   1.393   1.508  28.235 -1.0367 -1.2688 -1.0986
18742TIP3    H277718   1.252   1.508  28.181 -1.8566  0.0815  0.9320
18743TIP3   OH277719   2.372   1.685  46.654 -0.0030  0.5274 -0.7551
18743TIP3    H177720   2.328   1.618  46.706  0.7110  2.2227  2.2868
18743TIP3    H277721   2.461   1.688  46.690 -0.0846  3.2421 -0.5643
18744TIP3   OH277722   1.746   0.914  64.363 -0.2562  0.2517  0.2308
18744TIP3    H177723   1.655   0.890  64.380 -0.4130  0.7978  0.1996
18744TIP3    H277724   1.795   0.833  64.375 -0.8775 -0.2995 -0.8491
18745TIP3   OH277725   1.716   0.945  81.171  0.1785  0.1990  0.0672
18745TIP3    H177726   1.786   0.880  81.177 -0.0335 -0.4159 -2.7502
18745TIP3    H277727   1.642   0.898  81.134 -1.1512  1.2993  1.2194
18746TIP3   OH277728   2.455   2.262  90.668  0.2403 -0.1947  0.4739
18746TIP3    H177729   2.425   2.245  90.579  2.2758 -1.4882 -0.0469
18746TIP3    H277730   2.403   2.336  90.698 -2.1954 -1.2556 -0.8798
18747TIP3   OH277731   0.519   2.240  93.037 -0.2218 -0.0338  0.3612
18747TIP3    H177732   0.512   2.153  93.076  0.2517 -0.5819 -0.7188
18747TIP3    H277733   0.466   2.235  92.958  0.9031  0.2020 -0.4375
18748TIP3   OH277734   1.200   0.424   8.805 -0.1491  0.6181 -0.0954
18748TIP3    H177735   1.177   0.397   8.716  3.7759  1.0031 -1.4437
18748TIP3    H277736   1.195   0.343   8.856 -1.6259  0.2158 -0.8157
18749TIP3   OH277737   2.373   1.925  19.493  0.1357 -0.6561  0.1650
18749TIP3    H177738   2.368   1.854  19.430  1.1512 -1.8935  1.4304
18749TIP3    H277739   2.312   1.991  19.460 -0.5676 -1.9604 -1.2211
18750TIP3   OH277740   0.412   2.492  74.680 -0.6497 -0.0794  0.6185
18750TIP3    H177741   0.329   2.515  74.638 -1.5901 -2.2966  1.0748
18750TIP3    H277742   0.456   2.575  74.693 -2.0796  1.0365 -1.1058
18751TIP3   OH277743   2.572   1.232  20.055 -0.1516 -0.0804  0.2642
18751TIP3    H177744   2.618   1.314  20.071  0.0510 -0.4484  1.6873
18751TIP3    H277745   2.492   1.258  20.010 -0.2097  0.9280  0.9242
18752TIP3   OH277746   2.474   1.158  99.893  0.2673  0.1113  0.0849
18752TIP3    H177747   2.471   1.109  99.975  3.1422 -1.3055 -0.5330
18752TIP3    H277748   2.497   1.247  99.919  0.2767 -0.1086  0.8468
18753TIP3   OH277749   0.878   0.938  98.718 -0.2032  0.3637  0.1788
18753TIP3    H177750   0.878   0.902  98.807  0.9414  0.4974  0.2527
18753TIP3    H277751   0.836   1.023  98.727 -1.5359 -0.2794  0.2888
18754TIP3   OH277752   1.734   0.628  85.616  0.2719  0.3724 -0.2089
18754TIP3    H177753   1.825   0.635  85.588 -0.1932 -0.4488 -2.1225
18754TIP3    H277754   1.715   0.534  85.615  0.3481  0.1684  3.6996
18755TIP3   OH277755   0.682   0.915  38.427 -0.1199 -0.7252 -0.8992
18755TIP3    H177756   0.756   0.868  38.465 -2.5574 -2.8562  1.5557
18755TIP3    H277757   0.628   0.847  38.386 -2.5819  0.1199  0.7219
18756TIP3   OH277758   0.408   2.214  36.812  0.0027 -0.1841  0.1169
18756TIP3    H177759   0.387   2.205  36.719 -0.2169 -1.8123  0.2983
18756TIP3    H277760   0.416   2.124  36.844 -0.2303  0.3429  1.7547
18757TIP3   OH277761   1.680   0.154 103.902 -0.5799  0.0177 -0.4989
18757TIP3    H177762   1.757   0.210 103.903  0.5343 -1.4308  1.0647
18757TIP3    H277763   1.606   0.214 103.912  0.6042  1.1900  2.1134
18758TIP3   OH277764   1.085   1.673  75.603 -0.1084  0.3303 -0.2490
18758TIP3    H177765   1.135   1.595  75.626 -0.0018  0.8017  1.2096
18758TIP3    H277766   1.010   1.640  75.553 -0.6600 -0.8315  1.2913
18759TIP3   OH277767   0.602   0.605 103.874  0.3335  0.0491  0.0139
18759TIP3    H177768   0.678   0.594 103.931  0.3729  0.4673  0.0433
18759TIP3    H277769   0.617   0.545 103.801  0.1555 -0.6941  0.5717
18760TIP3   OH277770   2.501   0.057  79.124 -0.6751 -0.1711  0.2739
18760TIP3    H177771   2.465   0.019  79.043 -0.5186 -1.7659  0.9132
18760TIP3    H277772   2.588   0.018  79.132 -0.3168  0.6924  0.7401
18761TIP3   OH277773   0.015   1.120  20.270 -0.2275  0.2127 -0.1227
18761TIP3    H177774  -0.069   1.083  20.296 -0.1195 -2.3569 -2.8897
18761TIP3    H277775   0.000   1.155  20.182  1.3223  0.8944 -0.1498
18762TIP3   OH277776   0.498   1.417  99.385 -0.3574  0.2434 -0.5851
18762TIP3    H177777   0.587   1.449  99.400 -0.7970  0.8420  1.0035
18762TIP3    H277778   0.508   1.342  99.327  1.1961  0.2298 -0.3257
18763TIP3   OH277779   1.012   1.049  25.965 -0.3056  0.0053  0.9648
18763TIP3    H177780   1.095   1.097  25.960 -0.1780 -0.2554  0.6180
18763TIP3    H277781   0.972   1.060  25.879 -0.6326  0.1222  1.1289
18764TIP3   OH277782   2.427   0.805  96.132 -0.3735 -0.2151  0.1323
18764TIP3    H177783   2.410   0.821  96.039 -0.2775 -0.2955  0.1006
18764TIP3    H277784   2.507   0.753  96.134 -0.5026 -0.4086  0.2460
18765TIP3   OH277785   0.836   2.291  10.879  0.2623  0.1932 -0.4024
18765TIP3    H177786   0.830   2.366  10.819 -2.4841  0.4534  0.0808
18765TIP3    H277787   0.930   2.271  10.882  1.4206  4.5933  0.6925
18766TIP3   OH277788   0.440   1.183   5.457  0.6084 -0.0764 -0.3091
18766TIP3    H177789   0.501   1.109   5.462  0.5561 -0.1861 -1.1503
18766TIP3    H277790   0.429   1.211   5.548  0.2913 -1.3785  0.0827
18767TIP3   OH277791   1.206   1.579  88.403  0.5137  0.3395 -0.0040
18767TIP3    H177792   1.140   1.611  88.341  0.0838 -0.8822 -0.1956
18767TIP3    H277793   1.160   1.575  88.487  0.6210  0.3936  0.0554
18768TIP3   OH277794   1.847   2.602  75.661  0.3070  0.5517 -0.6228
18768TIP3    H177795   1.783   2.540  75.628 -3.3445  2.0477  2.7112
18768TIP3    H277796   1.875   2.652  75.584 -1.8686 -0.8086 -2.4170
18769TIP3   OH277797   2.009   2.412  74.808  0.3735 -0.4569  0.2893
18769TIP3    H177798   2.078   2.345  74.814  1.7134  0.9452  1.5434
18769TIP3    H277799   1.947   2.387  74.876 -0.1673 -1.4799 -0.5466
18770TIP3   OH277800   0.259   2.069   4.935 -0.2956  0.2469 -0.1727
18770TIP3    H177801   0.263   2.000   5.001  0.1085  0.1019 -0.3466
18770TIP3    H277802   0.169   2.100   4.938  0.0907  1.3745  1.6360
18771TIP3   OH277803   0.491   2.148  83.930 -0.0735  0.1888 -0.1610
18771TIP3    H177804   0.524   2.193  83.852  1.2713 -1.1969 -0.4369
18771TIP3    H277805   0.476   2.218  83.994  1.5844  1.0727 -0.6944
18772TIP3   OH277806   2.117   0.927  93.417  0.0247  0.1013 -0.2002
18772TIP3    H177807   2.081   0.982  93.348 -0.1551  0.2243 -0.0130
18772TIP3    H277808   2.044   0.872  93.445  0.1132  0.0067 -0.1553
18773TIP3   OH277809   0.178   0.274  67.758  0.1686  0.4949  0.3014
18773TIP3    H177810   0.198   0.180  67.748  1.9222  0.8939 -0.2996
18773TIP3    H277811   0.121   0.294  67.684 -1.4809 -0.3841  1.2626
18774TIP3   OH277812   0.303   0.769   0.862  0.0645 -0.3896 -0.1835
18774TIP3    H177813   0.346   0.835   0.808 -0.4024 -0.3789 -0.5514
18774TIP3    H277814   0.320   0.796   0.952  2.2495 -1.2798 -0.2518
18775TIP3   OH277815   0.587   2.681  34.598 -0.7890  0.1926 -0.7351
18775TIP3    H177816   0.666   2.720  34.561  1.6649 -0.6604  3.0542
18775TIP3    H277817   0.547   2.751  34.650  0.0983 -0.4913  0.9618
18776TIP3   OH277818   1.714   2.515 109.744  0.2825 -0.1041 -0.0518
18776TIP3    H177819   1.787   2.519 109.683  1.0281 -2.3385  0.5813
18776TIP3    H277820   1.705   2.605 109.776  0.9379  0.7810 -2.1582
18777TIP3   OH277821   0.118   0.707  95.427 -0.7892 -0.0835 -0.4804
18777TIP3    H177822   0.100   0.711  95.521  0.6805  2.5887 -0.2442
18777TIP3    H277823   0.192   0.765  95.413 -1.7424  0.6282 -3.4918
18778TIP3   OH277824   2.473   0.446  11.435 -0.2683  0.4015  0.0378
18778TIP3    H177825   2.541   0.451  11.368  0.8534  0.9905  1.1874
18778TIP3    H277826   2.450   0.353  11.439  1.3163  0.0042  0.4446
18779TIP3   OH277827   1.834   1.210  12.625 -0.3460 -0.0258  0.0532
18779TIP3    H177828   1.890   1.241  12.554  0.6251 -1.5789  0.0710
18779TIP3    H277829   1.750   1.192  12.584 -0.4309  1.0698 -0.2658
18780TIP3   OH277830   1.300   1.704  57.187  0.3878  0.9348  0.7291
18780TIP3    H177831   1.369   1.690  57.122 -1.4547 -0.2643 -1.0675
18780TIP3    H277832   1.343   1.757  57.255  3.1428 -0.0011 -0.1204
18781TIP3   OH277833   0.394   2.631  11.010 -0.0123  0.0872 -0.0999
18781TIP3    H177834   0.349   2.692  10.951  0.4116  0.1673 -0.3447
18781TIP3    H277835   0.411   2.554  10.955 -0.9566 -0.4433  0.3312
18782TIP3   OH277836   1.137   0.129  21.600 -0.4101  0.1457  0.5868
18782TIP3    H177837   1.127   0.105  21.507  2.0651 -0.4343  0.4178
18782TIP3    H277838   1.057   0.179  21.620 -0.0690  2.1707 -2.4369
18783TIP3   OH277839   1.923   2.459  90.057  0.1257 -0.3081  0.6283
18783TIP3    H177840   1.888   2.548  90.068 -0.6614 -0.4738 -0.4204
18783TIP3    H277841   1.911   2.440  89.964 -1.8388 -2.3568  1.2009
18784TIP3   OH277842   1.569   0.947  78.189  0.4940 -0.3508  0.3044
18784TIP3    H177843   1.579   0.882  78.258 -3.0813 -0.9514  0.4762
18784TIP3    H277844   1.535   1.024  78.233 -0.1597 -0.1394 -0.5421
18785TIP3   OH277845   0.020   0.046  34.522  0.0279  0.3906  0.0054
18785TIP3    H177846  -0.018  -0.029  34.568 -0.2447 -0.1239 -1.0128
18785TIP3    H277847  -0.054   0.105  34.506  0.2882  1.0144  1.0350
18786TIP3   OH277848   0.000   2.058   3.539 -0.0584  0.0229 -0.0484
18786TIP3    H177849   0.013   1.967   3.513 -0.4585 -0.2872  0.8136
18786TIP3    H277850  -0.087   2.060   3.578  0.9252  0.2194  2.2752
18787TIP3   OH277851   2.335   0.132  20.097 -0.1698  0.0303  0.2484
18787TIP3    H177852   2.345   0.108  20.189  0.4224  0.5204  0.3123
18787TIP3    H277853   2.393   0.073  20.050  0.1426  0.3283  0.2627
18788TIP3   OH277854   1.882   0.210  88.115  0.0209  0.6868 -0.0446
18788TIP3    H177855   1.941   0.202  88.189  0.5712  0.1289 -0.5310
18788TIP3    H277856   1.801   0.246  88.152 -1.3223 -3.5225  1.6610
18789TIP3   OH277857   1.221   0.740  33.264  0.1896  0.0107 -0.2433
18789TIP3    H177858   1.241   0.647  33.250  0.6512 -0.0725  0.8957
18789TIP3    H277859   1.265   0.762  33.346 -1.0966  0.8704  0.2457
18790TIP3   OH277860   2.659   0.039  84.308 -0.2635  0.8180 -0.3968
18790TIP3    H177861   2.580   0.060  84.357 -1.1603  2.3242 -2.3681
18790TIP3    H277862   2.637  -0.040  84.259  0.5956 -0.6207  1.3938
18791TIP3   OH277863   1.735   0.280  95.404  0.2158  0.1360  0.4402
18791TIP3    H177864   1.776   0.206  95.448 -1.5822 -0.2095  1.6765
18791TIP3    H277865   1.666   0.241  95.350  1.3160  0.6988 -1.4480
18792TIP3   OH277866   0.751   1.654  95.527 -0.4235 -0.0135 -0.0376
18792TIP3    H177867   0.801   1.726  95.564  0.4402  0.1198 -1.3916
18792TIP3    H277868   0.795   1.634  95.444 -0.4681 -2.2790  0.4158
18793TIP3   OH277869   1.811   0.358  35.578 -0.4374  0.2344 -0.2771
18793TIP3    H177870   1.758   0.279  35.566 -0.7596  0.3589  0.3188
18793TIP3    H277871   1.882   0.331  35.636 -0.1413  0.2059 -0.6454
18794TIP3   OH277872   1.866   0.015  23.212  0.3027 -0.0488 -0.1190
18794TIP3    H177873   1.838   0.003  23.121  0.4561  0.3760 -0.2282
18794TIP3    H277874   1.937  -0.047  23.223  1.5468  1.1645 -0.8844
18795TIP3   OH277875   0.610   0.947  77.451  0.1586 -0.2591 -0.0504
18795TIP3    H177876   0.556   1.026  77.447  0.1129 -0.3386 -2.1297
18795TIP3    H277877   0.675   0.965  77.519 -1.8157  0.2311  1.8400
18796TIP3   OH277878   1.402   1.221  19.100  0.3629  0.2117  0.1309
18796TIP3    H177879   1.308   1.238  19.099  0.5774  1.5070  0.4729
18796TIP3    H277880   1.411   1.135  19.057 -0.9714  0.0051  0.2211
18797TIP3   OH277881   1.455   0.662  96.731 -0.1908 -0.4216  0.4320
18797TIP3    H177882   1.538   0.620  96.708 -0.3974 -0.5690 -0.0355
18797TIP3    H277883   1.480   0.731  96.793  0.2985 -0.3554  0.1642
18798TIP3   OH277884   1.983   0.467   4.010  0.0104 -0.0448  0.2718
18798TIP3    H177885   1.931   0.476   4.090  2.0714 -0.4694  1.7476
18798TIP3    H277886   2.053   0.532   4.020  1.4374 -1.4552 -0.2193
18799TIP3   OH277887   1.152   1.584  90.039 -0.0047  0.0435 -0.3186
18799TIP3    H177888   1.223   1.623  90.090 -0.6001  0.3586  0.2760
18799TIP3    H277889   1.178   1.598  89.948 -0.1645  1.7910 -0.1241
18800TIP3   OH277890   0.846   2.315  11.155 -0.1595  0.0065  0.1508
18800TIP3    H177891   0.860   2.321  11.060 -0.0010  0.4936  0.2030
18800TIP3    H277892   0.752   2.329  11.166  0.0250  1.3484  0.1741
18801TIP3   OH277893   0.653   0.329  92.897 -0.0796 -0.0904  0.1789
18801TIP3    H177894   0.615   0.390  92.834  1.0920  0.5028  0.0230
18801TIP3    H277895   0.691   0.384  92.964  2.4080 -0.5184 -0.7787
18802TIP3   OH277896   0.180   0.064  28.697  0.4337  0.3080  0.3515
18802TIP3    H177897   0.178  -0.007  28.760 -0.5412 -0.0186 -0.0353
18802TIP3    H277898   0.273   0.074  28.675  0.4682 -1.7890 -0.6598
18803TIP3   OH277899   1.395   2.093  52.917  0.2467 -0.3900 -0.2363
18803TIP3    H177900   1.424   2.183  52.927 -1.6685  0.1416  1.0834
18803TIP3    H277901   1.379   2.062  53.006 -0.7064 -1.4729 -0.7464
18804TIP3   OH277902   2.211   1.742   8.660  0.2324 -0.0028 -0.0992
18804TIP3    H177903   2.145   1.769   8.723  0.1307 -0.4715 -0.0022
18804TIP3    H277904   2.217   1.647   8.670  0.0306 -0.1120 -0.9753
18805TIP3   OH277905   1.062   2.659  24.143 -0.3348 -0.2703  0.2002
18805TIP3    H177906   1.063   2.754  24.131 -0.7106 -0.2537  0.2771
18805TIP3    H277907   0.969   2.638  24.152 -0.5300 -1.0025 -2.6940
18806TIP3   OH277908   0.202   1.828  81.037 -0.2052  0.7448  0.1712
18806TIP3    H177909   0.195   1.858  80.946 -1.0361  2.6920  0.8277
18806TIP3    H277910   0.296   1.818  81.052 -0.0091  1.2580 -0.6563
18807TIP3   OH277911   0.822   0.587  25.971 -0.1739  0.4059 -0.2541
18807TIP3    H177912   0.835   0.676  25.937  2.9594 -0.0288 -0.5352
18807TIP3    H277913   0.906   0.564  26.011 -0.6997 -2.5848 -0.5939
18808TIP3   OH277914   1.594   0.640   7.990 -0.3392  0.0382  0.1516
18808TIP3    H177915   1.501   0.659   8.006 -0.0654  1.0362  0.6091
18808TIP3    H277916   1.631   0.625   8.078  0.2190  1.0234  0.0922
18809TIP3   OH277917   2.004   2.559  26.668  0.7522  0.5498 -0.3837
18809TIP3    H177918   1.964   2.639  26.633 -0.2483 -0.1025 -0.7494
18809TIP3    H277919   2.098   2.580  26.672  0.3536  2.3098  1.0401
18810TIP3   OH277920   1.364   1.190 107.569 -0.7890 -0.5064 -0.5253
18810TIP3    H177921   1.283   1.142 107.550 -1.0637  0.2666 -1.4102
18810TIP3    H277922   1.356   1.214 107.661 -1.8369  0.0076 -0.7299
18811TIP3   OH277923   0.571   0.833  84.273 -0.1458  0.1118  0.6628
18811TIP3    H177924   0.483   0.795  84.275 -0.3852  0.6843  1.2406
18811TIP3    H277925   0.622   0.772  84.219 -1.0383  0.0868 -0.1796
18812TIP3   OH277926   1.156   0.343 100.154  0.1668  0.0409  0.0095
18812TIP3    H177927   1.123   0.253 100.152 -0.8801  0.4327 -1.1020
18812TIP3    H277928   1.114   0.386 100.080  0.8936  1.3728  0.3404
18813TIP3   OH277929   0.181   2.125  16.340 -0.5063 -0.5224  0.0669
18813TIP3    H177930   0.142   2.157  16.422  0.3505  0.0997  0.2496
18813TIP3    H277931   0.267   2.167  16.337 -0.8009  0.0153 -1.5177
18814TIP3   OH277932   1.261   2.266  25.842  0.2582  0.2751  0.4064
18814TIP3    H177933   1.327   2.318  25.796  0.2542 -0.8120 -0.8935
18814TIP3    H277934   1.186   2.325  25.849  0.7523  0.9302  0.2894
18815TIP3   OH277935   0.156   2.386  31.252  0.1696 -0.2819  0.2675
18815TIP3    H177936   0.215   2.456  31.282 -0.0727 -0.4869  1.2790
18815TIP3    H277937   0.185   2.366  31.163  0.7857  0.5225  0.2748
18816TIP3   OH277938   0.031   2.455   6.941  0.3003  0.2578 -0.0935
18816TIP3    H177939  -0.004   2.404   7.015  1.0506  0.1070  0.1699
18816TIP3    H277940   0.117   2.415   6.923  1.3894  2.0552  0.7981
18817TIP3   OH277941   2.383   1.867 112.068  0.1238 -0.1977 -0.2736
18817TIP3    H177942   2.456   1.839 112.123 -0.6320 -2.3978 -0.2591
18817TIP3    H277943   2.416   1.862 111.979  0.0321 -1.1642 -0.2622
18818TIP3   OH277944   2.567   2.184  36.565  0.2426 -0.1404  0.4052
18818TIP3    H177945   2.639   2.160  36.624 -0.3630 -0.6829  0.9362
18818TIP3    H277946   2.546   2.274  36.590  1.0406  0.1924 -0.0775
18819TIP3   OH277947   1.884   1.749  19.508 -0.0426  0.6501  0.7746
18819TIP3    H177948   1.790   1.743  19.496  0.0699  0.2259  0.0098
18819TIP3    H277949   1.921   1.698  19.435  0.8809  4.5015 -1.7488
18820TIP3   OH277950   2.362   0.940  37.261  0.1726  0.6655 -0.0880
18820TIP3    H177951   2.387   0.936  37.168 -1.8560  1.1363 -0.7054
18820TIP3    H277952   2.307   1.018  37.267 -1.6510 -0.6344  0.9836
18821TIP3   OH277953   1.495   1.674  29.126  0.3992 -0.2894  0.3698
18821TIP3    H177954   1.448   1.754  29.103 -1.5277 -1.4384  0.0817
18821TIP3    H277955   1.565   1.668  29.061 -0.6195  0.1871 -0.8157
18822TIP3   OH277956   0.464   1.354  24.241 -0.4008  0.0826 -0.0124
18822TIP3    H177957   0.419   1.277  24.275 -0.5033  1.1173  2.3390
18822TIP3    H277958   0.397   1.422  24.236  0.3135  0.8974  1.0028
18823TIP3   OH277959   2.124   0.032  25.811 -0.1561 -0.2980  0.4046
18823TIP3    H177960   2.138   0.081  25.892 -0.8410  1.5128 -0.5175
18823TIP3    H277961   2.030   0.016  25.808 -0.3376  0.8588 -0.6748
18824TIP3   OH277962   0.701   1.187  33.796 -0.3120 -0.6889 -0.4145
18824TIP3    H177963   0.774   1.230  33.752  0.0123 -1.2852 -0.4711
18824TIP3    H277964   0.630   1.250  33.791  0.2816  0.0168 -0.1053
18825TIP3   OH277965   2.077   0.300  25.124  0.3773  0.1261 -0.1292
18825TIP3    H177966   2.090   0.214  25.163 -1.6530 -1.3867 -2.4941
18825TIP3    H277967   2.140   0.303  25.052 -0.5673 -0.0527 -0.9816
18826TIP3   OH277968   2.523   1.124  27.701 -0.1028  0.5142 -0.4256
18826TIP3    H177969   2.483   1.210  27.697 -2.1320 -0.4077 -1.1474
18826TIP3    H277970   2.605   1.137  27.750  0.9648  3.2839 -2.7026
18827TIP3   OH277971   0.676   0.657  28.700 -0.2458 -0.1026 -0.1497
18827TIP3    H177972   0.613   0.593  28.665 -1.7922  1.4140 -0.2758
18827TIP3    H277973   0.699   0.711  28.624  0.8733 -0.3550 -0.0007
18828TIP3   OH277974   0.349   1.754  17.973  0.0932 -0.1267  0.6343
18828TIP3    H177975   0.418   1.742  17.908  0.6700 -1.5254  1.4560
18828TIP3    H277976   0.368   1.689  18.040 -1.5941 -0.0227  1.2595
18829TIP3   OH277977   0.611   0.482  89.925 -0.2260  0.2613  0.1831
18829TIP3    H177978   0.654   0.510  89.844 -0.2251 -1.1325 -0.3201
18829TIP3    H277979   0.555   0.556  89.949 -0.3551  0.6309 -1.1766
18830TIP3   OH277980   2.178   2.183   6.374  0.3844  0.5855 -0.0282
18830TIP3    H177981   2.180   2.161   6.281 -1.3228 -0.0201  0.0515
18830TIP3    H277982   2.269   2.207   6.395  1.2955 -1.3882 -1.3543
18831TIP3   OH277983   2.308   1.804   1.175 -0.4256 -0.7977 -0.3603
18831TIP3    H177984   2.264   1.735   1.225 -0.1766 -0.2084  0.7021
18831TIP3    H277985   2.354   1.856   1.241  0.0562 -0.0924 -1.2267
18832TIP3   OH277986   1.061   2.622  92.200 -0.2858  0.1681 -0.2858
18832TIP3    H177987   1.067   2.557  92.270 -0.5943  0.7831  0.3270
18832TIP3    H277988   0.997   2.586  92.139  0.6676 -0.8090 -0.7511
18833TIP3   OH277989   0.022   0.586 103.246  0.9401  0.2343 -0.2314
18833TIP3    H177990  -0.005   0.580 103.155 -0.2145 -1.1451  0.1656
18833TIP3    H277991  -0.033   0.655 103.284  0.7285  0.1266 -0.3480
18834TIP3   OH277992   1.631   1.151 110.505  0.0929  0.3757  0.2342
18834TIP3    H177993   1.685   1.229 110.493  0.1080  0.0671 -2.2241
18834TIP3    H277994   1.694   1.080 110.518  0.3116  0.1585 -1.7377
18835TIP3   OH277995   1.198   0.527   6.245 -0.1113 -0.8114  0.2211
18835TIP3    H177996   1.270   0.588   6.262  0.2924 -0.4673 -2.4425
18835TIP3    H277997   1.227   0.445   6.284  0.4659  0.0137  1.6124
18836TIP3   OH277998   1.188   1.158  23.049  0.4479 -0.4302  0.3660
18836TIP3    H177999   1.178   1.108  23.130 -0.0378 -0.6339  0.1801
18836TIP3    H278000   1.099   1.183  23.025  0.4295 -1.5820 -0.8669
18837TIP3   OH278001   1.541   1.922 102.467  0.0805  0.3403 -0.2274
18837TIP3    H178002   1.504   1.898 102.552 -1.5861  0.5540 -0.8575
18837TIP3    H278003   1.529   1.844 102.413 -0.2960  0.7159 -0.6998
18838TIP3   OH278004   0.418   0.359   3.443 -0.3296  0.4278 -0.1898
18838TIP3    H178005   0.378   0.282   3.402 -0.0983 -0.3764  1.0625
18838TIP3    H278006   0.497   0.326   3.485 -0.9172  1.0608  1.5041
18839TIP3   OH278007   0.459   0.485   7.029  0.1478 -0.0595  0.4898
18839TIP3    H178008   0.499   0.487   7.115 -0.3136 -1.1228  0.7440
18839TIP3    H278009   0.529   0.508   6.969  0.8651 -0.8025  1.0200
18840TIP3   OH278010   0.197   2.393 108.842  0.4180  0.2037  0.3170
18840TIP3    H178011   0.240   2.425 108.762  1.7114 -0.2616  0.8087
18840TIP3    H278012   0.103   2.400 108.822  0.6866 -1.2317 -1.8034
18841TIP3   OH278013   1.119   1.133  87.354  0.4886  0.2262  0.1565
18841TIP3    H178014   1.196   1.096  87.312  0.2462  0.5365 -0.5710
18841TIP3    H278015   1.059   1.059  87.364  0.2463  0.2967 -0.7358
18842TIP3   OH278016   1.599   2.522  15.314  0.0012 -0.1193  0.4647
18842TIP3    H178017   1.599   2.430  15.291 -0.1349  0.3547 -1.6439
18842TIP3    H278018   1.525   2.559  15.267  0.2035  1.1238  1.0709
18843TIP3   OH278019   2.002   2.413 107.419 -0.4127  0.3627  0.3484
18843TIP3    H178020   2.033   2.355 107.489 -0.6680  0.6981  0.7452
18843TIP3    H278021   1.957   2.354 107.358  2.7932 -0.5286 -1.3919
18844TIP3   OH278022   0.599   0.614  88.708  0.0619  0.4546  0.6223
18844TIP3    H178023   0.577   0.704  88.732 -0.8709  0.5199 -0.4323
18844TIP3    H278024   0.561   0.561  88.778 -0.4236  0.8033  0.6281
18845TIP3   OH278025   2.046   0.947 107.543  0.0122 -0.2100  0.1524
18845TIP3    H178026   2.066   1.040 107.534  1.4242 -0.5526 -0.5279
18845TIP3    H278027   2.131   0.905 107.553 -0.6857 -1.1155  4.3998
18846TIP3   OH278028   2.519   2.299  79.252  0.1330  0.1473  0.6417
18846TIP3    H178029   2.486   2.279  79.165 -0.9472  0.1530  1.0326
18846TIP3    H278030   2.604   2.256  79.256 -0.5146 -1.2403  0.1584
18847TIP3   OH278031   0.767   0.305  74.898 -0.4845  0.2503  0.5315
18847TIP3    H178032   0.822   0.227  74.890 -0.1146  0.5333  0.2492
18847TIP3    H278033   0.687   0.283  74.850 -0.3726  0.0515  0.4318
18848TIP3   OH278034   1.420   2.430   2.536  0.4191  0.4596  0.2860
18848TIP3    H178035   1.423   2.411   2.630  2.9151 -1.5993 -0.0841
18848TIP3    H278036   1.402   2.345   2.495  0.7977  1.0347 -1.1370
18849TIP3   OH278037   2.652   1.804  98.835 -0.0924  0.3888  0.4608
18849TIP3    H178038   2.578   1.853  98.798  0.8307 -0.2891 -2.4990
18849TIP3    H278039   2.611   1.747  98.901 -2.0170  1.0317 -0.0926
18850TIP3   OH278040   1.384   0.308 101.475  0.7866  0.3459 -0.3206
18850TIP3    H178041   1.465   0.258 101.482 -0.2003 -1.1840  0.8513
18850TIP3    H278042   1.351   0.288 101.388  1.2037  0.2464 -0.4562
18851TIP3   OH278043   0.363   2.448  92.507  0.0195 -0.1250 -0.9190
18851TIP3    H178044   0.281   2.434  92.553  0.5914 -0.5592  0.0145
18851TIP3    H278045   0.430   2.410  92.565  1.0623  1.6117 -0.8966
18852TIP3   OH278046   2.539   0.533  31.819 -0.4893  0.1473 -0.4200
18852TIP3    H178047   2.579   0.447  31.804 -0.3649  0.5196 -2.6442
18852TIP3    H278048   2.599   0.594  31.777  0.0658  1.5052  2.2095
18853TIP3   OH278049   1.255   1.784  86.498  0.8156 -0.3791  0.4839
18853TIP3    H178050   1.266   1.704  86.447  0.6148 -1.4589  2.0694
18853TIP3    H278051   1.214   1.755  86.580  2.6643  1.0081  1.9786
18854TIP3   OH278052   0.132   0.130   4.005  0.0676 -0.0952 -0.3661
18854TIP3    H178053   0.219   0.159   4.035 -0.3573 -0.1743  0.9882
18854TIP3    H278054   0.137   0.137   3.910  0.8848  1.8712 -0.2399
18855TIP3   OH278055   0.716   0.859   8.007  0.1413 -0.1116  0.5867
18855TIP3    H178056   0.774   0.859   7.931  1.6856  0.0626  1.7217
18855TIP3    H278057   0.693   0.951   8.020  2.0247  0.2374  1.8524
18856TIP3   OH278058   2.357   0.285  95.981  0.2579 -0.7305  0.0028
18856TIP3    H178059   2.350   0.334  96.062 -0.7313 -0.6677 -0.1053
18856TIP3    H278060   2.381   0.197  96.008  0.9661 -0.4607  0.2720
18857TIP3   OH278061   0.485   0.700  20.405  0.5201 -0.0370 -0.3941
18857TIP3    H178062   0.410   0.690  20.464 -1.1136  0.9349 -2.1692
18857TIP3    H278063   0.537   0.770  20.444  0.7707 -0.9889  1.0747
18858TIP3   OH278064   1.115   1.351 105.787 -0.1288 -0.2184 -0.1714
18858TIP3    H178065   1.090   1.266 105.823 -1.1990 -0.4793 -1.4460
18858TIP3    H278066   1.042   1.375 105.731  0.8356  0.8348 -1.0127
18859TIP3   OH278067   1.096   0.473  21.195  0.2191  0.3025  0.3047
18859TIP3    H178068   1.161   0.404  21.178  0.1462  0.0908  0.8582
18859TIP3    H278069   1.016   0.441  21.152  1.2250  2.0685 -3.3168
18860TIP3   OH278070   0.535   0.624 101.334 -0.0772 -0.3534  0.4913
18860TIP3    H178071   0.584   0.697 101.372  0.0367 -0.0985 -0.1432
18860TIP3    H278072   0.566   0.547 101.382  0.6589 -0.1419  0.3570
18861TIP3   OH278073   1.748   0.135  82.091  0.5669  0.3886  0.0564
18861TIP3    H178074   1.830   0.122  82.043  0.2533  1.2938 -0.7635
18861TIP3    H278075   1.680   0.131  82.024 -0.0656 -0.3792  0.7334
18862TIP3   OH278076   1.458   2.460 109.726  0.4691  0.0874  0.2704
18862TIP3    H178077   1.402   2.536 109.740  0.5553 -0.0646  1.5617
18862TIP3    H278078   1.547   2.493 109.739  0.4857 -0.2916  1.2195
18863TIP3   OH278079   0.373   2.291  27.040  0.0596  0.0864 -0.2595
18863TIP3    H178080   0.392   2.384  27.030 -1.1534  0.4073  0.2626
18863TIP3    H278081   0.336   2.265  26.955 -1.5563  0.6066  0.2431
18864TIP3   OH278082   1.152   1.108  31.910 -0.1352  0.4732 -0.4608
18864TIP3    H178083   1.084   1.076  31.970  1.1039  0.0835  0.8014
18864TIP3    H278084   1.224   1.132  31.968  1.6152 -1.1264 -1.8678
18865TIP3   OH278085   0.218   0.540  20.245  0.2551  0.3224  0.5070
18865TIP3    H178086   0.123   0.553  20.248  0.2766  0.3256  1.8446
18865TIP3    H278087   0.254   0.618  20.287  0.9482  1.0278 -1.3044
18866TIP3   OH278088   1.679   1.643  52.573  0.2997  0.3898 -0.3544
18866TIP3    H178089   1.688   1.626  52.479  1.7113 -0.8416 -0.0494
18866TIP3    H278090   1.662   1.737  52.579 -1.0662  0.2836 -1.8803
18867TIP3   OH278091   2.368   2.368  74.650 -0.3859 -0.9027  0.2273
18867TIP3    H178092   2.338   2.345  74.738 -1.3846 -2.5500 -0.4841
18867TIP3    H278093   2.463   2.358  74.653 -0.5513 -2.6701  0.7088
18868TIP3   OH278094   2.665   2.301  88.423  0.0476  0.3100  0.1793
18868TIP3    H178095   2.593   2.242  88.444  0.5877 -0.5399 -0.2977
18868TIP3    H278096   2.627   2.389  88.428 -0.9102 -0.1051  0.3369
18869TIP3   OH278097   0.804   2.085  79.804  0.3833  0.6193  0.2792
18869TIP3    H178098   0.764   2.086  79.717 -0.5432 -0.8469  0.6451
18869TIP3    H278099   0.741   2.130  79.860  0.9169  1.4428  0.2400
18870TIP3   OH278100   0.306   2.530  95.224  0.1320  0.5081  0.0920
18870TIP3    H178101   0.364   2.529  95.300 -1.8037  1.3199  1.6568
18870TIP3    H278102   0.219   2.510  95.259 -0.8891  1.2127 -1.8599
18871TIP3   OH278103   2.097   0.024  21.835  0.2874 -0.0592  0.2025
18871TIP3    H178104   2.174  -0.033  21.824 -0.7707 -1.7107  1.0103
18871TIP3    H278105   2.115   0.072  21.916  0.0172 -1.2066  0.9516
18872TIP3   OH278106   1.538   0.890  97.837 -0.3140  0.4328  0.1473
18872TIP3    H178107   1.611   0.948  97.860  0.1326 -0.9638  2.6141
18872TIP3    H278108   1.540   0.885  97.742  2.8108  0.4827  0.1245
18873TIP3   OH278109   0.762   2.175  97.125 -0.3520 -0.1835  0.0889
18873TIP3    H178110   0.688   2.198  97.182  0.3756 -0.2573  1.0910
18873TIP3    H278111   0.780   2.083  97.147 -0.6545 -0.5041 -0.9594
18874TIP3   OH278112   1.161   2.414   1.121 -0.0733  0.2316  0.6923
18874TIP3    H178113   1.157   2.326   1.084 -1.8049  0.8784 -0.8109
18874TIP3    H278114   1.074   2.450   1.107  1.0774  2.8385 -0.4004
18875TIP3   OH278115   0.037   1.804  33.158  0.0354  0.0769  0.0458
18875TIP3    H178116   0.065   1.883  33.112 -1.0828 -0.6099 -1.9282
18875TIP3    H278117  -0.055   1.819  33.180  0.3296  0.0590  1.3546
18876TIP3   OH278118   2.277   1.837  22.510  0.3013  0.4438  0.3260
18876TIP3    H178119   2.248   1.784  22.584 -0.7654  2.7814  1.6874
18876TIP3    H278120   2.196   1.871  22.472  0.9541  1.3318 -0.2989
18877TIP3   OH278121   2.410   1.427   2.548 -0.5415  0.1007 -0.7117
18877TIP3    H178122   2.420   1.337   2.518  1.8363 -0.4729  1.4929
18877TIP3    H278123   2.327   1.427   2.596 -0.5559 -0.9066 -0.7153
18878TIP3   OH278124   1.200   2.282  94.379  0.0700  0.1784 -0.4396
18878TIP3    H178125   1.121   2.229  94.383 -1.0702  1.7696 -0.7047
18878TIP3    H278126   1.252   2.254  94.454 -1.5969  0.3800  0.8405
18879TIP3   OH278127   0.400   1.523  91.624  0.0418 -0.0532 -0.0545
18879TIP3    H178128   0.344   1.551  91.552 -0.7998 -0.2651  0.5006
18879TIP3    H278129   0.339   1.485  91.687  1.0071 -2.2126 -0.3433
18880TIP3   OH278130   0.619   1.016   8.310  0.3166 -0.4982  0.1664
18880TIP3    H178131   0.708   0.999   8.280  0.1768 -0.2396 -0.4028
18880TIP3    H278132   0.585   1.081   8.249  0.2375  0.5069  1.2454
18881TIP3   OH278133   1.410   2.644   2.952  0.2315  0.5262  0.1418
18881TIP3    H178134   1.418   2.568   2.894  0.3602  1.0797 -0.5829
18881TIP3    H278135   1.352   2.614   3.022  0.8035 -0.4439  0.2257
18882TIP3   OH278136   2.542   0.877  23.050  0.3305  0.4904  0.3034
18882TIP3    H178137   2.489   0.862  22.972  1.7617  1.4322 -0.9142
18882TIP3    H278138   2.478   0.894  23.120 -0.9718  0.7952 -0.9135
18883TIP3   OH278139   0.719   2.470 107.766 -0.6659  0.4895 -0.3204
18883TIP3    H178140   0.731   2.530 107.840 -0.0927  1.2200 -0.9910
18883TIP3    H278141   0.703   2.385 107.807 -3.3350  1.3802  0.7028
18884TIP3   OH278142   0.274   0.689  98.918  0.4673  0.3392  0.4245
18884TIP3    H178143   0.356   0.727  98.886  1.0868 -0.4148  1.0929
18884TIP3    H278144   0.297   0.646  99.000 -0.4134 -0.6702  0.1675
18885TIP3   OH278145   0.727   0.480   3.375 -0.1002 -0.3426  0.3923
18885TIP3    H178146   0.711   0.397   3.420 -0.8785 -1.2571 -1.4495
18885TIP3    H278147   0.820   0.476   3.351 -0.2383 -0.8972 -0.0691
18886TIP3   OH278148   1.375   1.011  26.526 -0.1776  0.5353  0.3770
18886TIP3    H178149   1.348   1.017  26.617  3.0561 -0.3717  1.5223
18886TIP3    H278150   1.444   1.077  26.517  0.3711 -0.1916 -1.0791
18887TIP3   OH278151   0.074   1.352  91.602  0.0151  0.2691  0.2351
18887TIP3    H178152   0.081   1.259  91.621  2.1786  1.0432  4.4863
18887TIP3    H278153   0.017   1.386  91.671 -1.2182  2.0987 -1.5643
18888TIP3   OH278154   0.338   0.387  89.997 -0.1853  0.0087  0.5068
18888TIP3    H178155   0.351   0.475  89.960 -0.2525  0.7569  2.1811
18888TIP3    H278156   0.289   0.402  90.078  1.9448 -1.2911  2.1288
18889TIP3   OH278157   1.839   2.151 101.421  0.3262 -0.3111 -0.1745
18889TIP3    H178158   1.773   2.107 101.475  0.7654 -0.0269  0.6131
18889TIP3    H278159   1.918   2.098 101.431  0.2438 -0.6162 -1.0627
18890TIP3   OH278160   0.694   1.136  30.590 -0.2280 -0.0985 -0.2565
18890TIP3    H178161   0.759   1.200  30.619 -0.0713 -0.7488  0.9137
18890TIP3    H278162   0.745   1.070  30.543 -0.5295  1.1450 -2.4470
18891TIP3   OH278163   1.851   0.747 101.493  0.1767  0.3047 -0.7578
18891TIP3    H178164   1.757   0.764 101.487  0.2649  0.4516 -1.9557
18891TIP3    H278165   1.858   0.659 101.531 -0.4783 -0.0892 -1.5218
18892TIP3   OH278166   0.534   0.256  31.671  0.3516 -0.1145  0.3627
18892TIP3    H178167   0.547   0.185  31.734  1.6234  0.8635  1.2711
18892TIP3    H278168   0.509   0.331  31.725  1.0641  0.6451 -0.3295
18893TIP3   OH278169   1.645   1.867 107.339  0.2033 -0.4022 -0.0207
18893TIP3    H178170   1.602   1.839 107.419  0.7136 -1.4064 -0.0829
18893TIP3    H278171   1.618   1.803 107.273  0.9531 -0.4519 -0.2987
18894TIP3   OH278172   0.337   2.323  18.274  0.2527 -0.2890 -0.3185
18894TIP3    H178173   0.432   2.312  18.282  0.1012 -1.1071  0.5281
18894TIP3    H278174   0.302   2.234  18.275 -0.5707  0.0300  0.0409
18895TIP3   OH278175   0.328   0.835  92.710  0.2594 -0.2968  0.1174
18895TIP3    H178176   0.264   0.791  92.767  0.1564  0.1729  0.3755
18895TIP3    H278177   0.350   0.770  92.644  2.3957 -1.8406  2.1718
18896TIP3   OH278178   2.561   0.027 104.319  0.5662 -0.3481  0.1640
18896TIP3    H178179   2.607   0.080 104.254 -1.6746 -0.3528 -1.5151
18896TIP3    H278180   2.498   0.087 104.359 -0.7854 -1.2653 -0.5118
18897TIP3   OH278181   2.672   0.986  98.417  0.1348  0.0041  0.1412
18897TIP3    H178182   2.592   0.983  98.365  0.4057 -0.2569 -0.2777
18897TIP3    H278183   2.676   0.902  98.461  0.4030 -0.1604 -0.1916
18898TIP3   OH278184   2.191   0.284   9.520  0.2323 -0.2320 -0.1090
18898TIP3    H178185   2.195   0.310   9.428 -1.1095 -0.5778 -0.2975
18898TIP3    H278186   2.160   0.193   9.517  0.4910 -0.3471  0.6696
18899TIP3   OH278187   1.466   2.048  17.802  0.2655  0.5935 -0.2261
18899TIP3    H178188   1.510   2.086  17.878  0.9206 -0.0866 -0.2582
18899TIP3    H278189   1.438   2.124  17.751 -0.4489  1.0632  0.8353
18900TIP3   OH278190   2.392   0.187  58.912 -0.0636  0.1573 -0.6325
18900TIP3    H178191   2.307   0.228  58.900 -0.4412 -1.0900 -2.5192
18900TIP3    H278192   2.414   0.204  59.004 -2.3065  0.5325 -0.1205
18901TIP3   OH278193   2.176   1.090  83.694  0.2179  0.2062  0.3157
18901TIP3    H178194   2.250   1.119  83.746 -0.4638 -0.2014  1.5448
18901TIP3    H278195   2.212   1.019  83.640  0.4406 -0.9322  1.8891
18902TIP3   OH278196   1.125   2.471 103.351 -0.3161 -0.6136 -0.4536
18902TIP3    H178197   1.189   2.532 103.388 -0.4498  0.0125 -1.2345
18902TIP3    H278198   1.135   2.391 103.404  0.3595 -0.1637  0.1154
18903TIP3   OH278199   1.425   0.342 102.647 -0.0565  0.4946  0.6086
18903TIP3    H178200   1.506   0.376 102.608 -0.4247  1.7478  0.8927
18903TIP3    H278201   1.453   0.304 102.730  0.2851  0.5982  0.5452
18904TIP3   OH278202   2.340   0.563  19.578 -0.2755 -0.0901 -0.1779
18904TIP3    H178203   2.257   0.584  19.535  0.8389  2.8813 -1.0980
18904TIP3    H278204   2.363   0.477  19.544 -1.8391  0.0470 -1.7082
18905TIP3   OH278205   1.714   1.389  25.376 -0.2950  0.1698 -0.1166
18905TIP3    H178206   1.654   1.421  25.308 -0.8040 -1.8698 -0.6970
18905TIP3    H278207   1.800   1.393  25.336 -0.3542  0.7118 -0.2000
18906TIP3   OH278208   0.344   0.989   5.051 -0.0615  0.2071 -0.1767
18906TIP3    H178209   0.257   1.018   5.078 -0.0302  1.2928 -1.1936
18906TIP3    H278210   0.329   0.909   5.001 -0.6283  1.0737 -1.4431
18907TIP3   OH278211   0.308   0.795  37.023 -0.0163  0.1339 -0.4632
18907TIP3    H178212   0.303   0.857  36.950 -0.3549  0.0296 -0.5308
18907TIP3    H278213   0.239   0.731  37.005  2.2419 -2.1034 -2.0883
18908TIP3   OH278214   1.700   0.233   2.865 -0.0842  0.0044 -0.0788
18908TIP3    H178215   1.693   0.139   2.876 -0.5315  0.2133  1.8145
18908TIP3    H278216   1.758   0.245   2.790 -0.0594 -1.7598 -0.3681
18909TIP3   OH278217   0.777   1.354  31.054 -0.4619 -0.5858  0.6295
18909TIP3    H178218   0.804   1.439  31.089  1.9745 -1.4856  1.1202
18909TIP3    H278219   0.715   1.376  30.984 -2.1025  1.4373  2.5560
18910TIP3   OH278220   0.424   2.657  23.625  0.8125  0.0249 -0.1534
18910TIP3    H178221   0.340   2.614  23.642  0.1656  1.3353  0.1446
18910TIP3    H278222   0.489   2.589  23.641 -0.0701 -0.4276  1.9520
18911TIP3   OH278223   2.456   2.659  14.748  0.0982  0.1635 -0.1770
18911TIP3    H178224   2.467   2.586  14.809 -0.9197  0.3025  0.2042
18911TIP3    H278225   2.363   2.656  14.724  0.5787 -0.2030 -2.1535
18912TIP3   OH278226   1.417   2.551  85.394 -0.1340 -0.2013 -0.9960
18912TIP3    H178227   1.443   2.576  85.482  2.6225 -1.4230 -1.3681
18912TIP3    H278228   1.435   2.628  85.340 -0.8254  0.1849 -0.6911
18913TIP3   OH278229   0.519   2.589  24.726 -0.0333  0.0626  0.3742
18913TIP3    H178230   0.599   2.538  24.732  0.1079  0.2279 -0.0778
18913TIP3    H278231   0.449   2.525  24.739  0.1161 -0.3939 -0.9184
18914TIP3   OH278232   1.335   2.373 102.464  0.0461  0.0064  0.0347
18914TIP3    H178233   1.250   2.330 102.452  0.5134 -0.8958 -0.1767
18914TIP3    H278234   1.397   2.300 102.470  0.7891  0.6557  0.2967
18915TIP3   OH278235   1.435   0.345  75.126  0.0822  0.0170  0.0216
18915TIP3    H178236   1.357   0.376  75.081 -2.5197 -1.5919  3.0342
18915TIP3    H278237   1.467   0.272  75.072  0.1329  1.2740 -1.7177
18916TIP3   OH278238   1.698   0.721  57.403 -0.5494  0.3864  0.0634
18916TIP3    H178239   1.755   0.723  57.326 -0.0806 -3.6144  0.1170
18916TIP3    H278240   1.639   0.647  57.387 -3.1116  1.8956  1.8436
18917TIP3   OH278241   0.961   2.047  53.066  0.1402  0.5550 -0.1576
18917TIP3    H178242   1.016   2.002  53.130  0.1646 -0.9891 -1.2184
18917TIP3    H278243   0.898   2.095  53.119  0.9467  0.3301  1.0425
18918TIP3   OH278244   0.880   0.123 111.556  0.3909 -0.1513  0.3550
18918TIP3    H178245   0.872   0.064 111.481  1.3036  0.3821 -0.1752
18918TIP3    H278246   0.939   0.078 111.616  1.4626  0.3968 -0.2522
18919TIP3   OH278247   2.020   0.567  89.790 -0.4320  0.2898 -0.1749
18919TIP3    H178248   1.978   0.491  89.750  0.8450 -1.7358  2.0396
18919TIP3    H278249   1.947   0.617  89.828 -1.1979 -0.8480 -0.0956
18920TIP3   OH278250   1.118   0.594 101.706 -0.1336 -0.3647 -0.2279
18920TIP3    H178251   1.111   0.686 101.729 -0.8938 -0.5084  0.1240
18920TIP3    H278252   1.033   0.571 101.668 -0.6829 -1.4236  1.5296
18921TIP3   OH278253   1.052   1.023  12.470  0.2736  0.5845  0.2800
18921TIP3    H178254   1.120   0.977  12.420  2.1757  2.0134  1.4089
18921TIP3    H278255   0.974   1.017  12.415  1.5539 -0.2808 -1.5584
18922TIP3   OH278256   1.270   0.965 110.996 -0.3321  0.2931 -0.4931
18922TIP3    H178257   1.208   1.029 111.030 -0.1467 -0.0147  0.4733
18922TIP3    H278258   1.221   0.884 110.990  0.1592 -0.1624  1.1031
18923TIP3   OH278259   1.384   1.595  52.285  0.2898 -0.0344  0.6191
18923TIP3    H178260   1.337   1.676  52.305  1.4623  0.1484  3.0930
18923TIP3    H278261   1.469   1.606  52.328  0.4305 -2.6230  1.1739
18924TIP3   OH278262   1.063   1.171  85.700 -0.3656  0.1713  0.1817
18924TIP3    H178263   1.096   1.081  85.708  0.1692  0.3945  0.5339
18924TIP3    H278264   1.097   1.201  85.616 -1.9393 -0.5074 -0.7586
18925TIP3   OH278265   1.500   0.096  95.578 -0.7888  0.6491 -0.3626
18925TIP3    H178266   1.454   0.171  95.541 -2.2902  0.7469  1.5325
18925TIP3    H278267   1.576   0.133  95.622 -0.9207  0.9261 -0.3726
18926TIP3   OH278268   0.496   0.085 110.863  0.0682  0.1986 -0.4205
18926TIP3    H178269   0.503   0.012 110.801  0.0270 -1.2030  1.1503
18926TIP3    H278270   0.489   0.163 110.808  0.9139 -0.8948 -2.1555
18927TIP3   OH278271   1.660   1.826  98.036  0.8171 -0.6947 -0.2534
18927TIP3    H178272   1.615   1.743  98.027  0.7594 -0.7625  0.5548
18927TIP3    H278273   1.642   1.854  98.126  2.2887 -0.6780  0.0674
18928TIP3   OH278274   1.032   1.032 111.867 -0.3011 -0.1045  0.2069
18928TIP3    H178275   0.971   1.104 111.885  0.8878  0.9329  0.1842
18928TIP3    H278276   1.072   1.014 111.952 -0.5899 -0.7594  0.2104
18929TIP3   OH278277   0.321   2.152   6.036 -0.0149 -0.0946 -0.3970
18929TIP3    H178278   0.234   2.152   6.076  0.2248 -0.7054  0.1361
18929TIP3    H278279   0.351   2.062   6.043  0.4381 -0.0056 -1.0835
18930TIP3   OH278280   0.728   1.638  93.355 -0.7960  0.1601 -0.6941
18930TIP3    H178281   0.670   1.595  93.292 -0.1468 -1.6095 -0.1524
18930TIP3    H278282   0.746   1.723  93.316 -1.2960 -0.4430 -2.3597
18931TIP3   OH278283   0.882   2.377   2.637 -0.1172  0.2459  0.3173
18931TIP3    H178284   0.873   2.321   2.713 -0.4749  1.7352  1.4136
18931TIP3    H278285   0.934   2.325   2.575 -1.7086 -1.8552  0.6380
18932TIP3   OH278286   1.320   2.159  18.222  0.2765 -0.2198  0.0694
18932TIP3    H178287   1.273   2.208  18.154  0.0273 -1.0318 -0.3572
18932TIP3    H278288   1.395   2.121  18.177  0.3841 -0.3543  0.3576
18933TIP3   OH278289   1.007   2.459  19.879  0.1522 -0.5014  0.0331
18933TIP3    H178290   0.970   2.541  19.912  1.3196 -0.1954  0.6309
18933TIP3    H278291   1.090   2.485  19.837 -0.1662 -1.1916 -1.0816
18934TIP3   OH278292   0.401   0.460   1.630 -0.4673 -0.2861 -0.1833
18934TIP3    H178293   0.338   0.452   1.559 -1.7049  1.6603  0.5939
18934TIP3    H278294   0.475   0.407   1.603 -1.6073 -1.0036 -2.0952
18935TIP3   OH278295   1.372   2.527  87.928  0.3072 -0.0860 -0.4617
18935TIP3    H178296   1.383   2.465  87.855 -0.3613  0.4633 -1.0513
18935TIP3    H278297   1.279   2.551  87.924  0.1610 -0.3863  0.8597
18936TIP3   OH278298   2.583   1.233  88.759  0.0636  0.0423  0.0123
18936TIP3    H178299   2.533   1.178  88.820 -0.0768 -0.7518 -0.7955
18936TIP3    H278300   2.573   1.190  88.674 -0.4302  1.5780 -0.7527
18937TIP3   OH278301   0.899   1.109  37.025 -0.4031  0.2936 -0.5234
18937TIP3    H178302   0.835   1.162  37.072  1.6062  1.5276  0.9847
18937TIP3    H278303   0.894   1.023  37.065 -3.0784 -0.5298 -2.3907
18938TIP3   OH278304   0.186   2.189  27.848 -0.1641 -0.0168  0.0130
18938TIP3    H178305   0.124   2.243  27.897 -0.5415 -0.3195 -0.1233
18938TIP3    H278306   0.133   2.148  27.779  0.3819  0.4896 -0.7194
18939TIP3   OH278307   0.256   0.463  11.664 -0.0910  0.6160 -0.1825
18939TIP3    H178308   0.223   0.423  11.584  2.4600 -0.2621 -0.8984
18939TIP3    H278309   0.246   0.394  11.731 -0.0852  0.5098 -0.2913
18940TIP3   OH278310   0.380   0.934  18.892  0.1417  0.2143 -0.0474
18940TIP3    H178311   0.364   0.851  18.848 -0.9124  0.0825  0.5454
18940TIP3    H278312   0.360   0.917  18.984  0.0818  1.0739  0.1065
18941TIP3   OH278313   0.954   0.445  75.367 -1.1148  0.2657 -0.4980
18941TIP3    H178314   0.875   0.412  75.325 -1.1689 -0.8152  0.4054
18941TIP3    H278315   0.926   0.469  75.456 -1.1213  3.0204 -1.1597
18942TIP3   OH278316   0.918   0.477  96.940 -0.1455 -0.3290  0.1034
18942TIP3    H178317   0.876   0.553  96.979 -1.6053 -0.5078 -1.0541
18942TIP3    H278318   0.980   0.447  97.007  2.5020  3.3952 -0.3855
18943TIP3   OH278319   2.257   1.412  84.678 -0.1005 -0.2518 -0.0209
18943TIP3    H178320   2.314   1.335  84.683 -0.4364 -0.5118 -0.1646
18943TIP3    H278321   2.183   1.391  84.735 -1.1392 -0.8475 -1.5383
18944TIP3   OH278322   1.498   1.810  87.329 -0.0731 -0.4745 -0.1336
18944TIP3    H178323   1.525   1.779  87.242  2.6056 -0.8924  0.7370
18944TIP3    H278324   1.427   1.751  87.355 -0.0131 -1.1808 -1.5104
18945TIP3   OH278325   2.168   1.273   8.442  0.1722  0.4386 -0.6521
18945TIP3    H178326   2.124   1.196   8.480  0.6548  0.2317 -0.4900
18945TIP3    H278327   2.225   1.304   8.513  1.0727  0.0592 -1.1974
18946TIP3   OH278328   0.867   0.302  79.900  0.1619 -0.2022  0.6934
18946TIP3    H178329   0.894   0.380  79.852 -1.3375 -0.7368 -1.1604
18946TIP3    H278330   0.771   0.310  79.906 -0.0326 -1.9185  0.3862
18947TIP3   OH278331   2.081   1.559 107.770  0.0062  0.3853 -0.1309
18947TIP3    H178332   1.998   1.595 107.738 -0.2301  0.6184  0.7274
18947TIP3    H278333   2.069   1.551 107.864  0.9468  0.3749 -0.0053
18948TIP3   OH278334   2.473   1.406  20.785 -0.2273 -0.2542  0.3810
18948TIP3    H178335   2.426   1.336  20.830 -1.7676 -0.2480 -1.1068
18948TIP3    H278336   2.513   1.363  20.709  0.2817  0.1770  0.3948
18949TIP3   OH278337   2.397   1.593 101.114  0.3999 -0.2642  0.5045
18949TIP3    H178338   2.460   1.615 101.045  0.3574  0.6417  0.7439
18949TIP3    H278339   2.442   1.527 101.167  1.5541  1.0324  1.2151
18950TIP3   OH278340   0.346   2.364  15.409 -0.0562  0.2496  0.1399
18950TIP3    H178341   0.436   2.384  15.384 -0.4821  0.1442 -1.5911
18950TIP3    H278342   0.293   2.403  15.341 -1.2491 -0.9811  0.3132
18951TIP3   OH278343   0.983   1.658  83.950 -0.2300  0.0120  0.0244
18951TIP3    H178344   1.062   1.643  83.898  0.5668  2.3468  0.4392
18951TIP3    H278345   0.942   1.736  83.911 -0.2373  1.1366  2.0975
18952TIP3   OH278346   1.857   1.352   8.282 -0.5846  0.0832  0.5865
18952TIP3    H178347   1.889   1.307   8.360  0.5505  1.5040  0.9777
18952TIP3    H278348   1.782   1.402   8.312 -0.3921  0.3174  0.6763
18953TIP3   OH278349   1.599   1.261  23.374 -0.1788  0.2966  0.0319
18953TIP3    H178350   1.689   1.270  23.343 -0.1991  1.7423  0.3406
18953TIP3    H278351   1.545   1.292  23.301 -0.4973 -1.3378 -0.4713
18954TIP3   OH278352   1.193   0.623 105.243  0.0155  0.8556  0.0878
18954TIP3    H178353   1.243   0.704 105.235 -1.1451  1.3935 -2.8290
18954TIP3    H278354   1.109   0.641 105.200  0.0132 -2.0936 -1.4291
18955TIP3   OH278355   1.644   2.149 109.213 -0.0668  0.3639  0.4912
18955TIP3    H178356   1.677   2.239 109.211  0.4617  0.1635 -0.6765
18955TIP3    H278357   1.629   2.127 109.121 -2.4187  0.0388  0.8797
18956TIP3   OH278358   2.625   0.979 104.813  0.2545  0.1480 -0.3676
18956TIP3    H178359   2.563   0.959 104.884 -0.4203 -0.1876 -1.0384
18956TIP3    H278360   2.666   0.895 104.793  1.4904  0.5002  0.5703
18957TIP3   OH278361   2.364   1.829  33.818  0.2777 -0.3346  0.2182
18957TIP3    H178362   2.341   1.825  33.911 -0.3304  0.4416  0.1120
18957TIP3    H278363   2.357   1.739  33.787 -1.9350 -0.2660  0.3683
18958TIP3   OH278364   0.545   0.773  17.168 -0.3990 -0.7601 -0.2018
18958TIP3    H178365   0.491   0.704  17.208  0.2804 -0.5442  1.1448
18958TIP3    H278366   0.627   0.771  17.217  0.4274 -0.3508 -1.4950
18959TIP3   OH278367   1.019   1.223 107.650  0.0674 -0.4494 -0.1713
18959TIP3    H178368   0.930   1.189 107.641  0.5246 -1.2064 -2.5495
18959TIP3    H278369   1.074   1.160 107.604  1.6948  0.5652  0.2971
18960TIP3   OH278370   0.963   2.388 111.296  0.0025  0.4246 -0.1010
18960TIP3    H178371   0.960   2.309 111.243  0.9575  0.7357 -0.6352
18960TIP3    H278372   0.984   2.458 111.234  0.5038  0.8860  0.5755
18961TIP3   OH278373   0.989   1.598   2.216  0.0092 -0.0102  0.1469
18961TIP3    H178374   0.931   1.526   2.192  0.8377 -0.8756  0.6956
18961TIP3    H278375   0.937   1.654   2.273 -0.4386 -0.5318  0.2519
18962TIP3   OH278376   0.307   1.559  92.693 -0.9570  0.3508  0.3283
18962TIP3    H178377   0.285   1.545  92.785 -0.7694  2.0484  0.6725
18962TIP3    H278378   0.398   1.589  92.695 -0.5574 -0.7568 -0.5322
18963TIP3   OH278379   1.724   1.601   2.814  0.2967 -0.1533 -0.1408
18963TIP3    H178380   1.772   1.609   2.897  2.2316 -0.7611 -1.1295
18963TIP3    H278381   1.668   1.525   2.827  1.2341 -0.7968  0.3451
18964TIP3   OH278382   1.710   0.856  26.517  0.4002 -0.0124  0.5790
18964TIP3    H178383   1.789   0.849  26.571  0.3362  2.4010  1.0897
18964TIP3    H278384   1.735   0.914  26.445  0.3222 -2.7220 -1.8505
18965TIP3   OH278385   2.274   1.411  75.710 -0.1726 -0.3202  0.2851
18965TIP3    H178386   2.279   1.333  75.656  0.2980  1.2259 -2.0199
18965TIP3    H278387   2.256   1.483  75.649  2.3790  1.8400  1.8445
18966TIP3   OH278388   0.334   2.675 106.522 -0.2017  0.3028 -0.4021
18966TIP3    H178389   0.247   2.642 106.500 -0.4844  0.0889  0.9596
18966TIP3    H278390   0.321   2.768 106.537 -0.1493  0.3168 -0.4458
18967TIP3   OH278391   0.223   1.995 110.831  0.3240  0.1458 -0.2488
18967TIP3    H178392   0.173   1.997 110.749  0.3779 -1.6508 -0.3687
18967TIP3    H278393   0.157   1.980 110.899  0.4037  0.5559 -0.0768
18968TIP3   OH278394   1.235   2.561  78.480  0.6035 -0.2920  0.2051
18968TIP3    H178395   1.253   2.549  78.387 -0.1163  1.9465 -0.2967
18968TIP3    H278396   1.314   2.532  78.524  0.7760 -1.8694 -1.0386
18969TIP3   OH278397   2.473   0.720  92.162 -0.1043 -0.2572  0.7829
18969TIP3    H178398   2.412   0.676  92.221  0.4782 -2.7307 -0.3247
18969TIP3    H278399   2.439   0.703  92.075  1.1902 -0.1618  0.2325
18970TIP3   OH278400   1.930   2.541  88.886  1.0532  0.5359  0.1577
18970TIP3    H178401   1.921   2.623  88.838 -1.6750  1.0852  1.3855
18970TIP3    H278402   1.993   2.490  88.836 -0.9453  1.3885 -3.5398
18971TIP3   OH278403   2.678   0.070  19.795  0.0311  0.4855  0.4451
18971TIP3    H178404   2.725   0.029  19.722  1.6778  0.4270  1.4848
18971TIP3    H278405   2.688   0.164  19.780  2.0912  0.5114  1.5559
18972TIP3   OH278406   1.530   1.246  33.871 -0.4194 -0.2083 -0.0069
18972TIP3    H178407   1.485   1.274  33.792 -0.4819 -1.0507 -0.2841
18972TIP3    H278408   1.597   1.186  33.840 -0.9489 -1.1578  0.6270
18973TIP3   OH278409   0.470   1.107  27.937 -0.7610 -0.0998  0.0737
18973TIP3    H178410   0.553   1.139  27.973 -0.8609  0.9215 -0.5653
18973TIP3    H278411   0.428   1.063  28.011  0.0055  0.0458  0.6135
18974TIP3   OH278412   0.726   2.090 108.674  0.1560  0.5721  0.6383
18974TIP3    H178413   0.705   2.184 108.676 -1.4065  0.2793 -0.2428
18974TIP3    H278414   0.657   2.051 108.621  0.0852 -1.2785  1.9920
18975TIP3   OH278415   0.563   1.546  20.380 -0.0375  0.1819 -0.1139
18975TIP3    H178416   0.647   1.513  20.411  0.4321  1.3722 -0.0507
18975TIP3    H278417   0.571   1.547  20.285 -0.5419 -1.0840 -0.1908
18976TIP3   OH278418   0.149   2.207   9.175 -0.2229  0.3294 -0.0420
18976TIP3    H178419   0.161   2.151   9.252 -0.1325  1.3668  0.7272
18976TIP3    H278420   0.165   2.150   9.101  0.7326 -0.4565  0.7349
18977TIP3   OH278421   1.719   0.406   1.605 -0.4148 -0.3642  0.4939
18977TIP3    H178422   1.707   0.494   1.568 -0.6804 -0.3075  0.7099
18977TIP3    H278423   1.689   0.414   1.695  0.3902 -0.4547  0.7830
18978TIP3   OH278424   0.988   1.636  52.431  0.6634 -0.6439  0.0155
18978TIP3    H178425   1.081   1.660  52.420  0.3330  0.2787 -1.0307
18978TIP3    H278426   0.955   1.631  52.341 -0.2438 -1.2130  0.3780
18979TIP3   OH278427   0.629   2.524 102.574  0.0613 -0.1105  0.0883
18979TIP3    H178428   0.689   2.591 102.542 -0.9415  1.2210  0.8689
18979TIP3    H278429   0.685   2.450 102.597  1.3163  0.8223  0.1338
18980TIP3   OH278430   2.478   2.358  83.302  0.3487 -0.1165  0.2454
18980TIP3    H178431   2.475   2.444  83.259  2.1716 -0.4796 -0.6867
18980TIP3    H278432   2.463   2.295  83.232 -1.4504 -0.6014  1.0027
18981TIP3   OH278433   1.557   1.645   9.548  0.0036 -0.1541 -0.6201
18981TIP3    H178434   1.642   1.683   9.570  0.0807 -0.1190 -0.9663
18981TIP3    H278435   1.499   1.674   9.618  0.1916  0.1356 -0.5816
18982TIP3   OH278436   2.118   1.569 110.997 -0.2314 -0.0367 -0.1158
18982TIP3    H178437   2.032   1.589 111.032  0.5407  1.6444  0.9330
18982TIP3    H278438   2.116   1.599 110.906  0.2278  3.1953  0.8224
18983TIP3   OH278439   1.634   2.435  82.246 -0.3153  0.1659 -0.1941
18983TIP3    H178440   1.692   2.402  82.177  1.0961  0.4323  0.8071
18983TIP3    H278441   1.676   2.406  82.327  0.0585  2.8750  0.6838
18984TIP3   OH278442   0.592   0.680  90.991 -0.1896 -0.4392  0.3613
18984TIP3    H178443   0.614   0.769  90.963 -3.4531  0.8539  1.4073
18984TIP3    H278444   0.644   0.667  91.070  0.9922  0.1779 -0.2864
18985TIP3   OH278445   0.303   2.633 100.848  0.3300  1.0328 -0.8939
18985TIP3    H178446   0.235   2.630 100.916 -0.8166 -1.8695 -1.9669
18985TIP3    H278447   0.259   2.671 100.772  1.0012  2.4088 -0.6099
18986TIP3   OH278448   1.047   1.222 106.135 -0.5802 -0.0656  0.7062
18986TIP3    H178449   1.085   1.174 106.061 -0.5872  2.5293 -1.0944
18986TIP3    H278450   1.123   1.248 106.187 -0.3959 -0.0777  0.4460
18987TIP3   OH278451   0.237   1.908 100.421  0.6822  0.0022  0.6834
18987TIP3    H178452   0.327   1.908 100.389  0.4029  1.1460 -0.1753
18987TIP3    H278453   0.206   1.819 100.407  1.1665  0.0132 -0.5184
18988TIP3   OH278454   0.556   1.976 102.397 -0.1950  0.1059  0.1287
18988TIP3    H178455   0.577   2.063 102.364 -1.1247  0.1071 -0.4962
18988TIP3    H278456   0.462   1.966 102.380  0.0109 -1.2347 -0.3387
18989TIP3   OH278457   0.321   2.142  12.081  0.0027 -0.3396  0.0701
18989TIP3    H178458   0.254   2.210  12.079  0.9631  0.6174 -0.7357
18989TIP3    H278459   0.291   2.081  12.149 -1.5211  0.2036 -0.0796
18990TIP3   OH278460   1.263   1.431  13.392 -0.5396 -0.3510  0.3988
18990TIP3    H178461   1.186   1.476  13.428 -1.7870 -1.9886 -0.1161
18990TIP3    H278462   1.228   1.368  13.329  1.3148 -0.4018 -0.6745
18991TIP3   OH278463   1.601   1.609  30.094  0.7767 -0.5278  0.2030
18991TIP3    H178464   1.535   1.634  30.029 -0.2984 -0.9608  1.0892
18991TIP3    H278465   1.683   1.645  30.060 -0.1723  1.5233 -0.0851
18992TIP3   OH278466   2.532   2.485  99.156  0.1096  0.4213  0.0908
18992TIP3    H178467   2.588   2.414  99.124  1.5305  0.9670  1.2722
18992TIP3    H278468   2.474   2.443  99.220  0.8130  0.2644  0.6425
18993TIP3   OH278469   2.209   2.472  25.671  0.2771  0.2038 -0.0938
18993TIP3    H178470   2.181   2.545  25.726  0.6714 -0.1732  0.6296
18993TIP3    H278471   2.142   2.466  25.603 -1.3399 -0.5484  1.4771
18994TIP3   OH278472   1.936   1.883  85.352  0.0353  0.0139  0.7635
18994TIP3    H178473   1.927   1.956  85.414 -0.4996  0.0289  0.6650
18994TIP3    H278474   1.848   1.849  85.341 -0.1322  0.9255 -1.0962
18995TIP3   OH278475   0.322   0.176  10.823  0.1135  0.4104  0.0233
18995TIP3    H178476   0.235   0.168  10.786 -0.1406  3.7593 -0.4024
18995TIP3    H278477   0.381   0.173  10.748  0.3702 -1.0187  0.2386
18996TIP3   OH278478   1.782   1.824  15.500  0.2408 -0.0939  0.2370
18996TIP3    H178479   1.774   1.822  15.596  1.4338  2.3704  0.4823
18996TIP3    H278480   1.858   1.770  15.481 -0.4128 -1.1671  0.5884
18997TIP3   OH278481   2.418   1.573  31.984 -0.2213 -0.1349 -0.1091
18997TIP3    H178482   2.451   1.612  31.903  0.5956  2.3782  1.3202
18997TIP3    H278483   2.327   1.604  31.990 -0.1030  0.1538  0.2021
18998TIP3   OH278484   0.369   0.837  24.299  0.0426  0.1752  0.3944
18998TIP3    H178485   0.425   0.759  24.301  0.0172  0.1718  2.1254
18998TIP3    H278486   0.398   0.885  24.221  1.4330 -0.5682  0.4140
18999TIP3   OH278487   2.398   2.066  21.782 -0.8023  0.3733 -0.2932
18999TIP3    H178488   2.455   2.021  21.845 -0.6458  1.6819  0.5368
18999TIP3    H278489   2.395   2.007  21.706  0.6480 -0.3063  0.1396
19000TIP3   OH278490   0.197   2.604   2.166  0.0712  0.2833  0.2466
19000TIP3    H178491   0.226   2.563   2.085 -0.3651 -0.5163  0.4798
19000TIP3    H278492   0.245   2.687   2.170 -0.8934  0.9662 -1.4773
19001TIP3   OH278493   0.976   0.266  95.470 -0.0005  0.1918 -0.6478
19001TIP3    H178494   0.927   0.227  95.397 -1.5949 -0.8193  0.8752
19001TIP3    H278495   0.912   0.321  95.515  0.6259 -0.0829  0.6187
19002TIP3   OH278496   1.483   0.417  80.225  0.1741 -0.3976  0.5618
19002TIP3    H178497   1.397   0.389  80.255 -0.2728 -1.3529 -1.4171
19002TIP3    H278498   1.494   0.374  80.140  1.2909  2.0865 -0.6843
19003TIP3   OH278499   1.878   2.676  45.293  0.1121  0.2714 -0.2258
19003TIP3    H178500   1.878   2.764  45.332  1.2648  0.2714 -0.1907
19003TIP3    H278501   1.956   2.634  45.328 -1.8506 -1.8230  2.0000
19004TIP3   OH278502   0.923   0.245  29.129 -0.2346 -0.3080  0.3238
19004TIP3    H178503   0.912   0.231  29.223 -1.0011  1.1537  0.4878
19004TIP3    H278504   0.987   0.179  29.102 -0.1185 -0.8544  1.8356
19005TIP3   OH278505   0.145   1.119  36.808 -0.1188  0.1232 -0.2485
19005TIP3    H178506   0.157   1.033  36.769  2.8339  0.2161  0.2521
19005TIP3    H278507   0.073   1.158  36.757  1.4221 -0.9369 -3.5569
19006TIP3   OH278508   1.329   1.119  22.799  0.2528 -0.1087 -0.4063
19006TIP3    H178509   1.361   1.035  22.835 -0.4272 -0.2654 -0.1507
19006TIP3    H278510   1.274   1.154  22.869 -0.5466 -0.0903 -1.0423
19007TIP3   OH278511   1.181   1.877  93.161 -0.3314  0.2373  0.2540
19007TIP3    H178512   1.235   1.905  93.087 -0.1569  0.4303  0.4493
19007TIP3    H278513   1.208   1.787  93.177 -2.7588 -1.0634 -2.0933
19008TIP3   OH278514   1.633   1.783  78.387  0.4651 -0.1301  0.1137
19008TIP3    H178515   1.706   1.804  78.445  1.0466  1.5275 -1.1361
19008TIP3    H278516   1.672   1.779  78.299 -1.3212  5.0571 -1.3046
19009TIP3   OH278517   1.391   1.400  89.889  0.4622  0.3772 -0.2183
19009TIP3    H178518   1.343   1.329  89.846  0.8726 -0.6656  0.9594
19009TIP3    H278519   1.370   1.478  89.838 -0.6108 -0.4557 -1.1095
19010TIP3   OH278520   0.792   1.962  16.272 -0.2060 -0.2734 -0.3709
19010TIP3    H178521   0.746   1.879  16.282 -1.3463  0.1979 -1.4589
19010TIP3    H278522   0.834   1.956  16.186  1.5098 -0.5463  0.4461
19011TIP3   OH278523   1.713   0.194  10.052  0.3996  0.3815  0.6156
19011TIP3    H178524   1.630   0.223  10.090  0.9781  1.1153  1.3556
19011TIP3    H278525   1.726   0.251   9.976 -0.2462 -0.4018 -0.1137
19012TIP3   OH278526   0.751   0.561  96.672  0.0767  0.0183  0.1324
19012TIP3    H178527   0.724   0.648  96.642  0.0754 -0.1943 -0.4844
19012TIP3    H278528   0.847   0.563  96.667  0.0523 -0.2580 -0.5794
19013TIP3   OH278529   0.044   0.808  28.734 -0.0311 -0.2521  0.5104
19013TIP3    H178530  -0.009   0.777  28.808 -2.6168 -0.6949 -1.3927
19013TIP3    H278531   0.070   0.896  28.759 -1.1189 -0.2547  1.8163
19014TIP3   OH278532   0.644   2.090   1.120 -0.5696  0.0536  0.4147
19014TIP3    H178533   0.630   2.147   1.044  1.6209  1.0122  0.6444
19014TIP3    H278534   0.586   2.126   1.187 -0.9899  0.5098 -0.1785
19015TIP3   OH278535   0.528   2.528 107.573  0.0872  0.0670  0.1511
19015TIP3    H178536   0.575   2.505 107.493  0.7156 -1.9287  1.0438
19015TIP3    H278537   0.595   2.525 107.642 -0.5407  1.2615  0.8639
19016TIP3   OH278538   2.303   1.229  12.140  0.0106 -0.0928  0.0590
19016TIP3    H178539   2.382   1.175  12.150 -0.8304 -1.1536  1.4452
19016TIP3    H278540   2.238   1.169  12.103 -0.4868  0.4111  0.1135
19017TIP3   OH278541   0.067   2.025   0.096 -0.5781 -0.0904 -0.2204
19017TIP3    H178542   0.015   2.055   0.021 -0.6749  0.4508  0.0547
19017TIP3    H278543   0.046   2.088   0.166  1.6083  1.0918 -0.5333
19018TIP3   OH278544   2.533   1.432  98.603  0.1519  0.1269 -0.1266
19018TIP3    H178545   2.482   1.356  98.629 -1.1063  0.9256 -0.1554
19018TIP3    H278546   2.471   1.505  98.608  0.7417  0.8332 -2.1012
19019TIP3   OH278547   2.213   2.497   7.931  0.1960  0.0776 -0.1522
19019TIP3    H178548   2.134   2.456   7.895  0.1862 -1.9287  1.9066
19019TIP3    H278549   2.197   2.500   8.026  1.8384  1.3721  0.1306
19020TIP3   OH278550   0.990   0.758  15.738  0.4120  0.4051 -0.0239
19020TIP3    H178551   0.941   0.721  15.811  0.7787  0.8746  0.4707
19020TIP3    H278552   0.927   0.763  15.666 -0.5794  2.0622  0.9266
19021TIP3   OH278553   0.771   1.281 104.471 -0.0712  0.1214 -0.0327
19021TIP3    H178554   0.716   1.261 104.396  1.0147 -1.0008 -0.5450
19021TIP3    H278555   0.833   1.347 104.439  0.4476 -0.4205 -0.1496
19022TIP3   OH278556   0.564   2.260  24.594 -0.5318 -0.0998  0.1283
19022TIP3    H178557   0.577   2.166  24.608 -0.7239 -0.5062 -2.1250
19022TIP3    H278558   0.652   2.294  24.578 -0.7831 -0.6723 -3.0087
19023TIP3   OH278559   0.229   2.180  87.882 -0.0226 -0.1959  0.0384
19023TIP3    H178560   0.208   2.199  87.973  0.3273 -0.4754  0.1848
19023TIP3    H278561   0.155   2.214  87.832  0.0034  0.3943  0.3931
19024TIP3   OH278562   1.017   1.680  32.384 -0.0116  0.2460 -0.1145
19024TIP3    H178563   1.054   1.637  32.307 -2.0876 -0.6032 -0.7007
19024TIP3    H278564   1.065   1.763  32.390  1.4537 -0.4863 -1.2153
19025TIP3   OH278565   1.350   1.543  97.180  0.0258  0.4701 -0.2661
19025TIP3    H178566   1.439   1.538  97.214  0.2286 -0.7350 -0.9023
19025TIP3    H278567   1.316   1.454  97.186 -1.1280  0.8964 -0.0785
19026TIP3   OH278568   1.879   2.374  34.432 -0.5428  0.4017 -0.1976
19026TIP3    H178569   1.787   2.357  34.453 -0.9270  1.6421 -0.7856
19026TIP3    H278570   1.876   2.428  34.353  0.6930  0.5995 -0.1255
19027TIP3   OH278571   0.425   1.354  15.739 -0.5313 -0.0521  0.0364
19027TIP3    H178572   0.464   1.349  15.652  0.4194 -0.6945  0.4850
19027TIP3    H278573   0.437   1.446  15.765 -1.9781  0.4684 -1.0060
19028TIP3   OH278574   0.284   0.332  25.210  0.0616 -0.4358 -0.4952
19028TIP3    H178575   0.299   0.242  25.181  0.2176  0.1925 -2.4906
19028TIP3    H278576   0.371   0.365  25.231 -0.0137 -0.7894  0.3984
19029TIP3   OH278577   2.557   1.461  37.227 -0.2335 -0.2969 -0.1322
19029TIP3    H178578   2.510   1.490  37.305  2.8759  1.1323  1.3830
19029TIP3    H278579   2.640   1.427  37.259  1.2185  0.4031 -2.7783
19030TIP3   OH278580   0.335   2.037  77.430  0.3346  0.3200  0.4021
19030TIP3    H178581   0.412   2.020  77.486  0.3420  0.6693  0.5003
19030TIP3    H278582   0.291   2.110  77.473 -0.0819  0.0907  0.3681
19031TIP3   OH278583   0.171   2.123  63.510 -0.3367  0.0027  0.1649
19031TIP3    H178584   0.197   2.196  63.566 -0.0435 -0.9463  1.3050
19031TIP3    H278585   0.142   2.164  63.429 -2.1414  1.5408  1.5030
19032TIP3   OH278586   1.898   0.450  35.330 -0.1317 -0.0325  0.0556
19032TIP3    H178587   1.887   0.408  35.415 -0.0198 -0.6426 -0.2286
19032TIP3    H278588   1.822   0.509  35.323 -0.4203 -0.3651  0.3504
19033TIP3   OH278589   0.120   0.797  10.171  0.4229  0.0584  0.3283
19033TIP3    H178590   0.131   0.704  10.193 -2.7032 -0.3740  0.5095
19033TIP3    H278591   0.172   0.843  10.237  2.2125 -1.5203  0.1205
19034TIP3   OH278592   0.502   0.832 107.158  0.0639  0.0492 -0.5317
19034TIP3    H178593   0.545   0.747 107.166 -0.7884 -0.3094  0.5011
19034TIP3    H278594   0.511   0.872 107.245 -0.4608  0.5633 -0.7070
19035TIP3   OH278595   0.217   1.430  73.411 -0.0928 -0.0488 -0.5433
19035TIP3    H178596   0.191   1.340  73.431  3.2253 -0.8189  0.8681
19035TIP3    H278597   0.147   1.463  73.353 -1.7150 -3.2732 -0.6206
19036TIP3   OH278598   1.986   1.650  79.288 -0.3971  0.5501  0.3613
19036TIP3    H178599   1.999   1.571  79.235  3.0107  0.9067  0.4534
19036TIP3    H278600   1.944   1.618  79.368  0.8168 -1.2321  0.3531
19037TIP3   OH278601   0.268   1.617  35.057 -0.1085 -0.6391  0.0195
19037TIP3    H178602   0.205   1.670  35.008  0.1302  2.2654  2.5694
19037TIP3    H278603   0.214   1.555  35.105 -0.5229 -1.6929 -1.6944
19038TIP3   OH278604   0.528   2.181  89.844  0.2611 -0.3753  0.9787
19038TIP3    H178605   0.574   2.218  89.919  1.4153  0.8019 -0.2517
19038TIP3    H278606   0.592   2.183  89.773 -1.6253  1.2800 -0.8177
19039TIP3   OH278607   1.014   0.844  24.766  0.0396  0.2295  0.2466
19039TIP3    H178608   1.059   0.891  24.696 -0.9388  0.8419  0.0012
19039TIP3    H278609   1.023   0.901  24.843  0.8728 -0.3088  0.5511
19040TIP3   OH278610   2.495   0.199  32.038  0.0459  0.2903  0.2792
19040TIP3    H178611   2.554   0.268  32.067  0.8074 -1.7345  4.1868
19040TIP3    H278612   2.506   0.129  32.102 -2.1603 -2.7016 -2.2832
19041TIP3   OH278613   2.295   2.500  96.992 -0.2697  0.4627 -0.3223
19041TIP3    H178614   2.239   2.423  96.980 -0.5569  0.2867  1.7350
19041TIP3    H278615   2.370   2.467  97.042 -0.7312  1.6144  1.1802
19042TIP3   OH278616   0.951   0.684  16.093 -0.3349 -0.1433  0.1682
19042TIP3    H178617   0.878   0.688  16.030  0.2285  0.6227 -0.4633
19042TIP3    H278618   0.918   0.631  16.165 -0.4638 -2.4706 -1.4925
19043TIP3   OH278619   0.901   2.412  20.906  0.3490  0.2644  0.5243
19043TIP3    H178620   0.827   2.423  20.965  0.8900 -1.4200  1.6106
19043TIP3    H278621   0.977   2.442  20.956  0.6384  0.1393  0.1689
19044TIP3   OH278622   0.669   0.730  28.068  0.5597 -0.0724 -0.0481
19044TIP3    H178623   0.694   0.673  28.140  2.2016  1.3050  0.5471
19044TIP3    H278624   0.632   0.808  28.111 -0.9991 -0.3420 -0.8126
19045TIP3   OH278625   1.608   2.154 107.572 -0.0164  0.2075  0.1396
19045TIP3    H178626   1.543   2.160 107.643  0.5534 -0.3597  0.7337
19045TIP3    H278627   1.560   2.113 107.500 -0.3427 -0.1567  0.5531
19046TIP3   OH278628   0.565   1.387  36.687  0.0975  0.4215 -0.2546
19046TIP3    H178629   0.475   1.367  36.713 -0.4950  0.7394 -1.9281
19046TIP3    H278630   0.568   1.482  36.684  1.2151  0.5155  2.0513
19047TIP3   OH278631   1.667   0.281  17.511 -0.0217  0.8792 -0.0996
19047TIP3    H178632   1.743   0.227  17.532 -0.5152  1.2019  3.0304
19047TIP3    H278633   1.703   0.368  17.493  0.5063  0.3905 -1.5262
19048TIP3   OH278634   2.280   0.070  91.872  0.0600  0.1192 -0.3544
19048TIP3    H178635   2.296   0.028  91.787  1.0712  0.2937 -0.2549
19048TIP3    H278636   2.234   0.151  91.851 -0.0017 -0.0080 -0.7074
19049TIP3   OH278637   1.109   1.258  37.596 -0.0636  0.2033 -0.3726
19049TIP3    H178638   1.048   1.287  37.528 -1.0784  0.3913  0.5912
19049TIP3    H278639   1.064   1.278  37.678  0.3049 -1.7819  0.3495
19050TIP3   OH278640   1.352   0.030  34.814 -0.4301  0.0935  0.4070
19050TIP3    H178641   1.257   0.040  34.813 -0.5181 -0.2652  2.5752
19050TIP3    H278642   1.383   0.103  34.867  0.5012 -0.0215  0.0382
19051TIP3   OH278643   2.256   0.384  12.798 -0.1905  0.9962 -0.0962
19051TIP3    H178644   2.336   0.437  12.801  0.2350  0.4121 -0.7765
19051TIP3    H278645   2.227   0.380  12.889  0.0389  1.9749  0.0405
19052TIP3   OH278646   1.364   1.972  76.643  0.9151 -0.0127 -0.5095
19052TIP3    H178647   1.442   1.961  76.589  1.1295  0.7089 -0.3525
19052TIP3    H278648   1.293   1.934  76.591  1.1938  0.2530 -1.0829
19053TIP3   OH278649   1.178   2.505 106.399  0.1056 -0.9570  0.2858
19053TIP3    H178650   1.250   2.487 106.458  0.0700  0.8674  0.9634
19053TIP3    H278651   1.202   2.462 106.317  0.3969 -3.0891  1.4430
19054TIP3   OH278652   1.281   1.269  81.889  0.7327  0.4337 -0.3291
19054TIP3    H178653   1.277   1.202  81.958  2.3430 -0.8354 -1.4122
19054TIP3    H278654   1.334   1.230  81.820 -2.2426  0.9452 -3.1369
19055TIP3   OH278655   2.027   2.668 101.404 -0.8655 -0.1406 -0.2463
19055TIP3    H178656   2.099   2.640 101.348  0.1743 -1.1174  1.4788
19055TIP3    H278657   1.962   2.597 101.397 -0.2728 -0.7900  0.5339
19056TIP3   OH278658   1.212   1.835  96.156  0.6322 -0.3485  0.6211
19056TIP3    H178659   1.179   1.854  96.068 -1.0415  0.7639  1.4478
19056TIP3    H278660   1.135   1.810  96.206  1.6123 -1.3010  1.7199
19057TIP3   OH278661   0.297   1.292  11.255 -0.9584 -0.3641 -0.0338
19057TIP3    H178662   0.223   1.270  11.313 -1.6980  0.7570 -0.5168
19057TIP3    H278663   0.265   1.274  11.167 -0.1952 -1.0758 -0.1800
19058TIP3   OH278664   2.664   1.107  96.227  0.0366  0.3083  0.5069
19058TIP3    H178665   2.726   1.093  96.155 -0.2732  0.4366  0.2120
19058TIP3    H278666   2.714   1.155  96.293  0.2351  0.4501  0.2508
19059TIP3   OH278667   2.352   0.976  96.396 -0.2551 -0.1190 -0.1299
19059TIP3    H178668   2.354   0.950  96.303  0.2379 -0.5672  0.0044
19059TIP3    H278669   2.292   1.051  96.398 -0.7471 -0.4782 -0.7192
19060TIP3   OH278670   1.291   2.380  90.405  0.1585  0.2994  0.2282
19060TIP3    H178671   1.283   2.404  90.313 -0.4432 -1.4846 -0.2366
19060TIP3    H278672   1.378   2.412  90.431  0.8850 -0.3098 -1.3429
19061TIP3   OH278673   2.621   1.440  25.261 -0.9112 -0.6292 -0.6055
19061TIP3    H178674   2.623   1.530  25.292  1.0743 -1.5234  2.2806
19061TIP3    H278675   2.594   1.447  25.169 -3.7023  2.5767  0.2776
19062TIP3   OH278676   1.642   1.758   7.316  1.0150  0.0306  0.1942
19062TIP3    H178677   1.621   1.806   7.395  0.1871  1.0834 -0.6282
19062TIP3    H278678   1.667   1.671   7.346 -1.3975 -0.2839  1.4760
19063TIP3   OH278679   1.147   0.832  83.335  0.2066  0.3469 -0.6198
19063TIP3    H178680   1.141   0.854  83.242 -1.7223 -2.3209 -1.2500
19063TIP3    H278681   1.132   0.914  83.381 -0.3557  1.4465 -2.6826
19064TIP3   OH278682   1.835   1.291  32.154  0.7008  0.2681 -0.1005
19064TIP3    H178683   1.855   1.321  32.242  0.6859 -0.7029  0.2512
19064TIP3    H278684   1.781   1.213  32.167  0.2311  0.4361 -0.9775
19065TIP3   OH278685   1.302   1.400  90.976 -0.3379  0.8473 -0.2540
19065TIP3    H178686   1.226   1.369  90.926 -1.0089  0.2713  1.0839
19065TIP3    H278687   1.291   1.495  90.980 -0.8878  0.7880 -0.2429
19066TIP3   OH278688   0.385   0.493  91.028 -0.3958  0.1114  0.6743
19066TIP3    H178689   0.410   0.458  91.114 -2.2188 -1.4589  0.6077
19066TIP3    H278690   0.440   0.571  91.018  1.2367 -0.7284  2.4113
19067TIP3   OH278691   0.390   2.651  21.500 -0.0752 -0.5324 -0.3352
19067TIP3    H178692   0.480   2.639  21.532 -0.4826 -1.0573  0.6503
19067TIP3    H278693   0.336   2.652  21.579 -1.0848 -1.5630 -0.9734
19068TIP3   OH278694   1.892   0.413  10.281  0.0792  0.1308 -0.2883
19068TIP3    H178695   1.956   0.342  10.278 -0.4273 -0.3608  0.3438
19068TIP3    H278696   1.912   0.465  10.203  1.9399  0.6046  0.4465
19069TIP3   OH278697   1.033   2.313  34.440 -0.3647 -0.1468 -0.2279
19069TIP3    H178698   1.062   2.224  34.457  1.4944  0.5839  0.8017
19069TIP3    H278699   1.114   2.365  34.440 -1.4728  1.6975  0.2802
19070TIP3   OH278700   2.383   1.178  10.135  0.0932 -0.8543  0.0206
19070TIP3    H178701   2.438   1.251  10.108 -0.2771 -0.3509  0.6082
19070TIP3    H278702   2.434   1.133  10.203  0.1356 -0.8828 -0.0299
19071TIP3   OH278703   2.476   2.311   2.176 -0.1578  0.0826  0.1626
19071TIP3    H178704   2.480   2.357   2.260 -0.5914  0.8537 -0.2254
19071TIP3    H278705   2.539   2.356   2.121 -0.7778  0.3917 -0.3047
19072TIP3   OH278706   2.219   0.145  98.498 -0.6987 -0.1408  0.6690
19072TIP3    H178707   2.155   0.084  98.461  0.9817 -0.5373 -1.7796
19072TIP3    H278708   2.244   0.201  98.425 -0.6589  2.2174  2.3769
19073TIP3   OH278709   0.744   2.347 111.063 -0.1523 -0.1708 -0.5755
19073TIP3    H178710   0.745   2.273 111.124  1.0687  1.0827  0.9797
19073TIP3    H278711   0.704   2.419 111.113  0.3421  0.7315 -1.4520
19074TIP3   OH278712   0.738   0.307  16.994  0.4479  0.2231  0.0509
19074TIP3    H178713   0.745   0.401  16.976  0.3871  0.4363  1.0720
19074TIP3    H278714   0.828   0.276  16.996  0.4441  0.1350 -0.8806
19075TIP3   OH278715   2.264   0.519 111.096  0.0071  0.1041 -0.1977
19075TIP3    H178716   2.211   0.454 111.143  0.0754 -0.5484 -1.0016
19075TIP3    H278717   2.342   0.530 111.149 -0.2594 -0.0493  0.2290
19076TIP3   OH278718   2.281   0.457  80.683 -0.0345  0.3610  0.1693
19076TIP3    H178719   2.297   0.543  80.644 -0.0717  1.4101  2.2893
19076TIP3    H278720   2.188   0.441  80.671 -0.0111  0.5853 -0.3006
19077TIP3   OH278721   2.491   0.575  27.340  0.1227 -0.0159  0.9499
19077TIP3    H178722   2.538   0.617  27.268  0.8860 -1.5956  0.4735
19077TIP3    H278723   2.560   0.549  27.401 -0.3820 -0.1295  1.4808
19078TIP3   OH278724   1.906   0.594  57.258  0.3526  0.3421  0.1294
19078TIP3    H178725   1.898   0.528  57.190 -1.3524 -0.4670  1.0479
19078TIP3    H278726   1.919   0.544  57.339 -2.2172  0.9773  1.0286
19079TIP3   OH278727   1.567   1.803  11.880 -0.1639  0.5856  0.2529
19079TIP3    H178728   1.635   1.870  11.887  1.6198 -1.0014 -0.6066
19079TIP3    H278729   1.613   1.721  11.902 -2.0334 -0.4693  0.4593
19080TIP3   OH278730   1.091   0.798  88.707 -0.0892  0.1513  0.1265
19080TIP3    H178731   1.049   0.866  88.655  0.7922 -0.5955 -1.6537
19080TIP3    H278732   1.022   0.732  88.720 -1.2631  1.7314  2.7528
19081TIP3   OH278733   1.051   0.764  85.681 -0.7695  0.5772 -0.6580
19081TIP3    H178734   1.087   0.749  85.593  0.9946 -1.9846  0.3778
19081TIP3    H278735   1.006   0.682  85.702  0.2543  0.5087  1.4318
19082TIP3   OH278736   1.137   1.492  81.900 -0.0038  0.3270 -0.2587
19082TIP3    H178737   1.188   1.414  81.922 -0.1547  0.1552 -0.5168
19082TIP3    H278738   1.202   1.563  81.897  0.1885  0.1468 -0.3780
19083TIP3   OH278739   0.123   0.589  13.041  0.3172 -0.1565 -0.0349
19083TIP3    H178740   0.162   0.585  13.128 -0.0302  1.4096  0.2134
19083TIP3    H278741   0.041   0.637  13.053  0.6745  0.8506 -1.3595
19084TIP3   OH278742   0.248   0.928  10.385  0.0196 -0.0579 -0.2692
19084TIP3    H178743   0.244   0.879  10.467  0.9684  0.6986  0.2588
19084TIP3    H278744   0.342   0.936  10.366 -0.1521  0.6959 -0.8534
19085TIP3   OH278745   0.732   0.191  16.142  0.4850  0.0529  0.0552
19085TIP3    H178746   0.655   0.152  16.183 -0.2804  1.6220  0.1713
19085TIP3    H278747   0.703   0.214  16.054  1.5726 -1.5898 -0.7780
19086TIP3   OH278748   1.371   2.207 104.583  0.1124 -0.3633  0.1317
19086TIP3    H178749   1.455   2.246 104.561 -0.4010  0.6860 -0.0158
19086TIP3    H278750   1.376   2.118 104.546  0.8421 -0.0409 -0.5847
19087TIP3   OH278751   1.718   1.906  90.644 -0.3586  0.1510  0.0517
19087TIP3    H178752   1.728   1.812  90.631 -0.3058  0.1490  0.1061
19087TIP3    H278753   1.803   1.936  90.675 -0.4497  0.1750  0.2814
19088TIP3   OH278754   2.136   1.890  12.814 -0.3745 -0.3284  0.1658
19088TIP3    H178755   2.154   1.903  12.721 -1.9533  2.1028  0.1071
19088TIP3    H278756   2.178   1.965  12.856 -1.2072 -0.4246  1.2013
19089TIP3   OH278757   1.058   0.364  99.566 -0.2817  0.8463  0.2133
19089TIP3    H178758   0.976   0.343  99.521 -0.2122  0.7438  0.1366
19089TIP3    H278759   1.059   0.306  99.642  0.7649 -0.7422 -0.9451
19090TIP3   OH278760   0.082   2.073  36.686  0.2339 -0.1539  0.5726
19090TIP3    H178761   0.084   1.983  36.655  1.7343 -0.2413  0.8462
19090TIP3    H278762   0.050   2.067  36.776 -1.6390 -0.1726 -0.0621
19091TIP3   OH278763   0.726   1.470  81.519  0.4498 -0.0461 -0.2193
19091TIP3    H178764   0.772   1.460  81.603  1.1174  1.0728 -0.4362
19091TIP3    H278765   0.672   1.548  81.531  0.2987 -0.0743 -0.7169
19092TIP3   OH278766   1.386   0.669   1.953  0.4382 -0.4495 -0.2638
19092TIP3    H178767   1.480   0.653   1.963  1.0459  2.9154  0.8639
19092TIP3    H278768   1.380   0.724   1.875 -0.6910 -1.0929 -0.6484
19093TIP3   OH278769   0.903   0.498  84.745 -0.5284 -0.4350 -0.0668
19093TIP3    H178770   0.879   0.573  84.691 -0.4469 -1.1345 -1.1143
19093TIP3    H278771   0.820   0.452  84.760 -0.5272 -0.3266  0.2777
19094TIP3   OH278772   1.683   0.442  74.700 -0.4878 -0.1485 -0.4108
19094TIP3    H178773   1.656   0.469  74.612  0.3051 -2.2193 -1.3573
19094TIP3    H278774   1.621   0.373  74.724  1.1893 -1.8727 -0.7740
19095TIP3   OH278775   2.464   0.681  84.614  0.1002 -0.6080 -0.1333
19095TIP3    H178776   2.488   0.659  84.704  1.2229 -0.3246 -0.3458
19095TIP3    H278777   2.376   0.646  84.603 -0.3997  0.0905  1.3414
19096TIP3   OH278778   2.474   1.109  94.438 -0.1067  0.0520 -0.4862
19096TIP3    H178779   2.526   1.188  94.451  0.3125 -0.1782 -0.7150
19096TIP3    H278780   2.429   1.124  94.354  0.0702 -0.0036 -0.5938
19097TIP3   OH278781   2.412   0.767 109.809 -1.0199  0.1489 -0.3546
19097TIP3    H178782   2.342   0.778 109.744  0.0463  0.9248 -1.4027
19097TIP3    H278783   2.455   0.853 109.813  0.0843 -0.4056  0.0231
19098TIP3   OH278784   0.959   0.910  35.390  0.3619 -0.4710 -0.3155
19098TIP3    H178785   1.024   0.882  35.326  1.8816 -1.2625  1.5089
19098TIP3    H278786   1.009   0.947  35.462 -1.3642  1.8725 -0.1708
19099TIP3   OH278787   2.421   1.472   8.936 -0.0634 -0.3033 -0.3009
19099TIP3    H178788   2.391   1.413   9.005 -1.0184  2.3245  1.6995
19099TIP3    H278789   2.516   1.462   8.934 -0.0461 -0.6214  1.2609
19100TIP3   OH278790   0.929   1.329   0.728  0.0869  0.1901  0.3983
19100TIP3    H178791   0.870   1.261   0.760 -0.7968  0.2658 -0.9800
19100TIP3    H278792   0.920   1.400   0.792  0.0527 -0.4855  1.1604
19101TIP3   OH278793   0.413   1.002 107.792  0.6458 -0.2939  0.6292
19101TIP3    H178794   0.441   1.082 107.747 -0.1878  1.0924  2.4687
19101TIP3    H278795   0.467   0.933 107.753  2.7154  1.4282  0.2435
19102TIP3   OH278796   1.520   1.216  24.221 -0.0443  0.1040  0.3615
19102TIP3    H178797   1.533   1.248  24.132  0.1387  0.6032  0.5654
19102TIP3    H278798   1.606   1.226  24.263  0.8107 -3.1020 -0.3209
19103TIP3   OH278799   1.639   0.059  26.862  0.2201 -0.0781  0.0106
19103TIP3    H178800   1.720   0.103  26.886 -0.5874  1.9318 -0.7565
19103TIP3    H278801   1.569   0.112  26.900 -0.7838 -1.3087 -0.0335
19104TIP3   OH278802   2.293   2.160  93.069  0.2999 -0.5210  0.4327
19104TIP3    H178803   2.235   2.087  93.090 -0.2856 -0.1713  0.0356
19104TIP3    H278804   2.295   2.163  92.973  0.5425 -0.1862  0.4447
19105TIP3   OH278805   0.174   0.645   2.362  0.0822 -0.5516  0.2153
19105TIP3    H178806   0.101   0.683   2.315 -0.3564 -1.3822  0.2117
19105TIP3    H278807   0.250   0.661   2.306  0.0362  0.8847  0.5177
19106TIP3   OH278808   1.319   0.030  35.736  0.2684 -0.0886  0.5278
19106TIP3    H178809   1.276   0.010  35.819  0.3910 -0.9825  0.3882
19106TIP3    H278810   1.290   0.118  35.714 -1.5856 -0.6819  0.3991
19107TIP3   OH278811   1.463   2.050   5.073 -0.3351  1.1526  0.6100
19107TIP3    H178812   1.513   2.055   5.154 -0.3879 -0.9102  0.8397
19107TIP3    H278813   1.520   2.004   5.012 -1.8101 -1.2646  0.8806
19108TIP3   OH278814   1.794   2.054 109.743  0.0674  0.0829  0.0088
19108TIP3    H178815   1.883   2.027 109.719  0.1428 -0.3998  0.8134
19108TIP3    H278816   1.746   2.052 109.660  0.7787  0.2796 -0.4208
19109TIP3   OH278817   0.980   0.333 106.614 -0.0583  0.2682  0.2650
19109TIP3    H178818   0.907   0.306 106.671  0.3763  0.1985  0.7892
19109TIP3    H278819   0.995   0.425 106.637 -1.0542  0.7862 -1.0079
19110TIP3   OH278820   2.607   2.283  35.936 -0.4067 -0.2287 -1.2358
19110TIP3    H178821   2.567   2.204  35.971 -2.5281  0.6542 -1.5273
19110TIP3    H278822   2.637   2.331  36.013  2.6916 -2.0903 -1.1059
19111TIP3   OH278823   0.227   1.133  33.181 -0.1755  0.3073  0.0477
19111TIP3    H178824   0.317   1.103  33.163 -0.3026  0.0718 -0.1978
19111TIP3    H278825   0.228   1.226  33.158  0.6249  0.8889  2.2261
19112TIP3   OH278826   1.857   1.386 109.236 -0.0799 -0.2008 -0.4789
19112TIP3    H178827   1.935   1.440 109.252  0.1649 -0.8054  0.4482
19112TIP3    H278828   1.784   1.441 109.262  0.1805 -0.3723  0.6592
19113TIP3   OH278829   0.880   1.633  76.882 -0.3661 -0.3071  0.4913
19113TIP3    H178830   0.865   1.723  76.913 -1.1510 -0.4148  0.4466
19113TIP3    H278831   0.802   1.585  76.911 -0.5948 -0.6595 -0.6682
19114TIP3   OH278832   1.387   0.320  88.690 -0.0983 -0.4919 -0.2058
19114TIP3    H178833   1.471   0.304  88.734 -1.3594 -1.7472  1.8902
19114TIP3    H278834   1.394   0.271  88.608  1.0312 -0.9770  0.1550
19115TIP3   OH278835   0.461   0.096   2.139  0.3755 -0.0198 -0.2035
19115TIP3    H178836   0.474   0.151   2.217  0.7685 -0.6253  0.1724
19115TIP3    H278837   0.449   0.158   2.067 -2.7894  0.6159  0.7353
19116TIP3   OH278838   2.165   1.800 111.763 -0.1895  0.0735 -0.0405
19116TIP3    H178839   2.102   1.854 111.810 -0.5187 -0.7422  0.4822
19116TIP3    H278840   2.133   1.711 111.774  0.6602 -0.2867 -0.3879
19117TIP3   OH278841   0.196   2.538  27.333  0.5344  0.0675 -0.3262
19117TIP3    H178842   0.276   2.555  27.383 -0.9663  0.9792  1.9747
19117TIP3    H278843   0.136   2.608  27.360 -1.3889 -1.1912 -1.1283
19118TIP3   OH278844   0.646   0.337  24.227  0.3695 -0.0478 -0.2734
19118TIP3    H178845   0.741   0.336  24.220  0.4658  0.8243  0.6532
19118TIP3    H278846   0.616   0.340  24.136  1.2577  0.7598 -0.5625
19119TIP3   OH278847   2.157   2.200  34.253 -0.1954 -0.2243 -0.4372
19119TIP3    H178848   2.251   2.185  34.268 -0.3315 -1.6230 -0.8590
19119TIP3    H278849   2.153   2.289  34.220  0.8967  0.1781  0.4293
19120TIP3   OH278850   0.732   0.834 101.425 -0.3603  0.3727  0.3539
19120TIP3    H178851   0.727   0.928 101.446 -0.1506  0.6277 -0.6900
19120TIP3    H278852   0.760   0.832 101.333 -0.9966 -0.7011  0.1766
19121TIP3   OH278853   0.196   0.947   8.324 -0.0471 -0.2158  0.4519
19121TIP3    H178854   0.259   0.966   8.393  0.9094 -1.5895 -0.0068
19121TIP3    H278855   0.248   0.941   8.244 -1.0858  0.9714 -0.3701
19122TIP3   OH278856   1.162   2.321  80.221  0.7760 -0.2983  0.3501
19122TIP3    H178857   1.233   2.257  80.219  0.3764 -0.8085  1.7425
19122TIP3    H278858   1.150   2.345  80.129  1.3776 -1.7370 -0.1467
19123TIP3   OH278859   1.960   0.795   6.290  0.6045 -0.0578 -0.2591
19123TIP3    H178860   2.046   0.832   6.273  0.1427  0.3664 -1.8880
19123TIP3    H278861   1.905   0.871   6.309  0.4083 -0.2401 -0.0971
19124TIP3   OH278862   2.624   1.383  73.714 -1.0071  0.1219  0.0054
19124TIP3    H178863   2.642   1.295  73.681  0.6280  0.7472 -0.8637
19124TIP3    H278864   2.601   1.434  73.637 -1.6094  0.5419  0.4583
19125TIP3   OH278865   1.108   1.278  89.142  0.2507  0.0156 -0.6888
19125TIP3    H178866   1.200   1.304  89.145 -0.3006  2.0497  0.2531
19125TIP3    H278867   1.068   1.338  89.079 -0.5267 -0.5687 -0.7744
19126TIP3   OH278868   2.062   1.655 104.060  0.5686 -0.1148 -0.7865
19126TIP3    H178869   1.998   1.637 104.129  0.1181  0.1717 -1.1304
19126TIP3    H278870   2.093   1.744 104.077 -1.2036  0.8526 -2.2328
19127TIP3   OH278871   1.559   0.105   1.847 -0.3366  0.3397  0.2513
19127TIP3    H178872   1.617   0.043   1.891  1.2257 -0.1717 -2.2822
19127TIP3    H278873   1.618   0.174   1.815 -1.4788  1.0893 -0.3026
19128TIP3   OH278874   1.158   2.537 111.503  0.3383 -0.0737 -0.3545
19128TIP3    H178875   1.200   2.614 111.464  0.4451 -0.2864 -0.6704
19128TIP3    H278876   1.158   2.472 111.433 -0.3999 -0.1234 -0.3121
19129TIP3   OH278877   1.037   0.570  81.055 -0.3695  0.3789 -0.4506
19129TIP3    H178878   0.979   0.560  80.980  1.3301 -0.0423 -1.7757
19129TIP3    H278879   1.010   0.652  81.096 -2.2673 -0.1180 -0.6363
19130TIP3   OH278880   1.594   1.575  84.078 -0.0285 -0.6726  0.0372
19130TIP3    H178881   1.668   1.523  84.046  0.1390 -0.7653  0.5588
19130TIP3    H278882   1.634   1.659  84.103 -0.3588 -0.1223 -1.1845
19131TIP3   OH278883   0.617   0.649 107.456 -0.1827  0.6396 -0.0755
19131TIP3    H178884   0.534   0.669 107.413  0.2146  0.0596 -1.1371
19131TIP3    H278885   0.604   0.563 107.495  0.1615  0.1909 -0.9226
19132TIP3   OH278886   2.609   2.333  27.575 -0.7188 -0.8312  0.3892
19132TIP3    H178887   2.667   2.258  27.564  1.7297  0.4310  3.2640
19132TIP3    H278888   2.539   2.302  27.633  1.8483 -0.4176  4.0526
19133TIP3   OH278889   2.653   2.037  81.187 -0.0457 -0.0387  0.4229
19133TIP3    H178890   2.658   1.958  81.133  1.4107  0.5302 -0.3196
19133TIP3    H278891   2.684   2.108  81.130  0.7933  0.7057  1.7435
19134TIP3   OH278892   0.860   2.312 103.339  0.3591  0.0189 -0.0039
19134TIP3    H178893   0.887   2.251 103.271 -3.0834 -0.5192 -1.0944
19134TIP3    H278894   0.857   2.397 103.296  1.0068  0.2188  0.3316
19135TIP3   OH278895   0.251   0.710  17.575  0.6192  0.2818  0.5067
19135TIP3    H178896   0.234   0.801  17.598  0.5646  0.0294  1.5571
19135TIP3    H278897   0.218   0.700  17.486 -1.9027  0.6366  1.3033
19136TIP3   OH278898   1.380   1.778 105.582 -0.3934 -0.0541 -0.0997
19136TIP3    H178899   1.328   1.737 105.651  0.5519 -1.7735 -0.3421
19136TIP3    H278900   1.327   1.769 105.503 -0.9408  0.7944  0.1589
19137TIP3   OH278901   2.018   1.147  16.781  0.0461 -0.1913 -0.0350
19137TIP3    H178902   1.936   1.119  16.741 -1.2872  1.5587  1.3044
19137TIP3    H278903   2.040   1.077  16.843 -0.4430 -0.6517 -0.3741
19138TIP3   OH278904   2.569   1.407  25.579 -0.7537  0.7431  0.6161
19138TIP3    H178905   2.636   1.452  25.631  0.1592  0.5491 -0.3457
19138TIP3    H278906   2.573   1.451  25.493 -0.9043 -0.1648  0.1343
19139TIP3   OH278907   1.809   1.742   0.599 -0.5355  0.0848 -0.1833
19139TIP3    H178908   1.887   1.706   0.558  0.2063 -0.3971  1.5587
19139TIP3    H278909   1.834   1.757   0.690 -2.5618 -0.4202  0.5237
19140TIP3   OH278910   1.087   2.062  95.982 -0.2326 -0.1815  0.7812
19140TIP3    H178911   1.019   2.063  96.049 -0.1500 -0.5270  0.8698
19140TIP3    H278912   1.050   2.113  95.910 -0.5785 -0.3490  0.8363
19141TIP3   OH278913   2.356   2.242 106.675 -0.2087  0.1975 -0.2801
19141TIP3    H178914   2.313   2.209 106.596  0.3306  0.1003 -0.5356
19141TIP3    H278915   2.444   2.267 106.646 -0.1897  0.6791  0.1715
19142TIP3   OH278916   1.140   1.961 107.414  0.2159  0.1956  0.0175
19142TIP3    H178917   1.095   2.026 107.360 -0.5389  0.9834  1.5329
19142TIP3    H278918   1.232   1.986 107.411 -0.0224  1.1335  0.3020
19143TIP3   OH278919   1.779   1.693 103.690  0.2074 -0.5547 -0.3136
19143TIP3    H178920   1.732   1.693 103.606  1.6233  1.3396 -1.1921
19143TIP3    H278921   1.848   1.628 103.679 -0.1733 -0.9680 -0.2714
19144TIP3   OH278922   1.732   2.410   6.582 -0.3212 -0.1773  0.0371
19144TIP3    H178923   1.692   2.345   6.524 -0.2348  0.0309 -0.2554
19144TIP3    H278924   1.820   2.377   6.599 -0.1065  0.1083 -0.5054
19145TIP3   OH278925   2.090   2.538  23.174 -0.5943 -0.4385  0.1542
19145TIP3    H178926   2.138   2.456  23.180 -0.2451 -0.3239 -0.9136
19145TIP3    H278927   2.123   2.580  23.095 -0.7759  0.7292  0.6781
19146TIP3   OH278928   1.539   1.196  26.001 -0.0274 -0.2248  0.4165
19146TIP3    H178929   1.556   1.234  26.088  0.1180  0.9340 -0.0980
19146TIP3    H278930   1.620   1.212  25.952 -0.1687 -0.7252  0.0086
19147TIP3   OH278931   1.801   2.318  92.655 -0.0670 -0.7314  0.4596
19147TIP3    H178932   1.757   2.279  92.731 -0.3495  1.1582  1.3374
19147TIP3    H278933   1.889   2.340  92.687 -0.4211  0.7249  0.5043
19148TIP3   OH278934   1.631   2.169  21.420 -0.0910 -0.2008 -0.3350
19148TIP3    H178935   1.597   2.100  21.478 -1.7323 -0.6255 -1.7130
19148TIP3    H278936   1.708   2.131  21.379  0.7281 -0.1173  1.0739
19149TIP3   OH278937   2.419   0.186  79.473  0.5107 -0.6543 -0.0551
19149TIP3    H178938   2.387   0.252  79.411  1.0888 -0.3570 -0.0523
19149TIP3    H278939   2.507   0.216  79.495 -0.6460  0.8727  3.1483
19150TIP3   OH278940   0.239   1.066  96.828  0.3389 -0.1553 -0.7017
19150TIP3    H178941   0.259   1.045  96.919  1.0542  0.7714 -0.6303
19150TIP3    H278942   0.214   0.982  96.789 -1.7558 -0.3002  0.7685
19151TIP3   OH278943   2.237   2.336  26.171  0.0458 -0.0686 -0.5554
19151TIP3    H178944   2.222   2.285  26.250 -0.3271 -1.1854 -1.3233
19151TIP3    H278945   2.281   2.276  26.111  0.3200  0.7589 -1.2104
19152TIP3   OH278946   1.968   0.880  98.335 -0.4720 -0.1918 -0.4942
19152TIP3    H178947   1.873   0.873  98.339 -0.5602  1.0679  0.3644
19152TIP3    H278948   1.996   0.879  98.426  0.2112  0.7505 -0.6785
19153TIP3   OH278949   0.580   1.950  80.798 -0.3108 -0.4700  0.1602
19153TIP3    H178950   0.603   2.036  80.832  2.0559  0.2130 -2.6850
19153TIP3    H278951   0.663   1.903  80.792 -0.7425 -1.0570 -2.9293
19154TIP3   OH278952   0.397   1.418 100.373  0.2753  0.3668  0.0273
19154TIP3    H178953   0.427   1.498 100.416  1.0552 -0.4633  1.0815
19154TIP3    H278954   0.476   1.365 100.362 -0.1488 -0.0675 -1.1107
19155TIP3   OH278955   0.742   0.285   5.061 -0.1430 -0.4919 -0.5297
19155TIP3    H178956   0.752   0.218   5.129  0.8294  1.3140  1.2466
19155TIP3    H278957   0.830   0.320   5.049 -0.7294  0.9386 -0.8467
19156TIP3   OH278958   1.738   1.034 103.489  0.5823  0.3009 -0.3650
19156TIP3    H178959   1.806   0.968 103.476  2.7774  2.1778  0.8527
19156TIP3    H278960   1.709   1.023 103.579 -0.0629  0.1381 -0.5796
19157TIP3   OH278961   2.631   1.688  17.069 -0.1816 -0.2004  0.1851
19157TIP3    H178962   2.579   1.689  17.149 -0.3645 -1.7621  0.1092
19157TIP3    H278963   2.717   1.658  17.097  0.3535  1.1701  0.0978
19158TIP3   OH278964   2.623   2.606  87.757 -0.2960 -0.2150  0.0652
19158TIP3    H178965   2.686   2.664  87.798 -2.0461  1.5539  0.3823
19158TIP3    H278966   2.607   2.538  87.823  2.3371 -1.6100 -0.6024
19159TIP3   OH278967   2.003   2.062  95.955 -0.4070 -0.3267  0.4712
19159TIP3    H178968   2.088   2.093  95.986 -1.0223  0.4099  1.4752
19159TIP3    H278969   1.980   1.991  96.016 -0.4058 -0.7112  0.0293
19160TIP3   OH278970   0.537   0.864  88.757  0.1589  0.6269  0.1394
19160TIP3    H178971   0.475   0.888  88.825 -0.4426  1.1067 -0.5569
19160TIP3    H278972   0.579   0.947  88.733  1.7980  0.1670  1.2858
19161TIP3   OH278973   0.417   1.820  17.424  0.3923 -0.8004 -0.0223
19161TIP3    H178974   0.491   1.773  17.460  0.3449 -0.9798 -0.1571
19161TIP3    H278975   0.341   1.786  17.472  0.4772 -0.0880  0.6341
19162TIP3   OH278976   0.525   0.551  76.511  0.2566 -0.5278  0.0357
19162TIP3    H178977   0.439   0.560  76.471  0.1523 -0.9611  0.1617
19162TIP3    H278978   0.527   0.462  76.547  0.9709 -0.7391 -0.4920
19163TIP3   OH278979   2.564   1.428  91.417  0.4853 -0.0244  0.5411
19163TIP3    H178980   2.632   1.395  91.475  0.9613  0.0297  0.0249
19163TIP3    H278981   2.504   1.475  91.474  1.0126  0.1377  0.9726
19164TIP3   OH278982   0.953   2.410  11.387 -0.5251  0.0167 -0.5836
19164TIP3    H178983   1.000   2.493  11.391 -1.4945  0.5493  0.1330
19164TIP3    H278984   0.920   2.405  11.297  0.6109 -0.2273 -1.0087
19165TIP3   OH278985   2.606   2.049  10.204  0.0367 -0.0130 -0.3014
19165TIP3    H178986   2.592   2.047  10.109  1.3561 -1.6139 -0.5203
19165TIP3    H278987   2.610   1.956  10.229 -0.8159  0.3694  1.4295
19166TIP3   OH278988   1.100   1.320   5.863 -0.7336  0.1247 -0.2483
19166TIP3    H178989   1.188   1.296   5.832 -0.5600  1.8237 -1.2264
19166TIP3    H278990   1.060   1.237   5.888  1.4809 -0.6023  1.1596
19167TIP3   OH278991   0.621   0.408 101.671 -0.6445  0.1482 -0.4035
19167TIP3    H178992   0.585   0.376 101.754 -1.0624 -0.4627 -0.8035
19167TIP3    H278993   0.589   0.498 101.663 -0.7214  0.1592  0.0332
19168TIP3   OH278994   1.311   0.360  96.895 -0.2500  0.3625 -0.0073
19168TIP3    H178995   1.250   0.382  96.965 -0.2724 -0.2789  0.1838
19168TIP3    H278996   1.356   0.282  96.927 -2.3624 -1.7747 -1.9372
19169TIP3   OH278997   2.302   2.128  34.525 -0.1692  0.3258  0.0665
19169TIP3    H178998   2.207   2.140  34.536 -0.4243  1.0354 -2.3308
19169TIP3    H278999   2.340   2.213  34.545  0.4226 -0.6649  4.0463
19170TIP3   OH279000   0.295   1.799  21.428  0.1554 -0.1227  0.6528
19170TIP3    H179001   0.276   1.861  21.358  1.4254  0.1852  0.5623
19170TIP3    H279002   0.256   1.838  21.506  1.6783  1.2578  0.7770
19171TIP3   OH279003   1.285   0.603  82.861  0.3460 -0.7875  0.6107
19171TIP3    H179004   1.202   0.636  82.895  0.3193  0.6149 -0.7376
19171TIP3    H279005   1.268   0.587  82.768  2.3297  2.3631 -0.4261
19172TIP3   OH279006   0.400   0.126 111.999  0.4247 -0.4254 -0.5556
19172TIP3    H179007   0.470   0.128 112.063  1.2919 -0.6424 -1.4785
19172TIP3    H279008   0.414   0.203 111.944 -0.4456 -0.1141 -0.3662
19173TIP3   OH279009   0.226   2.006  20.717  0.3921 -0.1658  0.2290
19173TIP3    H179010   0.168   1.932  20.731  0.6543 -0.3160  0.5421
19173TIP3    H279011   0.308   1.967  20.686  0.6457 -0.0441  0.7261
19174TIP3   OH279012   0.236   0.206   1.287 -0.1230  0.3026 -0.1774
19174TIP3    H179013   0.262   0.118   1.260  0.0361  0.4305 -0.4553
19174TIP3    H279014   0.307   0.262   1.255 -0.2480  0.5364 -0.0468
19175TIP3   OH279015   0.227   1.193  90.112  0.2574 -0.5408  0.1482
19175TIP3    H179016   0.154   1.138  90.084  0.5492 -0.7015 -0.3086
19175TIP3    H279017   0.294   1.130  90.140 -0.2396 -0.3925  1.8339
19176TIP3   OH279018   0.732   0.997  25.072  0.1076 -0.2873  0.5676
19176TIP3    H179019   0.737   1.053  25.149  0.5143  0.8323 -0.2444
19176TIP3    H279020   0.700   1.055  25.002  1.1834 -0.8889 -0.4582
19177TIP3   OH279021   0.483   0.030 105.729 -0.2872 -0.1845  0.3495
19177TIP3    H179022   0.422  -0.041 105.748 -0.0822 -0.3935  0.2394
19177TIP3    H279023   0.562   0.008 105.778 -0.5570  0.4824  1.1102
19178TIP3   OH279024   0.527   1.192  91.313 -0.0224  0.4268 -0.1901
19178TIP3    H179025   0.456   1.219  91.372  0.0003 -0.0672  0.0630
19178TIP3    H279026   0.606   1.195  91.368  0.1774  1.0797 -0.4987
19179TIP3   OH279027   2.188   1.224 104.302  0.3855  0.3082 -0.0457
19179TIP3    H179028   2.217   1.255 104.216  0.6449 -0.6402 -0.3108
19179TIP3    H279029   2.093   1.219 104.295  0.2564  1.9223  0.3125
19180TIP3   OH279030   2.526   0.765 109.333  0.0604  0.0897 -0.4687
19180TIP3    H179031   2.538   0.670 109.321  1.4491 -0.0700  1.5893
19180TIP3    H279032   2.514   0.799 109.244  1.5362 -1.7854 -1.4671
19181TIP3   OH279033   1.551   1.981  72.987 -0.2840 -0.0715 -0.0401
19181TIP3    H179034   1.634   2.020  73.013 -0.5193 -1.3202  3.0415
19181TIP3    H279035   1.558   1.889  73.014 -2.4616 -0.3223 -0.1370
19182TIP3   OH279036   0.074   0.111  95.227  0.5519 -0.1014 -0.3915
19182TIP3    H179037   0.073   0.093  95.322  0.9866  1.5406 -0.0534
19182TIP3    H279038   0.165   0.099  95.202  0.6189  0.4027 -0.4004
19183TIP3   OH279039   0.391   2.394  76.219 -0.4768  0.6347  0.8357
19183TIP3    H179040   0.486   2.386  76.206 -0.7188 -0.5336 -0.4243
19183TIP3    H279041   0.370   2.482  76.188  0.2646  1.1484  1.7208
19184TIP3   OH279042   0.607   1.809  18.793 -0.2598 -0.4604 -0.0838
19184TIP3    H179043   0.624   1.903  18.796  0.2047 -0.4500 -1.7863
19184TIP3    H279044   0.546   1.798  18.720  0.3779 -1.5435 -0.4846
19185TIP3   OH279045   1.440   2.452  17.259  0.0096 -0.0000  0.5466
19185TIP3    H179046   1.517   2.448  17.316  0.2776  0.9208  0.2750
19185TIP3    H279047   1.475   2.439  17.171 -0.4690 -1.9075  0.6056
19186TIP3   OH279048   2.641   0.416  29.327  0.5134  0.4033 -0.2657
19186TIP3    H179049   2.718   0.413  29.383  1.4997 -0.6551 -1.5975
19186TIP3    H279050   2.619   0.508  29.320  1.0883  0.6402  0.8800
19187TIP3   OH279051   2.521   0.186   5.734 -0.3963  0.0240  0.1993
19187TIP3    H179052   2.441   0.163   5.781 -1.1363  1.1820 -0.4265
19187TIP3    H279053   2.526   0.122   5.663 -1.3880  0.6094 -0.4158
19188TIP3   OH279054   2.204   1.079  20.458 -0.1470  0.5875  0.2440
19188TIP3    H179055   2.157   1.019  20.516 -0.1495  0.8161  0.4805
19188TIP3    H279056   2.189   1.166  20.496 -0.3805  0.7721 -0.2504
19189TIP3   OH279057   0.387   1.381  98.554 -0.2758 -0.0566  0.7807
19189TIP3    H179058   0.426   1.443  98.493 -0.7082  0.5956  1.1604
19189TIP3    H279059   0.320   1.335  98.503 -1.5381  1.3827  1.0573
19190TIP3   OH279060   0.160   0.497   1.032 -0.1390  0.0085  0.4240
19190TIP3    H179061   0.201   0.417   0.998  0.6063 -0.5132  2.4145
19190TIP3    H279062   0.234   0.553   1.056 -0.6513  0.6311  0.5562
19191TIP3   OH279063   1.647   1.154   8.025  0.1697 -0.0664 -0.2016
19191TIP3    H179064   1.710   1.220   7.995  0.0708  0.9593  1.6446
19191TIP3    H279065   1.665   1.077   7.972  1.7971  0.7596 -0.9215
19192TIP3   OH279066   2.098   1.018  14.073 -0.4431 -0.3292 -0.0139
19192TIP3    H179067   2.192   1.032  14.065 -0.4021 -0.5502  0.0788
19192TIP3    H279068   2.089   0.925  14.094 -0.7479 -0.5865 -1.1978
19193TIP3   OH279069   2.205   0.004  20.769 -0.1946 -0.2714 -0.2853
19193TIP3    H179070   2.273  -0.059  20.747  1.9955  2.5147 -2.1867
19193TIP3    H279071   2.163   0.025  20.685 -1.0432  0.5918  0.3237
19194TIP3   OH279072   2.106   1.596 100.514 -0.3025  0.2860  0.2481
19194TIP3    H179073   2.183   1.549 100.546 -1.2702 -1.2058  0.4339
19194TIP3    H279074   2.136   1.636 100.432  0.8645  0.3279  0.6728
19195TIP3   OH279075   0.828   0.781  11.859  0.3778  0.2232 -0.0229
19195TIP3    H179076   0.913   0.777  11.902 -0.4241 -0.2738  1.5805
19195TIP3    H279077   0.847   0.764  11.767  1.9699 -0.2395  0.3663
19196TIP3   OH279078   1.575   1.107  99.186  0.0864 -0.1278 -0.3126
19196TIP3    H179079   1.670   1.110  99.174  0.2861 -1.2580  0.8059
19196TIP3    H279080   1.562   1.048  99.260 -1.3543  1.8168  1.1033
19197TIP3   OH279081   2.678   0.365  77.607  0.2345  0.9303  0.1660
19197TIP3    H179082   2.641   0.319  77.532  2.5906  1.4980 -1.4620
19197TIP3    H279083   2.610   0.427  77.633 -1.1292 -0.1509 -0.6509
19198TIP3   OH279084   0.228   2.253  79.524 -0.7716 -0.1355  0.4897
19198TIP3    H179085   0.153   2.287  79.574  1.2649  2.8617  1.8420
19198TIP3    H279086   0.300   2.251  79.588  0.7684 -1.0686 -1.1819
19199TIP3   OH279087   0.372   0.061  77.841 -0.3509  0.1697 -0.0995
19199TIP3    H179088   0.465   0.049  77.824 -0.3293  0.3042 -0.0785
19199TIP3    H279089   0.369   0.119  77.917 -0.4493 -0.1206  0.1185
19200TIP3   OH279090   2.041   1.247  91.661 -0.1920  0.7733  0.2907
19200TIP3    H179091   1.996   1.322  91.622 -1.7927 -1.5534 -2.7587
19200TIP3    H279092   2.124   1.241  91.614 -0.0693  0.6178  0.5184
19201TIP3   OH279093   0.350   0.613  10.801  0.0180  0.6543 -0.0509
19201TIP3    H179094   0.434   0.566  10.799 -0.2357  0.2257 -0.9517
19201TIP3    H279095   0.285   0.548  10.774 -0.4767  1.2518 -0.3313
19202TIP3   OH279096   2.596   1.148  16.663  0.0334 -0.0854 -0.0150
19202TIP3    H179097   2.502   1.148  16.647 -0.0467 -1.0026  0.3608
19202TIP3    H279098   2.628   1.070  16.615  0.3820 -0.5843  1.0024
19203TIP3   OH279099   2.562   1.638 101.369 -0.2201  0.1544 -0.1912
19203TIP3    H179100   2.473   1.659 101.400  0.1601  0.5276  0.6944
19203TIP3    H279101   2.557   1.547 101.342 -0.7471  0.0026  0.3895
19204TIP3   OH279102   0.514   0.755  83.301 -0.5722 -0.0846  0.1126
19204TIP3    H179103   0.467   0.684  83.344 -0.9283  0.1529  0.1172
19204TIP3    H279104   0.545   0.810  83.373  1.6070 -1.3903  0.2673
19205TIP3   OH279105   1.249   2.238  36.630 -0.3616 -0.1045 -0.2538
19205TIP3    H179106   1.323   2.192  36.591 -0.3665  0.1667 -0.5761
19205TIP3    H279107   1.175   2.177  36.620 -0.0594 -0.6561  0.6481
19206TIP3   OH279108   1.455   0.808 101.347  0.3975 -0.3071  0.0390
19206TIP3    H179109   1.406   0.741 101.395 -1.0938  1.3608  0.9623
19206TIP3    H279110   1.493   0.761 101.273  1.7392 -2.7543  2.0815
19207TIP3   OH279111   0.582   0.033 106.613 -0.4601  0.1067  0.4768
19207TIP3    H179112   0.498  -0.004 106.586  0.4676 -1.5902 -0.2435
19207TIP3    H279113   0.614  -0.026 106.681 -0.5510  1.6345  1.8906
19208TIP3   OH279114   1.168   2.557 105.798 -0.5728 -0.4368 -0.2730
19208TIP3    H179115   1.260   2.565 105.776 -0.7159 -0.4285 -0.8833
19208TIP3    H279116   1.132   2.498 105.731 -1.1753  0.2034 -0.5225
19209TIP3   OH279117   2.062   0.993  48.755  0.2458  0.0189  0.2048
19209TIP3    H179118   2.087   0.907  48.722 -1.3895 -0.2109 -0.4920
19209TIP3    H279119   2.108   1.000  48.839 -1.5036 -2.5723  1.5038
19210TIP3   OH279120   0.311   0.804 110.455 -0.9044  0.0180  0.6153
19210TIP3    H179121   0.365   0.775 110.528 -1.1196  0.1518  0.8294
19210TIP3    H279122   0.292   0.896 110.473 -1.2692 -0.0489  0.5844
19211TIP3   OH279123   1.453   0.965 104.729 -0.2290  0.0360 -0.5021
19211TIP3    H179124   1.393   1.022 104.682  1.2191  0.9617 -1.3165
19211TIP3    H279125   1.538   1.007 104.720  0.5512 -1.2063  0.6337
19212TIP3   OH279126   0.324   1.502  26.999 -0.4448  0.4972  0.3702
19212TIP3    H179127   0.254   1.438  26.986 -0.1374  0.2052  0.1281
19212TIP3    H279128   0.288   1.565  27.061 -0.7212  0.0372  0.6861
19213TIP3   OH279129   0.681   0.873  89.929  0.1258  0.6296 -0.1649
19213TIP3    H179130   0.658   0.866  90.021  1.3261  1.7533  0.2368
19213TIP3    H279131   0.600   0.852  89.883 -1.1777  2.4479  1.1667
19214TIP3   OH279132   0.976   1.147   5.421 -0.4417  0.4034 -0.3461
19214TIP3    H179133   1.062   1.180   5.450  0.7476 -1.7621 -1.1832
19214TIP3    H279134   0.977   1.055   5.445 -1.5644 -0.2290 -2.5506
19215TIP3   OH279135   2.680   1.331 101.520 -0.5183 -0.6767 -0.2783
19215TIP3    H179136   2.735   1.324 101.442 -0.0781 -0.0947 -0.0261
19215TIP3    H279137   2.722   1.399 101.572 -0.3749 -1.5688  0.8180
19216TIP3   OH279138   1.303   0.934  96.811 -0.1131 -0.3462  0.4528
19216TIP3    H179139   1.273   1.023  96.795  0.1673 -0.6809 -2.3656
19216TIP3    H279140   1.398   0.937  96.796 -0.3550 -1.4393 -1.5711
19217TIP3   OH279141   1.743   2.013 103.943  0.5663 -0.5385  0.4585
19217TIP3    H179142   1.768   1.955 104.015  1.3296  0.7956  1.3090
19217TIP3    H279143   1.651   1.992 103.926  0.3115 -0.7442  1.9707
19218TIP3   OH279144   2.405   0.951  88.010  0.0917 -0.4621 -0.5480
19218TIP3    H179145   2.398   0.991  87.923 -0.7816  1.9808  0.5597
19218TIP3    H279146   2.477   0.997  88.052 -2.0842  1.3971  1.4063
19219TIP3   OH279147   2.670   1.273  75.653  0.1567  0.0947  0.2536
19219TIP3    H179148   2.679   1.300  75.562 -1.0302  1.0943  0.3876
19219TIP3    H279149   2.746   1.218  75.671  0.3786 -0.1376 -1.3446
19220TIP3   OH279150   2.627   1.372  31.719  0.6273 -0.2357 -0.7811
19220TIP3    H179151   2.645   1.286  31.757  1.1504  0.0881 -0.2930
19220TIP3    H279152   2.532   1.373  31.707  0.0623  0.5673  2.7681
19221TIP3   OH279153   0.308   0.169  35.028  0.3035 -0.0852 -0.4885
19221TIP3    H179154   0.349   0.092  34.988  1.2254  0.2955 -0.2936
19221TIP3    H279155   0.372   0.200  35.092 -0.2431  0.5940 -0.2574
19222TIP3   OH279156   1.743   1.608  31.515 -0.0514 -0.1707 -0.2214
19222TIP3    H179157   1.749   1.548  31.590 -1.5964  0.7931  0.7324
19222TIP3    H279158   1.760   1.552  31.439  1.5096 -1.1893  0.8039
19223TIP3   OH279159   2.450   0.546  58.274 -0.6245 -0.5985  1.4093
19223TIP3    H179160   2.484   0.603  58.343 -0.7556  1.6550 -0.2880
19223TIP3    H279161   2.514   0.475  58.268  1.7784  1.5052  0.8964
19224TIP3   OH279162   2.483   1.826  87.440 -0.8055  0.9149  0.1679
19224TIP3    H179163   2.577   1.828  87.421 -0.5565 -1.1466  0.9238
19224TIP3    H279164   2.477   1.831  87.536 -1.4564  0.7838  0.1451
19225TIP3   OH279165   1.721   2.198  98.628 -0.0388 -0.0634 -0.2912
19225TIP3    H179166   1.626   2.210  98.621 -0.3634 -2.1553 -0.1007
19225TIP3    H279167   1.744   2.235  98.713 -0.2776  2.4468 -1.2413
19226TIP3   OH279168   1.926   1.896   4.217  0.8872 -0.3701  0.1630
19226TIP3    H179169   1.876   1.938   4.287 -0.1187 -1.5316  0.1776
19226TIP3    H279170   2.013   1.880   4.256  0.2899 -1.1636  1.2347
19227TIP3   OH279171   0.889   0.384  81.660  0.2071 -0.9132 -0.1404
19227TIP3    H179172   0.891   0.322  81.587  0.4499 -0.9190 -0.1307
19227TIP3    H279173   0.958   0.355  81.719  2.1097  0.8593 -1.3637
19228TIP3   OH279174   1.043   1.727  85.746  0.2724 -0.3998 -0.7968
19228TIP3    H179175   1.055   1.640  85.784  0.1616 -1.0859 -2.2713
19228TIP3    H279176   1.130   1.767  85.751  0.7053 -1.1986 -1.4847
19229TIP3   OH279177   0.296   2.677  83.084 -0.0331 -0.1700 -0.0586
19229TIP3    H179178   0.348   2.612  83.037  1.5657  0.0330  1.3487
19229TIP3    H279179   0.226   2.626  83.126  0.2351 -0.7457 -0.2971
19230TIP3   OH279180   1.892   2.589  41.944 -0.1246  0.1862  0.1295
19230TIP3    H179181   1.829   2.657  41.919 -0.5355 -0.4394 -0.5847
19230TIP3    H279182   1.842   2.508  41.942  0.4317 -0.1755  0.6950
19231TIP3   OH279183   0.779   1.606  83.553 -0.5257 -0.9695  0.1337
19231TIP3    H179184   0.689   1.623  83.527 -0.3238  0.2349  0.1851
19231TIP3    H279185   0.817   1.559  83.478 -1.1861 -1.5010  0.1168
19232TIP3   OH279186   2.317   0.108  81.830  0.7366 -0.0319  0.0764
19232TIP3    H179187   2.279   0.020  81.828  2.6432 -0.9237  0.7956
19232TIP3    H279188   2.312   0.138  81.739  0.6592 -1.1665 -0.3163
19233TIP3   OH279189   0.003   0.959  19.150 -0.0787  0.6435 -0.2934
19233TIP3    H179190  -0.082   0.918  19.169  0.3301 -0.3814 -0.5917
19233TIP3    H279191   0.062   0.924  19.217  0.5944 -0.3769 -1.3772
19234TIP3   OH279192   0.669   0.807 102.749 -0.2041 -0.2761 -0.0806
19234TIP3    H179193   0.640   0.719 102.771 -0.4819 -0.1706 -0.0160
19234TIP3    H279194   0.704   0.842 102.831  0.8034 -0.6656 -0.3192
19235TIP3   OH279195   2.487   0.508 104.713 -0.1642  0.3555  0.0381
19235TIP3    H179196   2.394   0.505 104.733 -0.0296  0.1730  0.6636
19235TIP3    H279197   2.495   0.572 104.642 -0.5525  1.7724  1.2232
19236TIP3   OH279198   2.304   0.463 109.507 -0.6972  0.0395  0.1285
19236TIP3    H179199   2.385   0.490 109.549 -0.0953  0.9434 -1.5451
19236TIP3    H279200   2.291   0.372 109.536 -0.2298  0.5436  2.0594
19237TIP3   OH279201   0.068   1.791  23.941  0.2004  0.1163 -0.1660
19237TIP3    H179202   0.055   1.813  24.033 -0.7608  0.9812 -0.4887
19237TIP3    H279203   0.095   1.873  23.900  0.7392 -0.2894 -0.6369
19238TIP3   OH279204   0.087   2.338 101.309  0.1170  0.0131 -0.0791
19238TIP3    H179205   0.043   2.254 101.295 -0.6018  0.3629 -0.0140
19238TIP3    H279206   0.138   2.352 101.229 -0.0809 -0.2914 -0.2610
19239TIP3   OH279207   1.830   0.891  79.921 -0.1511  0.0933 -0.7333
19239TIP3    H179208   1.848   0.805  79.958 -0.1467 -0.1051 -1.1990
19239TIP3    H279209   1.737   0.905  79.936 -0.6420 -0.9090 -2.5275
19240TIP3   OH279210   2.610   2.398  13.820 -0.5394 -0.3260 -0.4853
19240TIP3    H179211   2.579   2.481  13.783 -0.4675  0.5881  1.3761
19240TIP3    H279212   2.618   2.340  13.745 -2.3741  0.7760 -1.6286
19241TIP3   OH279213   1.269   0.102   4.680  0.4105  0.3785 -0.0511
19241TIP3    H179214   1.361   0.127   4.680  0.4538  0.2591 -0.8399
19241TIP3    H279215   1.238   0.125   4.592  0.0628 -0.8922 -0.2838
19242TIP3   OH279216   1.894   0.184   4.336  0.1940 -0.0946 -0.0741
19242TIP3    H179217   1.867   0.237   4.411  0.8645 -1.8717  1.5103
19242TIP3    H279218   1.837   0.106   4.340  0.8477 -0.6307 -0.8553
19243TIP3   OH279219   0.372   0.706  25.218  0.6289 -0.6660 -0.5890
19243TIP3    H179220   0.338   0.706  25.307 -1.4649  2.4190 -1.2184
19243TIP3    H279221   0.458   0.748  25.224 -0.5205  1.8309 -0.1764
19244TIP3   OH279222   1.415   1.427  20.386  0.4970  0.5569  0.0342
19244TIP3    H179223   1.461   1.344  20.375 -0.3119 -0.0707  1.2185
19244TIP3    H279224   1.418   1.444  20.480 -0.6238  1.1174 -0.0158
19245TIP3   OH279225   1.945   0.395  40.710 -0.6634  0.4639 -0.4323
19245TIP3    H179226   1.945   0.348  40.626  0.6772  0.8538 -0.6738
19245TIP3    H279227   1.928   0.486  40.686  0.5433  0.7146 -0.3887
19246TIP3   OH279228   2.067   0.509  40.212 -0.3390 -0.3499  0.2964
19246TIP3    H179229   2.096   0.547  40.295 -0.2933  0.2399  0.0088
19246TIP3    H279230   2.082   0.415  40.223  0.1725 -0.2187  0.7530
19247TIP3   OH279231   2.221   1.943  82.373  0.0988 -0.0130  0.2327
19247TIP3    H179232   2.218   2.028  82.417 -0.6771  1.3129 -2.1910
19247TIP3    H279233   2.130   1.914  82.370  0.4611 -1.6015  2.0701
19248TIP3   OH279234   0.419   1.414 110.495  0.2753 -0.2763 -0.0199
19248TIP3    H179235   0.482   1.382 110.560  0.7961 -1.2535 -0.9695
19248TIP3    H279236   0.405   1.339 110.437 -1.1171  0.2083 -0.3222
19249TIP3   OH279237   1.725   1.676  25.750  0.6699 -0.0943 -0.8396
19249TIP3    H179238   1.820   1.675  25.745  0.6379  0.2167 -1.5941
19249TIP3    H279239   1.696   1.714  25.667 -0.0877  0.6513 -0.2601
19250TIP3   OH279240   0.801   0.586 101.836 -0.2734 -0.0694  0.2182
19250TIP3    H179241   0.758   0.591 101.751 -2.4270 -0.3483  1.2231
19250TIP3    H279242   0.849   0.669 101.843 -2.2050  1.1565 -0.2088
19251TIP3   OH279243   2.066   0.221  77.683  0.4481  0.3904 -0.2045
19251TIP3    H179244   2.058   0.313  77.654  0.7953  1.1003  1.8238
19251TIP3    H279245   1.987   0.206  77.735  0.0207 -0.7287 -1.1431
19252TIP3   OH279246   2.660   1.333  86.808  0.1192  0.3927 -0.1745
19252TIP3    H179247   2.657   1.341  86.713 -2.0430  1.2249 -0.0730
19252TIP3    H279248   2.622   1.415  86.840 -3.4392 -1.6544  1.2912
19253TIP3   OH279249   1.623   1.365   3.846  0.0172 -0.7835 -0.0617
19253TIP3    H179250   1.614   1.310   3.769 -0.2068 -0.3764 -0.3288
19253TIP3    H279251   1.677   1.313   3.906  0.0370 -1.1774 -0.4147
19254TIP3   OH279252   2.196   1.675   6.827  0.1848 -0.4486  0.3274
19254TIP3    H179253   2.201   1.713   6.739 -0.9238 -0.1837  0.3620
19254TIP3    H279254   2.110   1.634   6.830  0.6469 -1.3891  0.9253
19255TIP3   OH279255   1.090   0.958  23.615  0.3340  0.2632  0.9678
19255TIP3    H179256   1.140   0.883  23.584 -0.2926  0.4270 -0.5329
19255TIP3    H279257   1.109   0.963  23.709 -0.4300 -2.3913  1.3350
19256TIP3   OH279258   0.063   0.886  11.038  0.2788 -0.5305 -0.0028
19256TIP3    H179259   0.049   0.792  11.023 -2.2466 -0.4681  1.3229
19256TIP3    H279260   0.008   0.929  10.972  1.5097  0.0473 -0.6708
19257TIP3   OH279261   1.907   1.145  22.974  0.0171  0.6753 -0.3276
19257TIP3    H179262   1.920   1.067  23.029  1.6895  1.9609  1.2254
19257TIP3    H279263   1.936   1.118  22.887  1.4494 -0.2091  0.3837
19258TIP3   OH279264   0.286   1.100  22.943 -0.1788 -0.1373  0.3818
19258TIP3    H179265   0.366   1.097  22.891 -1.0697  0.6586 -1.1192
19258TIP3    H279266   0.261   1.008  22.954  0.1858 -0.3369 -0.3648
19259TIP3   OH279267   1.460   2.529  35.288  0.1440 -0.3365  0.6331
19259TIP3    H179268   1.470   2.529  35.383  0.1638 -0.2564  0.6320
19259TIP3    H279269   1.548   2.515  35.254  0.1154 -0.4997  0.6291
19260TIP3   OH279270   0.001   1.727  17.793  0.2252  0.4232  0.0512
19260TIP3    H179271   0.034   1.673  17.865  0.3660 -1.6565 -1.4946
19260TIP3    H279272  -0.094   1.713  17.794  0.4450 -1.5333 -1.5667
19261TIP3   OH279273   2.397   2.273   0.408  0.0655 -0.0355 -0.3127
19261TIP3    H179274   2.312   2.271   0.451 -0.2700  0.5705 -0.9167
19261TIP3    H279275   2.422   2.181   0.398 -0.4060 -0.2085  0.0690
19262TIP3   OH279276   1.866   0.192  12.276  0.3154 -0.3775 -0.4643
19262TIP3    H179277   1.933   0.143  12.227 -0.3913 -0.4707 -1.3782
19262TIP3    H279278   1.887   0.284  12.260 -0.4881 -0.3997 -1.8188
19263TIP3   OH279279   2.442   2.437  29.833  0.0050 -0.7124 -0.2546
19263TIP3    H179280   2.470   2.513  29.883 -0.7591 -0.5986  0.0141
19263TIP3    H279281   2.509   2.426  29.765 -0.0490  0.3939 -0.5008
19264TIP3   OH279282   2.382   1.322  87.077 -0.1794  0.1080 -0.0319
19264TIP3    H179283   2.469   1.288  87.053 -0.6976 -0.9476 -0.4518
19264TIP3    H279284   2.392   1.350  87.168  0.3981 -0.7354  0.1803
19265TIP3   OH279285   2.208   0.379 108.298  0.1735  0.2313  0.0101
19265TIP3    H179286   2.155   0.322 108.243 -1.0233  0.3038  1.0441
19265TIP3    H279287   2.297   0.344 108.290 -0.0068  0.1104 -1.7440
19266TIP3   OH279288   1.720   0.014  35.871 -0.8371  0.0895  0.3739
19266TIP3    H179289   1.706   0.043  35.962  0.4700 -0.4549  0.7817
19266TIP3    H279290   1.653  -0.052  35.856 -1.0733  0.1941  0.9400
19267TIP3   OH279291   1.811   0.227  80.051  0.3462 -0.1330 -0.2876
19267TIP3    H179292   1.881   0.212  79.988  1.8732  0.4363  1.2162
19267TIP3    H279293   1.750   0.285  80.006  2.1775  1.5365 -0.7309
19268TIP3   OH279294   0.637   0.701  35.705  0.0321  0.6047  0.2641
19268TIP3    H179295   0.609   0.610  35.696 -3.3250  1.6044 -0.5206
19268TIP3    H279296   0.689   0.702  35.785 -1.5791 -1.6501  1.4338
19269TIP3   OH279297   0.091   1.717 107.762 -0.4006 -0.3913 -0.3602
19269TIP3    H179298   0.030   1.753 107.699  0.1122  1.4079  0.1253
19269TIP3    H279299   0.177   1.742 107.730 -0.1787  2.1324  1.8667
19270TIP3   OH279300   2.173   0.216   0.560 -0.7937 -0.2676  0.3130
19270TIP3    H179301   2.185   0.311   0.547  1.7622 -0.6769 -1.1275
19270TIP3    H279302   2.102   0.193   0.501 -0.0291  0.4826 -0.9621
19271TIP3   OH279303   1.850   0.440 108.341 -0.3117  0.4616  0.0785
19271TIP3    H179304   1.828   0.351 108.314  1.4811  0.3511 -1.2067
19271TIP3    H279305   1.903   0.429 108.420 -0.3857  0.4108  0.1232
19272TIP3   OH279306   2.119   2.452 109.763 -0.3171 -0.1102  0.1211
19272TIP3    H179307   2.119   2.357 109.779  2.4602 -0.5010 -1.5083
19272TIP3    H279308   2.034   2.470 109.724 -0.4700 -2.1702 -0.6355
19273TIP3   OH279309   1.599   1.015  20.565 -0.4849  0.1554  0.1938
19273TIP3    H179310   1.642   1.055  20.641 -1.2436 -0.4498  0.9635
19273TIP3    H279311   1.508   1.043  20.573 -0.5577  0.1273 -0.5351
19274TIP3   OH279312   2.498   2.304 105.639  0.4417  0.3950 -0.0980
19274TIP3    H179313   2.479   2.315 105.732  2.1093 -0.0253  0.3140
19274TIP3    H279314   2.447   2.228 105.612  0.5258  0.0751  0.6517
19275TIP3   OH279315   2.177   1.940  37.216  0.5686 -0.6012  0.5232
19275TIP3    H179316   2.195   1.848  37.231 -2.8482 -1.2661  1.2474
19275TIP3    H279317   2.184   1.951  37.121  0.6489 -1.6868  0.3917
19276TIP3   OH279318   1.387   0.291  47.238 -0.1755 -0.0643 -0.5619
19276TIP3    H179319   1.405   0.309  47.146  1.2958 -0.7085 -0.4418
19276TIP3    H279320   1.357   0.200  47.239 -0.8811  0.1683 -0.4772
19277TIP3   OH279321   0.515   2.440 108.427 -0.2328 -0.0732  0.3342
19277TIP3    H179322   0.609   2.459 108.438 -0.2710  0.8474 -0.6809
19277TIP3    H279323   0.480   2.519 108.385 -0.7708 -1.7476 -2.6203
19278TIP3   OH279324   1.024   2.423  93.791  0.3447  0.0794 -0.2089
19278TIP3    H179325   1.026   2.384  93.879  1.6225  0.8814  0.1458
19278TIP3    H279326   1.027   2.348  93.732  1.4456 -0.4203  0.4443
19279TIP3   OH279327   2.599   1.678  35.299 -0.2749  0.7314 -0.1700
19279TIP3    H179328   2.603   1.609  35.232  1.4086  0.0113  0.6282
19279TIP3    H279329   2.613   1.759  35.251 -0.7460  0.3910 -0.9043
19280TIP3   OH279330   1.587   0.887   0.014  0.3579  0.2803  0.8711
19280TIP3    H179331   1.574   0.819  -0.052 -1.1122  1.3083  0.0423
19280TIP3    H279332   1.673   0.924  -0.006  0.4120 -0.1772  0.2256
19281TIP3   OH279333   0.882   1.675  79.102 -0.0594  0.5702 -0.3283
19281TIP3    H179334   0.877   1.745  79.037  0.8274  1.0415  0.0978
19281TIP3    H279335   0.974   1.673  79.129 -0.1672 -0.4594 -0.0091
19282TIP3   OH279336   1.863   0.430   9.060 -0.3259 -0.4131  0.0641
19282TIP3    H179337   1.870   0.334   9.057  0.9598 -0.3123 -2.6597
19282TIP3    H279338   1.810   0.453   8.984  0.3472  1.1194  0.0254
19283TIP3   OH279339   0.978   1.254  93.049  0.1726  0.2976 -0.4812
19283TIP3    H179340   0.895   1.298  93.030 -1.9447 -2.6365  1.1238
19283TIP3    H279341   0.984   1.256  93.145 -0.0696 -2.7186 -0.3219
19284TIP3   OH279342   1.384   1.967  93.918  0.0148 -0.0512 -0.3393
19284TIP3    H179343   1.301   2.013  93.904 -0.3288 -0.5380  0.0679
19284TIP3    H279344   1.360   1.888  93.967  0.7255 -0.1745 -0.1779
19285TIP3   OH279345   0.559   0.068   0.014  0.3492 -0.2291 -0.3200
19285TIP3    H179346   0.653   0.086   0.006  0.3072  0.4564  0.5640
19285TIP3    H279347   0.529   0.129   0.081 -0.5633 -1.0356  0.0223
19286TIP3   OH279348   2.103   1.715  10.034  0.2661 -0.4365  0.7637
19286TIP3    H179349   2.017   1.751  10.013  0.8395  0.1196 -0.7476
19286TIP3    H279350   2.090   1.620  10.036 -0.5696 -0.3152  1.5080
19287TIP3   OH279351   1.385   2.322  18.937 -0.4254 -0.1591  0.0388
19287TIP3    H179352   1.399   2.261  19.010 -1.7214 -1.0160 -0.4040
19287TIP3    H279353   1.374   2.407  18.980 -0.6351 -0.5604  0.8110
19288TIP3   OH279354   1.214   1.012  33.255  0.1365 -0.3199  0.1098
19288TIP3    H179355   1.244   0.924  33.234  2.0233 -0.3039  2.2712
19288TIP3    H279356   1.129   1.020  33.212 -0.2218 -3.2820  0.0769
19289TIP3   OH279357   0.159   2.245  20.253 -0.5131  0.0341  0.1327
19289TIP3    H179358   0.160   2.189  20.175 -1.0938  0.1622  0.0304
19289TIP3    H279359   0.186   2.187  20.324  1.7129  0.3252 -0.4159
19290TIP3   OH279360   1.993   2.545  33.231  0.3636  0.0747  0.1710
19290TIP3    H179361   1.937   2.476  33.196  2.5295 -0.8855 -1.6069
19290TIP3    H279362   2.019   2.513  33.318 -1.9580  0.6898  1.1799
19291TIP3   OH279363   1.233   2.674  88.497 -0.1731 -0.0696  0.3753
19291TIP3    H179364   1.278   2.600  88.457  1.2264  1.6370 -1.4224
19291TIP3    H279365   1.141   2.650  88.496  0.1490 -1.3858 -1.0614
19292TIP3   OH279366   2.280   0.692  90.335 -0.0169  0.5102  0.5715
19292TIP3    H179367   2.267   0.784  90.359 -2.1925  1.0329 -2.1306
19292TIP3    H279368   2.196   0.650  90.353  0.2575 -0.4193 -0.2170
19293TIP3   OH279369   1.430   1.590  26.091  0.2462  0.0629 -0.6073
19293TIP3    H179370   1.389   1.584  26.005  0.3225  1.2118 -0.7329
19293TIP3    H279371   1.426   1.683  26.113  0.1572 -0.2296  0.6658
19294TIP3   OH279372   1.288   1.608   4.129  0.0470 -0.0828 -0.0286
19294TIP3    H179373   1.303   1.657   4.209 -1.6142  0.2234  0.1382
19294TIP3    H279374   1.366   1.553   4.119  0.8384  0.7956  1.0947
19295TIP3   OH279375   1.628   1.688  18.365  0.3238  0.0508 -0.0818
19295TIP3    H179376   1.570   1.714  18.436 -0.0418  0.8638 -0.6645
19295TIP3    H279377   1.643   1.595  18.378 -0.8518 -0.0943  0.2525
19296TIP3   OH279378   0.875   1.892  10.780 -0.0381 -0.7096  0.0095
19296TIP3    H179379   0.800   1.939  10.818 -0.1156  0.7415 -1.7837
19296TIP3    H279380   0.900   1.828  10.847 -1.9634 -0.2553  1.2429
19297TIP3   OH279381   0.992   1.540  75.099 -0.5938  0.5149  0.5206
19297TIP3    H179382   1.038   1.624  75.091 -0.2617  0.2199 -1.1567
19297TIP3    H279383   0.927   1.542  75.029 -0.4071 -0.7313  0.2907
19298TIP3   OH279384   1.536   1.364   6.371 -0.1223 -0.5116 -0.5762
19298TIP3    H179385   1.551   1.459   6.363  1.4022 -0.7852 -1.3974
19298TIP3    H279386   1.445   1.357   6.400 -0.1197  1.2161 -0.0141
19299TIP3   OH279387   0.039   0.381 103.956  0.7612 -0.3605 -0.2445
19299TIP3    H179388   0.059   0.374 103.862  1.4621 -0.3886 -0.0957
19299TIP3    H279389   0.110   0.334 103.999  1.2423  0.8993  0.3829
19300TIP3   OH279390   0.722   2.465  86.276  0.0840 -0.1166  0.2745
19300TIP3    H179391   0.763   2.470  86.362  1.1267 -2.2852 -0.0342
19300TIP3    H279392   0.654   2.399  86.285  0.3079 -0.4814 -0.5939
19301TIP3   OH279393   0.549   1.927  25.517 -0.3009 -0.5806  0.0271
19301TIP3    H179394   0.563   1.893  25.606 -0.1728  2.4470  1.2886
19301TIP3    H279395   0.628   1.902  25.470  0.4902 -0.6428  1.3298
19302TIP3   OH279396   1.670   1.931  27.531 -0.3464 -0.3698 -0.3199
19302TIP3    H179397   1.666   2.001  27.596  0.3495 -0.0328 -0.6246
19302TIP3    H279398   1.761   1.930  27.502 -0.3555 -1.3845 -0.3531
19303TIP3   OH279399   0.445   2.189  79.713  0.3764  0.2399  0.8925
19303TIP3    H179400   0.475   2.280  79.705 -2.8325  1.4067  0.7794
19303TIP3    H279401   0.511   2.138  79.666  2.2028  2.4962  0.8403
19304TIP3   OH279402   1.577   0.565  82.375 -0.0628 -0.1800 -0.0222
19304TIP3    H179403   1.583   0.562  82.280 -2.9611  1.5507 -0.3574
19304TIP3    H279404   1.484   0.554  82.394  0.0466  2.0904  2.4295
19305TIP3   OH279405   0.842   1.217  14.896  0.4401 -0.5520  0.0613
19305TIP3    H179406   0.798   1.137  14.868  1.6983 -1.8382  1.5797
19305TIP3    H279407   0.833   1.218  14.991  0.8356  0.8734  0.1066
19306TIP3   OH279408   0.421   1.077  22.511 -0.5308  0.5667 -0.4188
19306TIP3    H179409   0.437   1.087  22.605 -1.9899 -2.0055  0.2069
19306TIP3    H279410   0.466   0.995  22.489  0.6054  1.6056 -2.2458
19307TIP3   OH279411   0.392   0.449   4.896  0.4510 -0.2643  0.2956
19307TIP3    H179412   0.398   0.502   4.817 -0.0883 -0.8818 -0.1774
19307TIP3    H279413   0.444   0.496   4.961 -1.5345  1.8640  0.4796
19308TIP3   OH279414   0.807   2.085  99.771 -0.0578 -0.3138 -0.0850
19308TIP3    H179415   0.901   2.105  99.768  0.2331 -1.6321 -1.1343
19308TIP3    H279416   0.777   2.097  99.681 -0.6931 -0.7043  0.0670
19309TIP3   OH279417   2.617   2.552  90.017 -0.1527  0.7776 -0.0369
19309TIP3    H179418   2.558   2.582  90.086 -2.2106 -1.1144 -0.8319
19309TIP3    H279419   2.686   2.503  90.063 -1.0384  0.2418  0.7603
19310TIP3   OH279420   2.530   0.708  97.330 -0.1608 -0.2572  0.0571
19310TIP3    H179421   2.452   0.761  97.348 -0.2351 -0.6111  0.8295
19310TIP3    H279422   2.511   0.623  97.370  0.0669 -0.7981 -0.9481
19311TIP3   OH279423   0.934   1.141   3.393 -0.1485  0.2369 -0.0674
19311TIP3    H179424   1.027   1.138   3.412 -0.1218  1.1186 -0.0247
19311TIP3    H279425   0.928   1.180   3.305 -0.4147 -1.1842 -0.7131
19312TIP3   OH279426   1.197   0.232  25.318 -0.0348 -0.1727  0.0736
19312TIP3    H179427   1.208   0.157  25.260 -1.3353 -1.1848  1.0689
19312TIP3    H279428   1.107   0.262  25.302  0.1938  0.6498  0.2845
19313TIP3   OH279429   2.652   0.457 108.049 -0.3728 -0.3957 -0.2935
19313TIP3    H179430   2.568   0.504 108.043 -1.6105 -2.6696 -2.1875
19313TIP3    H279431   2.630   0.374 108.090  0.5910 -1.7003 -2.2591
19314TIP3   OH279432   0.464   1.843   9.746 -0.1466 -0.7901 -0.2235
19314TIP3    H179433   0.452   1.803   9.660 -0.8948 -3.0446  0.8616
19314TIP3    H279434   0.375   1.867   9.773  0.1900  0.8407 -0.4493
19315TIP3   OH279435   1.544   0.201  21.074 -0.6629  0.1837 -0.2597
19315TIP3    H179436   1.590   0.280  21.102 -1.3801  1.6130 -2.7850
19315TIP3    H279437   1.560   0.196  20.980 -3.3995 -0.7634 -0.7690
19316TIP3   OH279438   1.593   1.162 112.004  0.6053  0.3029 -0.1759
19316TIP3    H179439   1.504   1.177 111.970  0.9845  0.8574 -0.9575
19316TIP3    H279440   1.604   1.067 111.999  0.3213  0.2930 -0.7984
19317TIP3   OH279441   0.651   0.265  85.441 -0.0609 -0.1301 -0.5286
19317TIP3    H179442   0.586   0.304  85.383 -0.2160 -0.2515 -0.4402
19317TIP3    H279443   0.612   0.270  85.528 -0.3335 -0.9955 -0.5861
19318TIP3   OH279444   2.435   2.355  30.755 -0.2243 -0.1847  0.5856
19318TIP3    H179445   2.392   2.290  30.699 -0.6053  1.5589 -1.2765
19318TIP3    H279446   2.514   2.312  30.787 -0.3215 -1.4749 -0.8263
19319TIP3   OH279447   2.483   0.629  68.867  0.2353  0.0489  0.0906
19319TIP3    H179448   2.421   0.671  68.927  2.3247  0.9079  1.7596
19319TIP3    H279449   2.456   0.537  68.866 -1.1981  0.4252  0.5549
19320TIP3   OH279450   1.669   1.642  24.753 -0.1906 -0.3436 -0.6068
19320TIP3    H179451   1.605   1.571  24.763 -1.3668  0.6250 -1.0405
19320TIP3    H279452   1.685   1.672  24.843  0.0271 -0.8907 -0.4558
19321TIP3   OH279453   1.763   2.547  41.598 -0.1715 -0.9144  0.2170
19321TIP3    H179454   1.703   2.591  41.539  0.3123 -1.1301 -0.4475
19321TIP3    H279455   1.709   2.523  41.673 -0.3812  1.0815  0.7627
19322TIP3   OH279456   1.956   2.541  96.878  0.0818 -0.3475  0.2618
19322TIP3    H179457   2.012   2.462  96.880  0.0697 -0.3968 -0.6715
19322TIP3    H279458   1.871   2.511  96.910 -0.1410 -0.9121 -0.8199
19323TIP3   OH279459   2.126   2.197  90.671  1.1791 -0.3338  0.0426
19323TIP3    H179460   2.086   2.135  90.732 -1.0429  0.1422 -0.8059
19323TIP3    H279461   2.186   2.249  90.724  1.8495 -2.1246  1.0901
19324TIP3   OH279462   1.580   2.454  89.770 -0.2141  0.0340  0.1387
19324TIP3    H179463   1.558   2.463  89.863 -1.9430  0.0668 -0.2491
19324TIP3    H279464   1.674   2.433  89.770 -0.3794 -0.9165  1.9247
19325TIP3   OH279465   2.626   0.943 105.920  0.3711 -0.1116  0.0418
19325TIP3    H179466   2.703   1.000 105.922  1.2651 -1.2911  1.6222
19325TIP3    H279467   2.557   0.994 105.963  0.7799  0.2764  0.2415
19326TIP3   OH279468   1.061   0.842  13.283  0.5281 -0.1117  0.4709
19326TIP3    H179469   0.978   0.885  13.303  1.3245  1.2466  1.0221
19326TIP3    H279470   1.101   0.827  13.369  1.0968 -0.2439  0.1867
19327TIP3   OH279471   0.839   1.016  81.012  0.1744 -0.1402 -0.1402
19327TIP3    H179472   0.756   0.977  80.985 -0.8511  1.1017  1.0446
19327TIP3    H279473   0.845   1.098  80.962 -0.5380  0.9598  1.4882
19328TIP3   OH279474   2.313   0.165  19.208  0.4214  0.3350  0.1042
19328TIP3    H179475   2.253   0.093  19.190  0.2668  0.8594 -1.7070
19328TIP3    H279476   2.259   0.244  19.203  0.8093  0.6584  0.8591
19329TIP3   OH279477   1.360   0.394  98.459 -0.0144 -0.0269 -0.4455
19329TIP3    H179478   1.442   0.375  98.414 -0.7265 -1.9477 -0.9950
19329TIP3    H279479   1.293   0.350  98.407 -1.2072  0.0951  0.9329
19330TIP3   OH279480   0.670   2.324  90.667  0.3603 -0.6236  0.5338
19330TIP3    H179481   0.639   2.247  90.620  0.9610 -1.3596  1.2962
19330TIP3    H279482   0.753   2.347  90.625  0.4196 -0.6939  0.6109
19331TIP3   OH279483   0.894   1.521  31.804 -0.2232  0.0910  0.1253
19331TIP3    H179484   0.952   1.520  31.728 -0.5789  0.1113 -0.1507
19331TIP3    H279485   0.952   1.507  31.879 -0.0326 -1.2722 -0.2530
19332TIP3   OH279486   2.319   0.811  39.476  0.1792  0.0387 -0.3182
19332TIP3    H179487   2.277   0.894  39.502  0.6047  0.5736 -1.2876
19332TIP3    H279488   2.298   0.751  39.547  0.1203  1.0614  0.5674
19333TIP3   OH279489   1.308   1.103  37.161  0.6694  0.2365 -0.0833
19333TIP3    H179490   1.256   1.059  37.228  0.4553 -0.6000 -0.7795
19333TIP3    H279491   1.396   1.065  37.171  0.3669 -0.7559 -1.0151
19334TIP3   OH279492   0.695   2.240  93.906 -0.3096 -0.0654 -0.2868
19334TIP3    H179493   0.626   2.271  93.966  0.1907  2.5906 -0.9258
19334TIP3    H279494   0.692   2.303  93.834  1.5439 -1.0275 -1.2402
19335TIP3   OH279495   1.469   0.046  92.919 -0.1031 -0.3827 -0.0011
19335TIP3    H179496   1.428   0.125  92.883 -0.8854 -1.7847 -2.4553
19335TIP3    H279497   1.411   0.019  92.990  1.3298  2.3288  2.4033
19336TIP3   OH279498   2.037   1.596  12.214  0.3586 -0.3186  0.2165
19336TIP3    H179499   1.960   1.561  12.169  0.1468  0.8769 -0.4061
19336TIP3    H279500   2.095   1.521  12.223  0.6364 -0.5680 -2.5903
19337TIP3   OH279501   2.652   1.048 110.368 -0.2685  0.3443 -0.1953
19337TIP3    H179502   2.640   1.129 110.317 -0.1551  0.6068  0.1850
19337TIP3    H279503   2.573   1.041 110.421  0.2078  0.8180  0.6040
19338TIP3   OH279504   2.486   0.236  11.162 -0.3010  0.6301  0.0897
19338TIP3    H179505   2.468   0.175  11.234  0.5757  0.6514  0.3380
19338TIP3    H279506   2.428   0.207  11.091  0.4843 -0.8439  0.0059
19339TIP3   OH279507   0.873   0.724   9.190  0.1723  0.1025 -0.0664
19339TIP3    H179508   0.895   0.665   9.118  0.2168  0.1976 -0.1319
19339TIP3    H279509   0.855   0.666   9.264 -1.1931 -0.0610 -0.4932
19340TIP3   OH279510   1.943   0.301  98.671  0.2403  0.1817 -0.2304
19340TIP3    H179511   1.900   0.244  98.606 -0.4346  2.0586 -1.5099
19340TIP3    H279512   1.969   0.378  98.621  1.0841  1.0338  1.4715
19341TIP3   OH279513   1.605   0.221  89.794  0.1401  0.7812  0.0132
19341TIP3    H179514   1.551   0.163  89.848  0.7453  0.1239 -0.0775
19341TIP3    H279515   1.655   0.162  89.737  1.2807  1.3423  0.4003
19342TIP3   OH279516   1.780   2.409 106.617 -0.2464  0.0547  0.2572
19342TIP3    H179517   1.718   2.417 106.544 -0.2405 -0.5931  0.1648
19342TIP3    H279518   1.727   2.424 106.695  0.0962  2.6155  0.0742
19343TIP3   OH279519   1.907   1.164 102.886  0.1029  0.6848  0.7446
19343TIP3    H179520   1.883   1.076 102.856  1.7935 -0.2801  2.0724
19343TIP3    H279521   1.872   1.170 102.974  0.8396  0.9545  1.0251
19344TIP3   OH279522   1.277   0.073  22.658  0.1658  0.0007 -0.0657
19344TIP3    H179523   1.243   0.084  22.747 -0.8985 -0.0422 -0.4556
19344TIP3    H279524   1.288  -0.021  22.648 -0.3280 -0.0434 -0.1999
19345TIP3   OH279525   0.487   1.388  10.925 -0.8002  0.0995 -0.1745
19345TIP3    H179526   0.444   1.310  10.960 -1.0725  0.4600  0.3052
19345TIP3    H279527   0.551   1.354  10.862 -0.7558 -0.5273  0.1994
19346TIP3   OH279528   2.059   0.261  18.295 -0.1065 -0.2380  0.0656
19346TIP3    H179529   2.110   0.194  18.249  1.4266  0.9500 -0.0708
19346TIP3    H279530   2.056   0.335  18.234  0.7313  0.8476  1.2725
19347TIP3   OH279531   0.872   0.743  11.017  0.1285  0.1120 -0.0676
19347TIP3    H179532   0.778   0.759  11.022  0.0928 -0.0690 -0.1467
19347TIP3    H279533   0.912   0.827  11.037 -0.0291 -0.1464  1.4367
19348TIP3   OH279534   2.068   0.633  97.589 -0.3679  0.4372  0.2471
19348TIP3    H179535   2.069   0.582  97.508  0.5373  0.1001  0.4515
19348TIP3    H279536   2.002   0.701  97.574 -0.9153 -0.2200 -0.3916
19349TIP3   OH279537   0.857   0.690 103.639  0.3003  0.4962  0.2097
19349TIP3    H179538   0.850   0.595 103.649 -1.4027  0.5237 -0.3721
19349TIP3    H279539   0.921   0.702 103.569 -1.0649 -0.3496 -1.2591
19350TIP3   OH279540   2.194   0.751  76.657 -0.4613 -0.0499 -0.8779
19350TIP3    H179541   2.148   0.755  76.573 -1.1834  0.3461 -0.4777
19350TIP3    H279542   2.141   0.691  76.710  0.2117 -0.6140 -0.8300
19351TIP3   OH279543   0.541   1.535 108.256 -0.0433  0.6104  0.0420
19351TIP3    H179544   0.505   1.578 108.178 -0.9701 -0.1285  0.0360
19351TIP3    H279545   0.541   1.603 108.323  2.1862  1.6927 -0.9653
19352TIP3   OH279546   0.136   1.370  29.417  0.3611  0.2067 -0.1085
19352TIP3    H179547   0.045   1.401  29.423  0.0809 -0.8192  1.8642
19352TIP3    H279548   0.183   1.426  29.479  1.2621  1.2031 -1.6359
19353TIP3   OH279549   0.440   0.273  73.717  0.0563 -0.7969 -0.4303
19353TIP3    H179550   0.496   0.222  73.775 -0.1232 -1.1910 -0.6020
19353TIP3    H279551   0.364   0.217  73.702 -0.5127 -0.1597  0.0150
19354TIP3   OH279552   0.385   1.855  10.850 -0.0037 -0.2042 -0.0905
19354TIP3    H179553   0.312   1.899  10.892  1.6592  2.7145  0.0616
19354TIP3    H279554   0.425   1.802  10.919 -2.4887 -2.8223 -0.4641
19355TIP3   OH279555   0.922   0.576   5.871  0.0084 -0.0857 -0.0288
19355TIP3    H179556   1.012   0.545   5.884 -0.6977 -1.7684  1.1611
19355TIP3    H279557   0.902   0.625   5.951 -0.0726  0.5182 -0.4072
19356TIP3   OH279558   1.364   1.962  98.458  0.3049  0.2908 -0.4143
19356TIP3    H179559   1.318   2.045  98.460 -2.0155 -0.9262  0.6455
19356TIP3    H279560   1.441   1.976  98.513 -0.1441  1.6745 -0.0922
19357TIP3   OH279561   0.639   2.142  26.930  0.2740 -0.0401  0.0707
19357TIP3    H179562   0.598   2.058  26.953  1.8363 -1.5298 -2.0998
19357TIP3    H279563   0.589   2.207  26.978 -3.2622 -1.8811 -0.7802
19358TIP3   OH279564   0.538   0.924 106.676  0.8193  0.2914  0.1968
19358TIP3    H179565   0.619   0.967 106.702  0.7825  0.6767 -0.3055
19358TIP3    H279566   0.520   0.957 106.588 -0.1465  0.5858  0.4928
19359TIP3   OH279567   2.582   1.567   0.681  0.4749  0.1978 -0.3130
19359TIP3    H179568   2.661   1.581   0.733  1.1388  0.3302 -1.3363
19359TIP3    H279569   2.537   1.652   0.683  0.6793  0.3058 -0.2503
19360TIP3   OH279570   1.081   1.073  11.857  0.3635 -0.5749  0.4712
19360TIP3    H179571   1.043   1.037  11.937  0.9331 -1.7262  0.2466
19360TIP3    H279572   1.132   1.001  11.820  1.0771  0.3023 -0.3105
19361TIP3   OH279573   2.149   1.723   8.146  0.5170  0.3960 -0.4460
19361TIP3    H179574   2.079   1.715   8.211  0.5831 -0.9278 -0.5225
19361TIP3    H279575   2.229   1.733   8.197  0.7232 -1.8085 -0.2440
19362TIP3   OH279576   1.898   1.907  79.606  0.2027  0.4477 -0.0930
19362TIP3    H179577   1.907   2.002  79.597 -0.2166  0.4988 -0.0327
19362TIP3    H279578   1.964   1.882  79.670 -0.0896  0.7862  0.3435
19363TIP3   OH279579   1.365   0.050  24.854 -0.4475  0.1726  0.2221
19363TIP3    H179580   1.437   0.113  24.863 -0.5594  0.0816  2.2193
19363TIP3    H279581   1.321   0.075  24.773  0.3340  1.7936  0.2574
19364TIP3   OH279582   1.641   0.950 101.485  0.2082 -0.1069  0.1295
19364TIP3    H179583   1.585   0.896 101.430 -0.4621  0.8770 -0.1763
19364TIP3    H279584   1.584   1.020 101.516  0.5707 -0.6131  2.0823
19365TIP3   OH279585   0.081   0.611 100.632  0.0903 -0.1001  0.0183
19365TIP3    H179586   0.018   0.681 100.646 -1.6366 -1.3778 -0.9880
19365TIP3    H279587   0.044   0.536 100.679  1.0720 -0.7662 -0.2386
19366TIP3   OH279588   0.726   1.926  29.203 -0.0369  0.0309 -0.3224
19366TIP3    H179589   0.700   1.972  29.283  0.6994  0.1130 -0.1299
19366TIP3    H279590   0.801   1.873  29.228  0.3078  0.1887 -1.0023
19367TIP3   OH279591   1.612   0.376  97.094  0.3405  0.5721 -0.2890
19367TIP3    H179592   1.612   0.381  96.998  1.6885  2.6445 -0.2596
19367TIP3    H279593   1.698   0.340  97.116  0.2554  0.6282  0.1351
19368TIP3   OH279594   0.075   0.619  96.319  0.1853  0.1366 -1.0280
19368TIP3    H179595   0.121   0.548  96.364  1.2582  0.5003 -1.5316
19368TIP3    H279596   0.120   0.698  96.348 -1.4118  0.6857  0.0252
19369TIP3   OH279597   2.297   0.599 106.515 -0.3841  0.4688 -0.4845
19369TIP3    H179598   2.211   0.614 106.475 -0.8124 -0.3194  0.1107
19369TIP3    H279599   2.339   0.535 106.457 -1.6993 -2.0592  1.1564
19370TIP3   OH279600   1.452   1.693  86.940 -0.3261  0.1457  0.1099
19370TIP3    H179601   1.546   1.682  86.929 -0.0850  0.9476  1.1780
19370TIP3    H279602   1.443   1.779  86.980 -1.5090  0.0244  0.1272
19371TIP3   OH279603   2.639   0.535 102.974  0.2534  0.3481  0.0079
19371TIP3    H179604   2.590   0.531 102.892  0.5268 -0.1012 -0.1383
19371TIP3    H279605   2.703   0.463 102.967 -0.3857 -0.3383  1.0399
19372TIP3   OH279606   1.501   0.305 102.928  0.0569  0.1549 -0.1585
19372TIP3    H179607   1.508   0.237 102.994 -2.5327  0.9791  1.0957
19372TIP3    H279608   1.550   0.379 102.964  0.1991  0.0020 -0.0358
19373TIP3   OH279609   2.137   2.685  88.143  0.3012 -0.3621 -0.2127
19373TIP3    H179610   2.145   2.768  88.096 -2.5749 -0.5075 -1.1808
19373TIP3    H279611   2.083   2.631  88.085  1.4589 -2.6659  0.7362
19374TIP3   OH279612   0.398   1.951  16.538  0.7400  0.3149  0.1109
19374TIP3    H179613   0.422   1.871  16.492  1.1654  0.9031 -0.7071
19374TIP3    H279614   0.465   2.014  16.513  1.6303  0.3820  2.3709
19375TIP3   OH279615   2.029   2.331   5.364 -0.4792 -0.2099  0.6785
19375TIP3    H179616   2.064   2.420   5.361 -0.4241 -0.2043  1.4343
19375TIP3    H279617   1.985   2.325   5.448  1.5419 -1.6435  1.7215
19376TIP3   OH279618   2.578   0.004   4.026  0.2968  0.1840  0.1433
19376TIP3    H179619   2.537   0.029   3.943  0.7927 -0.3445 -0.2661
19376TIP3    H279620   2.663   0.047   4.025  1.6489 -2.3115 -1.0879
19377TIP3   OH279621   1.523   1.584  21.657 -0.2179 -0.0998 -0.9628
19377TIP3    H179622   1.541   1.518  21.724 -0.6754  0.5459 -0.1829
19377TIP3    H279623   1.439   1.623  21.684 -0.7337 -0.2693 -2.2678
19378TIP3   OH279624   2.255   0.317 108.607 -0.7981 -0.1806 -0.1067
19378TIP3    H179625   2.263   0.359 108.693  1.2320 -0.0217 -0.3086
19378TIP3    H279626   2.307   0.374 108.549 -1.5543 -0.6699 -1.2892
19379TIP3   OH279627   1.302   0.342  30.487  0.0820  0.2237 -0.6125
19379TIP3    H179628   1.284   0.297  30.570 -0.2220  0.3179 -0.6258
19379TIP3    H279629   1.279   0.279  30.419 -2.4597  1.1089 -0.6853
19380TIP3   OH279630   2.273   2.103  12.943  0.3658 -0.0469 -0.0245
19380TIP3    H179631   2.227   2.112  13.027  1.4454 -2.3044  0.9066
19380TIP3    H279632   2.309   2.190  12.927 -1.9472  1.0945  0.5404
19381TIP3   OH279633   2.584   2.237  32.664  0.4032 -0.2007  0.3267
19381TIP3    H179634   2.517   2.205  32.604  0.6150  0.2931 -0.1875
19381TIP3    H279635   2.541   2.240  32.750 -0.3714  0.5280 -0.0693
19382TIP3   OH279636   2.234   0.155 102.679  0.1869  0.2387  0.4050
19382TIP3    H179637   2.262   0.235 102.635 -2.7320  1.7381  1.0485
19382TIP3    H279638   2.242   0.087 102.612  1.1136  1.3875 -0.6970
19383TIP3   OH279639   1.540   0.368  31.133  0.4259 -0.2554  0.1373
19383TIP3    H179640   1.510   0.439  31.076 -0.4068  0.1318  1.0462
19383TIP3    H279641   1.561   0.297  31.072 -1.9506 -0.4168 -0.5915
19384TIP3   OH279642   1.304   2.456   9.644  0.0992  0.0614 -0.1122
19384TIP3    H179643   1.259   2.412   9.717 -0.0995 -0.3863 -0.5035
19384TIP3    H279644   1.354   2.526   9.686 -0.7508  0.4037  0.3716
19385TIP3   OH279645   1.812   0.595  31.248  0.1661 -0.2884 -0.8523
19385TIP3    H179646   1.739   0.535  31.237  0.8055 -1.2721  0.0804
19385TIP3    H279647   1.784   0.657  31.315 -0.8907  1.1577 -2.5273
19386TIP3   OH279648   1.334   2.076  14.189 -0.3339  0.1662 -0.7416
19386TIP3    H179649   1.388   1.999  14.207 -0.6896 -0.2910 -1.5809
19386TIP3    H279650   1.317   2.114  14.276  0.0642 -0.5442 -0.3422
19387TIP3   OH279651   1.549   1.540  88.594 -0.8420 -0.7335 -0.6680
19387TIP3    H179652   1.550   1.478  88.668  0.3912 -0.3842 -0.3604
19387TIP3    H279653   1.632   1.588  88.603 -1.2854  0.2200 -1.5337
19388TIP3   OH279654   1.658   1.909  23.765  0.4921 -0.1489 -0.0703
19388TIP3    H179655   1.579   1.882  23.720 -1.4190 -1.5056  3.6764
19388TIP3    H279656   1.712   1.950  23.697 -3.9046  2.1139 -2.6284
19389TIP3   OH279657   1.351   1.002  88.994  0.1430  0.5466  0.2209
19389TIP3    H179658   1.365   0.908  88.985  0.0943  0.7014 -2.3035
19389TIP3    H279659   1.289   1.024  88.924 -0.0528  2.4098  0.9235
19390TIP3   OH279660   1.228   1.377   4.987  0.3274  0.7929 -0.1628
19390TIP3    H179661   1.239   1.316   4.914  1.9686  0.5450  0.2535
19390TIP3    H279662   1.135   1.372   5.008  0.3815 -1.5956 -0.1489
19391TIP3   OH279663   2.417   1.305  77.244 -0.2983  0.4475  0.1000
19391TIP3    H179664   2.424   1.277  77.153  0.6379  2.0282 -0.3503
19391TIP3    H279665   2.446   1.228  77.294 -0.5515 -0.3487 -0.9361
19392TIP3   OH279666   0.231   1.690  35.863 -0.1850 -0.4203 -0.0694
19392TIP3    H179667   0.214   1.597  35.876 -1.0663 -0.1489  0.8517
19392TIP3    H279668   0.158   1.734  35.906  0.5752  0.7144  0.1041
19393TIP3   OH279669   1.380   1.073 101.807 -0.1841 -0.0017 -0.1125
19393TIP3    H179670   1.362   1.084 101.900 -0.3763  0.8382 -0.2350
19393TIP3    H279671   1.472   1.048 101.804 -0.1610  0.0185  0.3044
19394TIP3   OH279672   0.580   0.585 101.064  0.1723 -0.3522  0.3484
19394TIP3    H179673   0.541   0.605 101.150  0.2190 -0.0079  0.2912
19394TIP3    H279674   0.509   0.597 101.002  0.2393 -0.2234  0.2950
19395TIP3   OH279675   1.872   1.868 101.221 -0.1001  0.1515  0.0648
19395TIP3    H179676   1.936   1.896 101.286  0.3909 -1.0062  0.0965
19395TIP3    H279677   1.853   1.777 101.242  0.5326 -0.4459 -1.7647
19396TIP3   OH279678   2.641   2.107  94.111  0.5354 -0.2863 -0.0593
19396TIP3    H179679   2.688   2.073  94.187  1.2517 -1.4972 -1.0108
19396TIP3    H279680   2.665   2.048  94.039 -1.4305 -0.1660 -0.8685
19397TIP3   OH279681   0.410   2.065  83.013  0.3685  0.5038  0.5243
19397TIP3    H179682   0.325   2.107  83.004 -0.4046 -0.5511  2.3463
19397TIP3    H279683   0.415   2.005  82.938  0.8651  2.6804 -1.2650
19398TIP3   OH279684   2.320   1.979 100.155  0.3763  0.0254  0.6921
19398TIP3    H179685   2.410   1.958 100.129 -0.2165 -0.1538 -1.4025
19398TIP3    H279686   2.306   2.068 100.121 -0.3412 -0.0695  0.7285
19399TIP3   OH279687   2.487   1.160  23.482  0.0220 -0.2900 -0.0395
19399TIP3    H179688   2.561   1.103  23.462 -0.1868 -0.6770  0.2686
19399TIP3    H279689   2.522   1.225  23.543 -0.2321 -1.4024  1.3625
19400TIP3   OH279690   2.149   1.910  90.924 -0.1727  0.3479 -0.2028
19400TIP3    H179691   2.228   1.866  90.893 -1.3984 -0.6705 -2.0856
19400TIP3    H279692   2.181   1.979  90.982  1.9476 -1.7138  1.2769
19401TIP3   OH279693   1.570   2.227  29.809 -0.1991 -0.4584  0.3160
19401TIP3    H179694   1.605   2.286  29.743  1.6371 -0.5310  1.1506
19401TIP3    H279695   1.518   2.164  29.760  0.1409  0.1931 -0.9174
19402TIP3   OH279696   1.894   2.250  25.897  0.0137 -0.3488  0.1240
19402TIP3    H179697   1.970   2.250  25.839 -0.0454  1.7705 -0.0237
19402TIP3    H279698   1.833   2.313  25.858 -1.0982 -0.7317  1.1526
19403TIP3   OH279699   0.310   0.559 108.853  0.0605  0.4804  0.5844
19403TIP3    H179700   0.336   0.475 108.891 -0.4928  0.5317  1.0991
19403TIP3    H279701   0.222   0.543 108.818  0.7949  0.2599 -1.2551
19404TIP3   OH279702   0.884   2.644  30.886 -0.2668  0.1274  0.3268
19404TIP3    H179703   0.943   2.615  30.955 -1.1525  0.7378  1.3820
19404TIP3    H279704   0.799   2.653  30.930 -0.7157  1.1171 -0.6997
19405TIP3   OH279705   1.427   0.127  99.812  0.0638  0.3026 -0.1428
19405TIP3    H179706   1.452   0.164  99.727 -1.3457  0.8102 -0.3601
19405TIP3    H279707   1.420   0.203  99.870 -1.0684  0.2075 -0.1283
19406TIP3   OH279708   0.976   0.260 105.211 -0.0031  0.3102  0.1796
19406TIP3    H179709   0.951   0.304 105.292  0.2066  0.9726 -0.1072
19406TIP3    H279710   0.982   0.167 105.234  0.6804  0.5693  1.0726
19407TIP3   OH279711   0.259   0.556 104.790 -0.0181  0.6368 -0.1007
19407TIP3    H179712   0.269   0.568 104.696  2.0990 -0.6797 -0.0933
19407TIP3    H279713   0.230   0.465 104.800  2.2269 -0.0594  0.5723
19408TIP3   OH279714   0.786   1.404  90.294  0.0337  0.8724 -0.2274
19408TIP3    H179715   0.806   1.368  90.208  2.5948 -0.3808  0.7709
19408TIP3    H279716   0.871   1.405  90.340 -1.0006  2.7052  1.8515
19409TIP3   OH279717   0.599   0.189  16.798 -0.0351 -0.3223 -0.1499
19409TIP3    H179718   0.633   0.107  16.761  0.6992 -0.1946  0.2324
19409TIP3    H279719   0.672   0.225  16.848 -1.1096 -0.7123  1.7950
19410TIP3   OH279720   2.454   1.971 105.881  0.0131 -0.3716 -0.6051
19410TIP3    H179721   2.478   2.003 105.794  1.2574  0.6874  0.0907
19410TIP3    H279722   2.448   1.876 105.871 -0.0854 -0.2463 -1.8797
19411TIP3   OH279723   2.073   0.511  15.392  0.6021 -0.3873 -0.0004
19411TIP3    H179724   2.065   0.602  15.422  0.8669 -0.4744  0.3526
19411TIP3    H279725   2.025   0.460  15.458  0.2093 -0.4810 -0.3522
19412TIP3   OH279726   2.479   1.569   9.547 -0.2748  0.0668  0.1079
19412TIP3    H179727   2.561   1.608   9.517  0.1535 -1.0546 -0.2474
19412TIP3    H279728   2.411   1.621   9.505  0.3004 -0.5203 -1.6455
19413TIP3   OH279729   1.281   2.167   1.349 -0.2756 -0.0104  0.3861
19413TIP3    H179730   1.312   2.254   1.373  1.1068  0.0117 -1.2868
19413TIP3    H279731   1.229   2.181   1.269  0.3343 -0.7563 -0.1539
19414TIP3   OH279732   0.660   1.416 103.905  0.2292 -0.0249  0.9285
19414TIP3    H179733   0.681   1.488 103.847 -1.1796 -0.4711 -0.1827
19414TIP3    H279734   0.564   1.412 103.906  0.2375 -0.7809  2.3533
19415TIP3   OH279735   0.697   0.174  90.631  0.2162 -0.2651 -0.3229
19415TIP3    H179736   0.761   0.203  90.565 -0.5476  0.9375 -0.5644
19415TIP3    H279737   0.722   0.220  90.711  0.5146 -0.9254 -0.0174
19416TIP3   OH279738   2.423   0.074  88.681 -0.7947 -0.2820  0.0091
19416TIP3    H179739   2.506   0.071  88.729 -1.2281  1.1971  0.9372
19416TIP3    H279740   2.359   0.038  88.742 -0.5790 -3.5672 -1.5027
19417TIP3   OH279741   2.016   2.658  15.583 -0.4901 -0.1847 -0.1107
19417TIP3    H179742   1.965   2.611  15.517 -2.0814  0.4962  0.5699
19417TIP3    H279743   2.066   2.590  15.628 -0.4126 -0.8207 -1.1431
19418TIP3   OH279744   1.450   0.209  76.653 -1.0081  0.0177 -0.6214
19418TIP3    H179745   1.461   0.220  76.747 -0.5265 -0.6263 -0.5975
19418TIP3    H279746   1.418   0.294  76.622 -1.0906  0.2534  0.1055
19419TIP3   OH279747   1.983   0.523  33.816 -0.0880 -0.3381  0.1619
19419TIP3    H179748   1.991   0.427  33.818 -0.7520 -0.4700 -1.7494
19419TIP3    H279749   2.048   0.553  33.880  1.2014 -2.0071 -0.2767
19420TIP3   OH279750   2.298   0.619  85.734 -0.2594  0.1920  0.4114
19420TIP3    H179751   2.370   0.676  85.706  0.3721 -0.2969  1.0223
19420TIP3    H279752   2.287   0.638  85.827 -1.4622  0.8324  0.1596
19421TIP3   OH279753   1.813   2.491 101.717 -0.3201  0.0832  0.2063
19421TIP3    H179754   1.745   2.428 101.692 -0.2471 -0.5003  1.3842
19421TIP3    H279755   1.892   2.459 101.673 -0.5200  0.0101 -0.1051
19422TIP3   OH279756   1.780   0.846  90.953  0.4102  0.2190 -0.3895
19422TIP3    H179757   1.813   0.860  90.864 -0.2344  1.0018 -0.5176
19422TIP3    H279758   1.813   0.759  90.977  2.3323  0.8460 -0.5957
19423TIP3   OH279759   0.176   2.380   5.284 -0.5599 -0.2775  0.5021
19423TIP3    H179760   0.100   2.423   5.245 -0.4934  0.7377  1.4733
19423TIP3    H279761   0.248   2.400   5.224 -0.9559 -0.8957 -0.2022
19424TIP3   OH279762   1.585   1.294  81.720  0.5358  0.2410  0.3806
19424TIP3    H179763   1.507   1.241  81.735  1.2660 -0.3618  2.2213
19424TIP3    H279764   1.604   1.283  81.626 -1.1191 -0.2144  0.0776
19425TIP3   OH279765   2.286   2.031   2.282  0.0217  0.0411  0.0310
19425TIP3    H179766   2.320   2.048   2.194  0.0980  0.6482  0.1726
19425TIP3    H279767   2.268   1.937   2.283 -0.1364  0.0576 -0.6872
19426TIP3   OH279768   0.083   0.579  36.328 -0.1091  0.0608 -0.9786
19426TIP3    H179769   0.114   0.652  36.381  1.3901 -1.6126  0.6314
19426TIP3    H279770   0.016   0.616  36.271  0.0967  2.5030  0.2526
19427TIP3   OH279771   1.825   1.719   9.604  0.4868 -0.6439  0.2509
19427TIP3    H179772   1.853   1.724   9.513 -0.2323 -0.2719  0.0334
19427TIP3    H279773   1.857   1.801   9.643  0.1604 -0.4575  0.1351
19428TIP3   OH279774   1.660   1.901  19.119 -0.0156 -0.2593  0.2534
19428TIP3    H179775   1.699   1.964  19.059 -0.2889  0.7467  1.1102
19428TIP3    H279776   1.689   1.816  19.086 -1.3896  0.1314 -2.2030
19429TIP3   OH279777   0.242   0.796  10.635 -0.4338  0.0043  0.1668
19429TIP3    H179778   0.234   0.874  10.690 -0.4264  0.5233 -0.5468
19429TIP3    H279779   0.293   0.735  10.687 -1.6061 -0.0512  1.2887
19430TIP3   OH279780   0.832   1.880  73.681  0.8195  0.7607  0.4309
19430TIP3    H179781   0.894   1.897  73.610  0.1086  1.6257 -0.0044
19430TIP3    H279782   0.746   1.884  73.638  0.4288  0.1971  1.1450
19431TIP3   OH279783   0.121   1.682 100.330 -0.1367  0.0494  0.1603
19431TIP3    H179784   0.199   1.671 100.276  0.6848  0.8096  1.1559
19431TIP3    H279785   0.084   1.593 100.337  0.7603 -0.3571 -0.1508
19432TIP3   OH279786   2.452   2.540 103.033  0.0348  0.3137  0.1615
19432TIP3    H179787   2.431   2.624 102.993 -0.9324 -0.3173 -0.7117
19432TIP3    H279788   2.540   2.520 103.002 -0.3324  0.2823 -0.9149
19433TIP3   OH279789   0.437   1.734  74.939 -0.3842 -0.3633  0.0909
19433TIP3    H179790   0.480   1.713  74.856  0.0359 -0.1368  0.2478
19433TIP3    H279791   0.373   1.802  74.918  0.0489  0.0309  0.0324
19434TIP3   OH279792   1.106   1.547  33.235  0.3203 -0.8785  0.4374
19434TIP3    H179793   1.041   1.543  33.165  1.5470 -0.7012 -0.7580
19434TIP3    H279794   1.055   1.557  33.315 -1.1073 -0.5992 -0.4708
19435TIP3   OH279795   1.971   1.822  95.695  0.4603 -0.3193 -0.6580
19435TIP3    H179796   1.880   1.836  95.666 -0.2677  2.1424  2.3196
19435TIP3    H279797   2.010   1.909  95.695  2.1831 -1.0424  0.1261
19436TIP3   OH279798   1.722   1.525  93.518 -0.3463 -0.0825 -0.0907
19436TIP3    H179799   1.745   1.599  93.575  0.0241  0.0644 -0.4298
19436TIP3    H279800   1.660   1.561  93.455 -2.5593 -0.7602  1.5782
19437TIP3   OH279801   0.710   0.065  27.167 -0.2266  0.3752 -0.9789
19437TIP3    H179802   0.670   0.005  27.231  1.0843  0.5858  0.0698
19437TIP3    H279803   0.680   0.152  27.194  2.0910  0.7304  0.8377
19438TIP3   OH279804   2.053   0.932  99.807 -0.3292  0.2555  0.2289
19438TIP3    H179805   1.959   0.913  99.801 -0.4734  1.2903 -1.4244
19438TIP3    H279806   2.079   0.898  99.892 -1.8546 -1.5503  0.0280
19439TIP3   OH279807   1.743   2.056  36.180 -0.0472 -0.0104  0.2302
19439TIP3    H179808   1.818   2.028  36.128 -0.2656 -0.6247  0.2458
19439TIP3    H279809   1.781   2.082  36.264  0.4854  2.3011 -0.6436
19440TIP3   OH279810   2.268   0.815  89.376  0.2026 -0.0660  0.0455
19440TIP3    H179811   2.248   0.766  89.455 -0.3062 -1.7600 -1.0674
19440TIP3    H279812   2.183   0.833  89.337  0.4901 -0.3905 -0.7547
19441TIP3   OH279813   0.385   0.908  30.760 -0.3369  0.0708 -0.3264
19441TIP3    H179814   0.298   0.938  30.733 -1.0757 -1.5358  0.1836
19441TIP3    H279815   0.371   0.869  30.846  0.9871  0.2039 -0.0360
19442TIP3   OH279816   1.434   0.183  18.457  0.3036  0.1967  0.5481
19442TIP3    H179817   1.373   0.116  18.487 -0.6608  0.0278 -1.6352
19442TIP3    H279818   1.502   0.134  18.411 -0.3886  0.6770 -1.0262
19443TIP3   OH279819   1.344   1.413  86.704 -0.1348 -0.0311  0.2437
19443TIP3    H179820   1.259   1.369  86.707 -0.4256  0.5790  1.7540
19443TIP3    H279821   1.325   1.504  86.726  1.1301 -0.3061  2.8604
19444TIP3   OH279822   2.444   0.368  56.701  0.2115 -0.4886  0.2324
19444TIP3    H179823   2.375   0.345  56.638 -0.5334  0.4558  0.6830
19444TIP3    H279824   2.486   0.445  56.663 -0.1352 -0.0138  0.8121
19445TIP3   OH279825   0.190   1.108 105.910  0.1657 -0.2741  0.2839
19445TIP3    H179826   0.264   1.150 105.866  0.2539  1.7242  2.1139
19445TIP3    H279827   0.136   1.182 105.940 -1.7051 -1.6338  0.4229
19446TIP3   OH279828   1.225   1.831  77.619  0.1582 -0.1286 -0.3719
19446TIP3    H179829   1.287   1.759  77.632  0.3738  0.1919  0.4477
19446TIP3    H279830   1.143   1.789  77.595  0.4474 -0.6070 -0.5334
19447TIP3   OH279831   1.262   0.493  87.570 -0.2925  0.9340 -0.2199
19447TIP3    H179832   1.293   0.428  87.633  0.5727  1.1143 -0.4415
19447TIP3    H279833   1.203   0.445  87.513 -1.1239  0.7732  0.7416
19448TIP3   OH279834   2.457   0.701 108.341  0.1388  0.2801  0.6990
19448TIP3    H179835   2.480   0.621 108.292  0.2287  0.6534  0.1217
19448TIP3    H279836   2.365   0.689 108.364 -0.0073  0.2576  0.1219
19449TIP3   OH279837   0.874   1.198 110.686 -0.0832  0.1499  0.2625
19449TIP3    H179838   0.917   1.253 110.620  0.7934 -0.8743 -0.0613
19449TIP3    H279839   0.917   1.222 110.768 -0.0616  0.3117  0.2040
19450TIP3   OH279840   2.152   1.821  14.814  0.5596 -0.5014  0.2019
19450TIP3    H179841   2.154   1.733  14.853 -0.8028 -0.6883 -0.1148
19450TIP3    H279842   2.059   1.843  14.809  0.7548  0.0385 -1.7637
19451TIP3   OH279843   2.623   2.411 108.884 -0.1268  0.0559  0.5640
19451TIP3    H179844   2.623   2.333 108.939  0.3680 -0.4595 -0.1421
19451TIP3    H279845   2.569   2.474 108.931  0.8163 -0.1349  1.9635
19452TIP3   OH279846   2.165   0.238  83.581  0.9745  0.3836 -0.8072
19452TIP3    H179847   2.115   0.319  83.577  0.1650 -0.1535 -1.9569
19452TIP3    H279848   2.207   0.240  83.667 -1.3779  0.6555  0.4151
19453TIP3   OH279849   1.792   1.017  15.535  0.1798  0.3782 -0.0678
19453TIP3    H179850   1.846   0.942  15.560 -0.6238 -0.4595 -0.7956
19453TIP3    H279851   1.750   0.991  15.454 -1.4740  0.9313  0.5742
19454TIP3   OH279852   1.312   2.487  76.766 -0.5206 -0.3099 -0.2799
19454TIP3    H179853   1.369   2.522  76.697 -0.1727 -1.7954 -0.7811
19454TIP3    H279854   1.321   2.392  76.759 -1.1567 -0.5150  1.2618
19455TIP3   OH279855   2.003   2.504 107.851 -0.5524 -0.0543 -0.1757
19455TIP3    H179856   2.024   2.423 107.897 -0.6094  0.4254  0.7209
19455TIP3    H279857   2.080   2.560 107.863 -0.2973 -0.1624 -1.2296
19456TIP3   OH279858   2.506   1.853  89.343  0.1895  0.0821 -0.3064
19456TIP3    H179859   2.413   1.863  89.365  0.4778  3.1817 -0.0806
19456TIP3    H279860   2.506   1.794  89.267 -1.8352 -0.8647  0.3424
19457TIP3   OH279861   0.786   2.585   4.272  0.0844 -0.1595  0.3572
19457TIP3    H179862   0.795   2.657   4.335 -1.4638  0.7946 -0.4448
19457TIP3    H279863   0.827   2.510   4.315  0.9721  0.9907  1.5848
19458TIP3   OH279864   0.480   0.504   1.315  0.0997 -0.1082 -0.6457
19458TIP3    H179865   0.460   0.457   1.234 -0.6541  0.7706 -0.9889
19458TIP3    H279866   0.398   0.547   1.338  0.7320  0.9195 -0.2721
19459TIP3   OH279867   1.875   2.476  12.222  0.3269 -0.3743  0.3400
19459TIP3    H179868   1.803   2.419  12.194  1.7434 -3.0943  1.8257
19459TIP3    H279869   1.856   2.494  12.314  0.3968  0.8469  0.1344
19460TIP3   OH279870   0.555   1.706  88.127  0.6053 -0.0224 -0.3116
19460TIP3    H179871   0.643   1.730  88.099  0.2685 -1.2823 -2.6894
19460TIP3    H279872   0.501   1.718  88.048 -1.2863  0.2881  0.9665
19461TIP3   OH279873   0.696   2.156   7.000 -0.3623 -0.3980  0.5034
19461TIP3    H179874   0.768   2.094   7.012 -0.1161 -0.1598  0.2731
19461TIP3    H279875   0.680   2.155   6.906 -0.4948 -0.2659  0.5251
19462TIP3   OH279876   0.703   0.400  57.479 -0.2207 -0.3953  0.2601
19462TIP3    H179877   0.782   0.427  57.525  0.4701  0.0558 -1.1409
19462TIP3    H279878   0.646   0.477  57.483 -0.8191 -0.8805  1.6923
19463TIP3   OH279879   2.519   0.476  30.788 -0.2582  0.3517  0.6453
19463TIP3    H179880   2.461   0.522  30.728 -0.4183  0.0925  0.6021
19463TIP3    H279881   2.606   0.486  30.750 -0.2066  1.1578  0.9664
19464TIP3   OH279882   1.740   0.207 111.800 -0.0424 -0.5677  0.2435
19464TIP3    H179883   1.654   0.248 111.809 -0.3108 -1.1035  0.1305
19464TIP3    H279884   1.745   0.145 111.873 -0.1951 -1.3263 -0.3857
19465TIP3   OH279885   0.453   1.821  20.214  0.0434  0.4238  0.1366
19465TIP3    H179886   0.377   1.839  20.270 -0.7144  0.3567 -0.8277
19465TIP3    H279887   0.441   1.730  20.186 -0.2361  0.7926 -1.0368
19466TIP3   OH279888   1.477   0.875  77.925  0.3354  0.1408 -0.2862
19466TIP3    H179889   1.503   0.904  78.012 -1.3833  0.0038  0.3230
19466TIP3    H279890   1.440   0.788  77.939  0.0676  0.1008 -1.1635
19467TIP3   OH279891   1.277   1.806  12.750 -0.3598 -0.6134 -0.2232
19467TIP3    H179892   1.268   1.863  12.673  1.3237  0.3959  0.2728
19467TIP3    H279893   1.349   1.748  12.729  1.4584  0.9643  1.2700
19468TIP3   OH279894   1.414   1.619  32.224 -0.0620  0.0338 -0.2485
19468TIP3    H179895   1.491   1.631  32.169 -0.2497 -0.7741 -0.7085
19468TIP3    H279896   1.353   1.688  32.196  0.0217 -0.0890 -0.7465
19469TIP3   OH279897   1.441   2.359 100.484 -0.6387 -0.2439 -0.0691
19469TIP3    H179898   1.346   2.354 100.473 -0.4747  0.1437 -2.2676
19469TIP3    H279899   1.476   2.313 100.408  0.9449 -0.2346  0.6066
19470TIP3   OH279900   0.821   1.925  74.856 -0.0841  0.7066 -0.1679
19470TIP3    H179901   0.793   1.849  74.805 -1.0939  0.0705  1.2602
19470TIP3    H279902   0.741   1.975  74.870  0.4079  1.5356 -0.2785
19471TIP3   OH279903   0.380   0.406 103.932 -0.1355  0.3797 -0.0930
19471TIP3    H179904   0.351   0.483 103.982 -2.1462 -0.6561  0.4351
19471TIP3    H279905   0.317   0.398 103.861  0.5245 -0.3383 -0.6207
19472TIP3   OH279906   0.868   1.704  34.977  0.0257  0.4874  0.7019
19472TIP3    H179907   0.800   1.717  35.043 -0.4312  1.0436  0.1372
19472TIP3    H279908   0.921   1.632  35.011 -1.1108 -0.2661  0.9387
19473TIP3   OH279909   1.065   2.315  99.339 -0.2990  0.2192  0.0107
19473TIP3    H179910   1.044   2.222  99.330 -2.5262  0.7873 -1.7244
19473TIP3    H279911   1.159   2.321  99.321 -0.3200 -1.5890 -0.8750
19474TIP3   OH279912   1.105   2.347  75.530  0.1786  0.3617 -0.3716
19474TIP3    H179913   1.107   2.252  75.529  0.3722  0.3659 -1.6671
19474TIP3    H279914   1.047   2.369  75.603 -0.6446 -0.7620 -0.6652
19475TIP3   OH279915   0.338   2.412  20.532 -0.3368  0.0084  0.7342
19475TIP3    H179916   0.355   2.480  20.467 -0.5464 -0.9100 -0.3086
19475TIP3    H279917   0.349   2.456  20.616  2.0012  0.7482  0.1212
19476TIP3   OH279918   0.071   2.610 101.421  0.4149  0.1011  0.4974
19476TIP3    H179919   0.059   2.529 101.371  0.6433 -0.4713  1.3441
19476TIP3    H279920   0.049   2.680 101.359  1.3582 -0.5491 -0.6045
19477TIP3   OH279921   2.099   2.101  97.879  0.4007 -0.2650 -0.1223
19477TIP3    H179922   2.029   2.129  97.821  1.0332  0.2686 -0.6494
19477TIP3    H279923   2.057   2.042  97.942 -0.9436  1.8030  0.9887
19478TIP3   OH279924   0.572   0.133   8.935  0.4797 -0.2834  0.2539
19478TIP3    H179925   0.638   0.188   8.892  1.6100 -1.1312  0.8586
19478TIP3    H279926   0.497   0.137   8.876  0.4818  1.9420  0.2979
19479TIP3   OH279927   1.322   2.177 103.940 -0.1560 -0.4455 -0.1515
19479TIP3    H179928   1.353   2.103 103.889 -0.9400  1.1784 -3.2300
19479TIP3    H279929   1.384   2.247 103.922 -0.4576  0.2099  1.1934
19480TIP3   OH279930   2.055   0.817  88.844 -0.4910  0.3567  0.2498
19480TIP3    H179931   2.103   0.775  88.915 -0.4397 -0.2950 -0.1628
19480TIP3    H279932   2.023   0.745  88.790 -1.0596  0.8228 -0.0476
19481TIP3   OH279933   0.138   0.594   0.708  0.4062 -0.2212  0.2222
19481TIP3    H179934   0.191   0.658   0.755  0.0923  1.4726 -1.5928
19481TIP3    H279935   0.188   0.575   0.628 -0.1838 -1.1637  0.0542
19482TIP3   OH279936   0.252   0.076  76.496  0.1835 -0.7515 -1.0446
19482TIP3    H179937   0.162   0.049  76.481 -0.3518 -0.9914  1.8660
19482TIP3    H279938   0.301  -0.006  76.502  0.6834 -0.6172 -2.8034
19483TIP3   OH279939   0.018   1.702  11.473 -0.3171  0.2181 -0.3652
19483TIP3    H179940  -0.021   1.617  11.452 -0.2007  0.6325 -2.4658
19483TIP3    H279941   0.112   1.684  11.477 -0.1168  0.5147 -2.5991
19484TIP3   OH279942   1.344   2.286  20.705 -0.0547 -0.5216  0.3571
19484TIP3    H179943   1.262   2.281  20.754 -1.3784 -1.6981 -1.8099
19484TIP3    H279944   1.377   2.196  20.702  1.8421  0.0544  1.9247
19485TIP3   OH279945   0.853   2.183  77.523 -0.0485 -0.0793  1.0107
19485TIP3    H179946   0.907   2.177  77.601  1.4798 -0.6952 -0.0531
19485TIP3    H279947   0.914   2.172  77.450 -1.4815  0.0995 -0.2705
19486TIP3   OH279948   0.810   1.781   8.484 -0.1238 -0.0777 -0.3039
19486TIP3    H179949   0.871   1.733   8.540  0.4836  0.3404 -0.5921
19486TIP3    H279950   0.857   1.862   8.462 -0.5347 -0.0303 -1.0374
19487TIP3   OH279951   2.039   2.116  31.117  0.3194 -0.0359 -0.3883
19487TIP3    H179952   2.090   2.171  31.058  0.3430 -0.9171 -1.2233
19487TIP3    H279953   1.949   2.147  31.107  0.3706  0.0342 -0.6455
19488TIP3   OH279954   0.979   0.687  23.721 -0.0263 -0.2932  0.2086
19488TIP3    H179955   1.047   0.620  23.724  1.0575  0.7008 -0.8938
19488TIP3    H279956   0.971   0.717  23.812 -0.5542 -1.8842  0.7287
19489TIP3   OH279957   0.835   2.683   0.655  0.1634  0.6448  0.2394
19489TIP3    H179958   0.905   2.748   0.665  0.3018  0.6673 -0.7909
19489TIP3    H279959   0.838   2.659   0.562 -0.4197 -0.2356  0.4416
19490TIP3   OH279960   1.291   1.888  91.520 -0.3485 -0.3118  0.3026
19490TIP3    H179961   1.224   1.849  91.576  0.0685 -0.1621  0.9172
19490TIP3    H279962   1.358   1.919  91.581 -0.9439  1.9384 -0.1161
19491TIP3   OH279963   0.719   2.082   5.883  0.0169  0.3699  0.1612
19491TIP3    H179964   0.770   2.122   5.812 -0.7084  2.5755  0.7974
19491TIP3    H279965   0.740   1.989   5.878  1.2461  0.6879 -1.9029
19492TIP3   OH279966   0.606   0.803  90.638  0.1711 -0.4433  0.2194
19492TIP3    H179967   0.700   0.784  90.643  0.1685 -0.4881  0.1068
19492TIP3    H279968   0.572   0.737  90.577 -0.0001 -0.6709  0.5577
19493TIP3   OH279969   1.354   2.316   9.416 -0.1503 -0.6363 -0.4816
19493TIP3    H179970   1.279   2.267   9.382 -0.2490 -0.0621 -1.1256
19493TIP3    H279971   1.320   2.364   9.491 -0.2161 -1.0290 -0.2580
19494TIP3   OH279972   1.808   2.593  79.445  0.1891 -0.4109  0.1322
19494TIP3    H179973   1.872   2.635  79.388 -0.5939  0.8155  0.1053
19494TIP3    H279974   1.796   2.506  79.409  1.2056 -0.3525 -0.3653
19495TIP3   OH279975   0.695   2.008  30.467  0.7117 -0.7067 -0.3932
19495TIP3    H179976   0.775   2.059  30.479  0.3743 -0.3959  0.7198
19495TIP3    H279977   0.629   2.055  30.518 -0.3835 -0.5240 -1.9210
19496TIP3   OH279978   1.816   1.087   7.030  0.3878  0.0567  0.6351
19496TIP3    H179979   1.909   1.111   7.028  0.4316 -0.0874 -0.8799
19496TIP3    H279980   1.771   1.165   7.061  0.9629  0.3721  0.6848
19497TIP3   OH279981   1.890   1.301  63.706  0.9830 -0.2518 -0.2618
19497TIP3    H179982   1.921   1.350  63.782  0.2957 -1.7126  1.0358
19497TIP3    H279983   1.799   1.330  63.695  0.8065 -0.6668  0.0500
19498TIP3   OH279984   0.724   1.711  75.097 -0.2419 -0.3045 -0.1778
19498TIP3    H179985   0.634   1.692  75.126  0.2410 -3.7258 -0.4766
19498TIP3    H279986   0.712   1.756  75.013 -1.7289 -1.1875 -0.4930
19499TIP3   OH279987   0.157   1.244  89.683  0.1362  0.1568  0.4904
19499TIP3    H179988   0.109   1.162  89.685 -0.1223  0.3112  0.7378
19499TIP3    H279989   0.108   1.302  89.742  1.3871 -0.1114  1.8422
19500TIP3   OH279990   1.241   2.533   7.650 -0.1427  0.2701 -0.0962
19500TIP3    H179991   1.219   2.546   7.558  2.0742  0.9043 -0.6038
19500TIP3    H279992   1.158   2.514   7.692 -1.3367  0.8029 -2.0755
19501TIP3   OH279993   1.755   0.686  11.615 -0.1841 -0.0357  0.1295
19501TIP3    H179994   1.672   0.639  11.625 -0.0445  0.0369  2.0037
19501TIP3    H279995   1.730   0.775  11.592 -0.7625  0.3734  2.0992
19502TIP3   OH279996   2.330   2.301  38.211  0.0551  0.6507  0.3702
19502TIP3    H179997   2.381   2.382  38.209  0.7960  0.1866  0.0632
19502TIP3    H279998   2.365   2.248  38.139 -0.5548  0.1342  0.4384
19503TIP3   OH279999   0.175   2.105  37.430 -0.1455 -0.0912 -0.0923
19503TIP3    H180000   0.245   2.112  37.495  1.0050 -2.0862 -0.9871
19503TIP3    H280001   0.138   2.017  37.444 -1.1067  0.1526 -0.9438
19504TIP3   OH280002   1.745   0.177  78.857  0.8450  0.3020  0.6547
19504TIP3    H180003   1.702   0.140  78.781  1.7308 -0.2409  0.4000
19504TIP3    H280004   1.677   0.182  78.924  0.8823 -2.7693  1.0366
19505TIP3   OH280005   0.625   2.140  78.539  0.0154  0.0312 -0.3235
19505TIP3    H180006   0.585   2.227  78.542  0.7401  0.4365 -1.6962
19505TIP3    H280007   0.632   2.114  78.631 -0.3290  1.3710  0.1019
19506TIP3   OH280008   1.522   2.683  10.200  0.2906  0.2421 -0.0331
19506TIP3    H180009   1.615   2.695  10.215  0.2161  1.3712 -0.3841
19506TIP3    H280010   1.480   2.755  10.247 -0.3685  0.0508 -0.3064
19507TIP3   OH280011   0.214   0.185 104.380 -0.7202 -0.2411  0.0585
19507TIP3    H180012   0.262   0.199 104.462 -0.3007 -0.6010 -0.1263
19507TIP3    H280013   0.147   0.254 104.380 -0.8322 -0.3384  0.7855
19508TIP3   OH280014   0.443   1.187  81.159  0.0466  0.5719  0.7645
19508TIP3    H180015   0.484   1.245  81.095  1.3769 -1.6360 -0.5356
19508TIP3    H280016   0.392   1.125  81.106  0.3640 -0.6961  1.8780
19509TIP3   OH280017   0.395   1.827  27.696  0.4825 -0.1469  0.1682
19509TIP3    H180018   0.303   1.801  27.708 -0.5490  3.2979  0.9381
19509TIP3    H280019   0.396   1.872  27.611  0.5462  2.8444  1.6335
19510TIP3   OH280020   0.635   2.101  90.112  0.4520  0.5458  0.0193
19510TIP3    H180021   0.655   2.020  90.160 -1.1938 -0.6801 -1.2360
19510TIP3    H280022   0.587   2.154  90.176  1.3641  0.4635  0.8012
19511TIP3   OH280023   0.538   0.046  95.166 -0.0393  0.8203 -0.0612
19511TIP3    H180024   0.618   0.035  95.115  0.7883 -1.3049  1.5438
19511TIP3    H280025   0.475  -0.013  95.125 -0.1423  0.9713 -0.1198
19512TIP3   OH280026   2.591   2.459  22.963 -0.2807  0.1462 -0.2162
19512TIP3    H180027   2.510   2.423  22.928 -1.5113  0.7551  1.8493
19512TIP3    H280028   2.609   2.407  23.042  1.9311 -0.6454 -1.1672
19513TIP3   OH280029   1.558   0.263  73.971 -0.0267 -0.9776  0.0176
19513TIP3    H180030   1.506   0.229  73.898  1.3239  0.7511 -1.8917
19513TIP3    H280031   1.646   0.227  73.957  0.7584  1.0096 -0.4928
19514TIP3   OH280032   2.362   0.132  33.268  0.2292  0.0863 -0.9584
19514TIP3    H180033   2.351   0.216  33.314  0.3268  0.1645 -1.0758
19514TIP3    H280034   2.378   0.069  33.338 -2.9906 -0.4417 -0.5784
19515TIP3   OH280035   2.261   1.507  48.867  0.5503  0.2699 -0.3943
19515TIP3    H180036   2.209   1.580  48.901 -3.0126 -1.7238 -1.1784
19515TIP3    H280037   2.321   1.549  48.804  1.4186  2.9098  1.9627
19516TIP3   OH280038   0.326   0.877  90.194  0.2907 -0.3492 -0.0529
19516TIP3    H180039   0.381   0.800  90.179  0.5703 -0.1957  0.1680
19516TIP3    H280040   0.244   0.858  90.149  0.6817 -0.3980 -0.7478
19517TIP3   OH280041   2.142   1.211  33.003 -0.2174  0.2277 -0.7820
19517TIP3    H180042   2.105   1.270  33.069 -0.3313 -0.8436  0.1327
19517TIP3    H280043   2.072   1.150  32.984 -0.1463  0.4598 -1.8371
19518TIP3   OH280044   1.109   0.314  68.900  0.0564 -0.0346  0.1731
19518TIP3    H180045   1.058   0.389  68.868  1.9498  1.4730  0.4870
19518TIP3    H280046   1.143   0.273  68.821  1.3101  1.1692  0.0582
19519TIP3   OH280047   0.117   0.174  29.666 -0.0826  0.4438 -0.1752
19519TIP3    H180048   0.106   0.144  29.756 -0.6437 -1.7700 -0.9131
19519TIP3    H280049   0.169   0.105  29.624 -1.0289  0.7025 -1.8643
19520TIP3   OH280050   2.451   1.650   1.465  0.1634 -0.0425 -0.0624
19520TIP3    H180051   2.443   1.737   1.505 -0.5992  1.9474 -4.0152
19520TIP3    H280052   2.506   1.664   1.388 -1.6627 -2.5317 -1.9996
19521TIP3   OH280053   2.293   0.019 108.272  0.4787  0.2015  0.1673
19521TIP3    H180054   2.224   0.016 108.337 -0.5422  0.8207 -0.8474
19521TIP3    H280055   2.352   0.088 108.302  0.0627  0.4214  0.4834
19522TIP3   OH280056   1.595   2.309  12.436 -0.0360 -0.1991  0.3660
19522TIP3    H180057   1.663   2.368  12.467 -0.3351  0.2875  0.1164
19522TIP3    H280058   1.539   2.363  12.381  0.4832 -1.0381 -1.0401
19523TIP3   OH280059   1.183   1.756  28.693  0.1039  0.1769  0.3140
19523TIP3    H180060   1.137   1.675  28.673 -2.0862  1.2097  0.7771
19523TIP3    H280061   1.136   1.823  28.642  0.7968  1.3826  1.2123
19524TIP3   OH280062   0.642   1.126  88.711  0.6302  0.3949 -0.6282
19524TIP3    H180063   0.653   1.220  88.722 -0.9407  0.5006  0.2951
19524TIP3    H280064   0.575   1.117  88.643 -0.6529  0.0246  0.6311
19525TIP3   OH280065   1.745   1.008  31.634 -0.7650  0.0236  1.1241
19525TIP3    H180066   1.785   1.075  31.579 -1.0360 -0.0463  0.8392
19525TIP3    H280067   1.759   1.039  31.723 -4.3897  2.5913  1.0041
19526TIP3   OH280068   1.766   1.773  93.690  0.1079  0.2480 -0.5385
19526TIP3    H180069   1.736   1.789  93.779  0.0898 -1.0912 -0.2809
19526TIP3    H280070   1.764   1.859  93.648  0.2300  0.9159  0.7795
19527TIP3   OH280071   0.169   1.461 107.777  0.2549  0.2839 -0.0679
19527TIP3    H180072   0.118   1.419 107.708 -0.4808  0.2236  0.5094
19527TIP3    H280073   0.139   1.552 107.778  0.8495  0.4938 -0.3606
19528TIP3   OH280074   1.259   1.937  13.826 -0.1564 -0.6540  0.0531
19528TIP3    H180075   1.332   1.985  13.864  0.0352 -0.3054 -0.7251
19528TIP3    H280076   1.192   1.936  13.895  0.2247 -0.1571  0.4386
19529TIP3   OH280077   2.535   0.246  76.079 -0.2233  0.3488 -0.3208
19529TIP3    H180078   2.622   0.208  76.088 -1.6152 -2.6381  3.6435
19529TIP3    H280079   2.505   0.219  75.992  2.1682  0.2014 -1.1620
19530TIP3   OH280080   2.364   1.400  34.513  0.7996 -0.3921 -0.9758
19530TIP3    H180081   2.395   1.365  34.596 -0.7595 -1.4729 -0.8013
19530TIP3    H280082   2.268   1.393  34.518  0.6794 -1.4721 -3.2358
19531TIP3   OH280083   0.809   1.723  25.957  0.0559  0.5230  0.3569
19531TIP3    H180084   0.810   1.695  26.048 -0.2181  0.3519  0.3071
19531TIP3    H280085   0.898   1.706  25.926  1.0044  3.1777  1.3647
19532TIP3   OH280086   0.762   1.369 100.861 -0.0059 -0.3111 -0.2006
19532TIP3    H180087   0.784   1.314 100.785  0.8148 -1.4207  0.8083
19532TIP3    H280088   0.846   1.407 100.888 -0.4607  0.9544 -0.4856
19533TIP3   OH280089   0.984   0.900 104.293 -0.0349 -0.0879  0.3892
19533TIP3    H180090   0.986   0.968 104.225  0.3398  0.7742  1.2424
19533TIP3    H280091   0.936   0.940 104.365  0.1635 -0.7446  0.8922
19534TIP3   OH280092   0.711   0.304  76.865  0.5004 -0.0524  0.0973
19534TIP3    H180093   0.717   0.395  76.894  0.5475 -0.1498  0.3912
19534TIP3    H280094   0.782   0.259  76.910  1.2283  0.0009 -0.9675
19535TIP3   OH280095   0.251   2.258  86.741 -0.5383 -0.3600 -0.0592
19535TIP3    H180096   0.220   2.215  86.661  0.7896 -0.5542 -0.4858
19535TIP3    H280097   0.329   2.209  86.766  0.7367  1.4680 -0.2762
19536TIP3   OH280098   0.668   0.337 104.876  0.6056  0.2496  0.0437
19536TIP3    H180099   0.673   0.242 104.868  2.7258  0.3828 -0.7799
19536TIP3    H280100   0.755   0.363 104.905 -0.5578  1.7961  2.5153
19537TIP3   OH280101   2.589   0.486  99.704  0.0244  0.5089 -0.1156
19537TIP3    H180102   2.530   0.427  99.750 -0.0533 -0.3151 -1.2330
19537TIP3    H280103   2.579   0.570  99.749 -1.1247  0.0981  0.4374
19538TIP3   OH280104   1.785   0.944  52.244  0.4489  0.5197 -0.3108
19538TIP3    H180105   1.718   1.010  52.228  0.9197  0.8884 -0.7986
19538TIP3    H280106   1.759   0.902  52.326 -1.1118 -0.2430 -1.1437
19539TIP3   OH280107   1.756   0.980  83.171  0.3103  0.6416  0.5863
19539TIP3    H180108   1.782   0.909  83.230 -0.1614 -0.2135 -0.2189
19539TIP3    H280109   1.672   1.009  83.205 -0.7728 -0.9578 -0.5677
19540TIP3   OH280110   1.647   1.839  88.353 -0.5333 -0.2693  0.2089
19540TIP3    H180111   1.639   1.853  88.259 -0.1621  2.3952  0.4744
19540TIP3    H280112   1.559   1.812  88.381 -1.0589  0.4190 -0.7168
19541TIP3   OH280113   1.930   0.577  99.527  0.3185  0.0222 -0.0249
19541TIP3    H180114   2.012   0.605  99.487 -0.5235  0.5108 -1.4759
19541TIP3    H280115   1.928   0.482  99.514  1.0990 -0.1426  0.9276
19542TIP3   OH280116   2.143   0.558  88.040  0.2441  0.0399 -0.8764
19542TIP3    H180117   2.111   0.597  87.959 -0.4428  2.5043  0.4910
19542TIP3    H280118   2.233   0.591  88.049 -0.7252  2.4370  0.8673
19543TIP3   OH280119   1.800   2.650  20.972  0.1003 -0.0718 -0.2728
19543TIP3    H180120   1.781   2.720  20.910 -0.9701 -0.9173 -0.9414
19543TIP3    H280121   1.893   2.630  20.958 -0.1307 -0.2889 -1.6707
19544TIP3   OH280122   1.918   0.561 109.783 -0.3587 -0.3296 -0.3504
19544TIP3    H180123   2.004   0.595 109.757 -1.4554  2.6164 -0.5322
19544TIP3    H280124   1.910   0.583 109.875 -1.4838  0.7882 -0.6970
19545TIP3   OH280125   2.455   0.036  10.903 -0.1389  0.8754  0.4927
19545TIP3    H180126   2.391  -0.000  10.964  0.7811  0.8295  1.4695
19545TIP3    H280127   2.405   0.097  10.849 -1.6987 -1.5551 -1.0348
19546TIP3   OH280128   1.966   1.495  18.886  0.2920  0.0393 -0.4057
19546TIP3    H180129   1.919   1.470  18.807  1.2897  1.6071 -1.5611
19546TIP3    H280130   1.915   1.566  18.924  0.1612 -0.2666 -0.0044
19547TIP3   OH280131   2.476   1.571  86.051 -0.5205 -0.0666 -0.0514
19547TIP3    H180132   2.431   1.629  86.112 -2.2599 -0.4300 -0.8949
19547TIP3    H280133   2.459   1.483  86.085 -1.6367 -0.2800 -1.0650
19548TIP3   OH280134   0.769   0.205  89.043  0.3477 -0.7410 -0.1350
19548TIP3    H180135   0.843   0.145  89.047  0.7701 -0.2278 -0.2332
19548TIP3    H280136   0.739   0.201  88.952  0.9001 -0.1841 -0.3496
19549TIP3   OH280137   2.243   0.428  82.587 -0.1682  0.4383 -0.7588
19549TIP3    H180138   2.315   0.421  82.649 -1.8767  0.5616  1.3378
19549TIP3    H280139   2.216   0.520  82.591 -0.1959  0.4961 -1.8628
19550TIP3   OH280140   2.240   2.625  95.192  0.4531 -0.0120 -1.0653
19550TIP3    H180141   2.220   2.617  95.098  0.0302  0.3521 -1.0037
19550TIP3    H280142   2.317   2.569  95.205  0.9132  0.4499 -1.7532
19551TIP3   OH280143   1.823   1.812  87.073  0.3548  0.2190  0.4776
19551TIP3    H180144   1.775   1.842  87.151  0.3538 -1.7272  1.2627
19551TIP3    H280145   1.898   1.764  87.108  0.9635  0.2488 -0.7430
19552TIP3   OH280146   0.944   0.852   7.057  0.2397  0.7114 -0.0120
19552TIP3    H180147   1.038   0.838   7.067 -0.0016  0.2471  1.8679
19552TIP3    H280148   0.907   0.764   7.047 -0.2088  0.7166  1.4727
19553TIP3   OH280149   0.594   0.958  86.627 -0.3748 -0.6984  0.0961
19553TIP3    H180150   0.518   0.905  86.650  0.1349 -0.5149  2.4630
19553TIP3    H280151   0.665   0.923  86.680  0.7650  0.3080 -0.7037
19554TIP3   OH280152   0.717   2.474 107.369 -0.1206  0.1072 -0.1610
19554TIP3    H180153   0.768   2.502 107.294 -2.1083 -0.3928 -1.7925
19554TIP3    H280154   0.781   2.460 107.439  1.8654  0.0095 -1.9303
19555TIP3   OH280155   0.573   1.039  21.275 -0.0209 -0.3327  0.5889
19555TIP3    H180156   0.655   1.064  21.233  0.0958 -1.7460 -0.0697
19555TIP3    H280157   0.541   0.965  21.224 -0.4676 -1.3712  2.2790
19556TIP3   OH280158   1.816   2.231  47.278  0.2225 -0.8008  0.7134
19556TIP3    H180159   1.785   2.312  47.238 -0.3515 -0.9272  0.8965
19556TIP3    H280160   1.859   2.258  47.358 -4.2156 -0.9241  3.4628
19557TIP3   OH280161   2.049   0.201  30.087 -0.1006 -0.3498 -0.4325
19557TIP3    H180162   2.139   0.176  30.108 -0.4253 -1.6760 -0.5393
19557TIP3    H280163   2.001   0.184  30.168 -0.6605 -1.8900 -1.0388
19558TIP3   OH280164   1.687   1.946  16.257  0.1201 -0.0615  0.1472
19558TIP3    H180165   1.774   1.983  16.273  0.0052  0.1483  0.2906
19558TIP3    H280166   1.673   1.884  16.329  0.0175  0.1438  0.3039
19559TIP3   OH280167   1.524   2.202  99.626  0.2277  0.2615  0.0738
19559TIP3    H180168   1.595   2.151  99.665  1.6255  1.7416 -0.4150
19559TIP3    H280169   1.478   2.140  99.570  1.3739 -0.6720  0.1196
19560TIP3   OH280170   2.027   1.905  75.261  0.2784 -0.0754  0.0836
19560TIP3    H180171   2.004   1.913  75.169 -1.0186 -1.9783  0.1618
19560TIP3    H280172   1.982   1.978  75.304  0.6415  0.6395 -0.7273
19561TIP3   OH280173   2.150   2.200  62.931  0.1841  0.0604 -0.0300
19561TIP3    H180174   2.189   2.287  62.925  0.8468  0.0739  3.1104
19561TIP3    H280175   2.224   2.140  62.933  0.0442 -0.1351  2.8077
19562TIP3   OH280176   2.289   1.853  18.419 -0.3734 -0.0146  0.2136
19562TIP3    H180177   2.336   1.936  18.412  0.8640 -0.7529 -0.5469
19562TIP3    H280178   2.199   1.873  18.392 -0.2028  1.1533  0.4622
19563TIP3   OH280179   2.672   1.819  20.349 -0.2986 -0.0503 -0.2837
19563TIP3    H180180   2.685   1.725  20.363  0.9650  0.1001 -0.3244
19563TIP3    H280181   2.598   1.824  20.289  0.0062 -1.0483 -0.7660
19564TIP3   OH280182   1.398   1.877  11.697  0.0812  0.4107  0.0875
19564TIP3    H180183   1.448   1.824  11.760 -0.4201  1.3397  1.3104
19564TIP3    H280184   1.408   1.967  11.728 -1.7327  0.6900 -0.0592
19565TIP3   OH280185   2.635   0.985   4.321  0.4500 -0.2059 -0.2790
19565TIP3    H180186   2.605   0.933   4.246  1.2961 -0.0271 -0.7562
19565TIP3    H280187   2.724   1.011   4.297 -0.0300  1.6520 -0.1474
19566TIP3   OH280188   0.240   1.141  96.382 -0.2995 -0.1422  0.4278
19566TIP3    H180189   0.194   1.221  96.405 -1.9325 -0.5425 -1.1939
19566TIP3    H280190   0.326   1.171  96.351 -0.1583  0.7819  1.6286
19567TIP3   OH280191   0.713   0.810  73.535  0.0164  0.5508 -0.1146
19567TIP3    H180192   0.764   0.768  73.605 -0.7779  0.2871  0.3116
19567TIP3    H280193   0.748   0.899  73.531  0.3852  0.4323  0.3107
19568TIP3   OH280194   2.405   2.494   2.403  0.4705  0.0592  0.4776
19568TIP3    H180195   2.412   2.507   2.498 -0.3158  0.5308  0.4778
19568TIP3    H280196   2.330   2.435   2.392  0.3458  0.2793  0.1329
19569TIP3   OH280197   1.118   1.552 107.990  0.3634 -0.0232 -0.3492
19569TIP3    H180198   1.161   1.552 108.075 -0.5929 -0.2647  0.1441
19569TIP3    H280199   1.184   1.588 107.930  1.7849 -1.7393  0.0949
19570TIP3   OH280200   0.707   1.662  78.265 -0.4227  0.5112  0.8314
19570TIP3    H180201   0.690   1.687  78.356 -1.6049  1.6212  0.3396
19570TIP3    H280202   0.677   1.572  78.259  1.4175 -0.2331  1.9889
19571TIP3   OH280203   2.054   1.887  32.177  0.2393 -0.9399  0.5325
19571TIP3    H180204   2.092   1.803  32.151  1.8067  0.1741 -0.9656
19571TIP3    H280205   1.986   1.904  32.112  0.9855 -0.3567 -0.1249
19572TIP3   OH280206   1.060   1.564  15.499  0.1941 -0.1031  0.4097
19572TIP3    H180207   1.057   1.480  15.545  1.9564  0.8886  2.5253
19572TIP3    H280208   1.115   1.546  15.422  0.8244 -0.8416  1.0090
19573TIP3   OH280209   0.431   0.978  24.078 -0.5017  0.5349 -0.0257
19573TIP3    H180210   0.472   1.056  24.041  0.5582  0.1257  0.2339
19573TIP3    H280211   0.417   0.920  24.004  0.6531  0.1379  0.0476
19574TIP3   OH280212   2.149   2.676  67.658  0.4682 -0.3288  0.0268
19574TIP3    H180213   2.155   2.712  67.747 -1.7266 -0.6762  0.3520
19574TIP3    H280214   2.094   2.738  67.611  0.5714 -0.8141 -0.7492
19575TIP3   OH280215   2.343   2.200   9.815  0.2225 -0.3616 -0.5630
19575TIP3    H180216   2.283   2.212   9.742  1.7419  1.9461 -1.5693
19575TIP3    H280217   2.309   2.257   9.884 -0.1015 -1.0032 -0.1797
19576TIP3   OH280218   2.290   0.107  28.591  0.4741  0.6382  0.4396
19576TIP3    H180219   2.339   0.096  28.673 -0.0726  1.1236  0.8395
19576TIP3    H280220   2.342   0.170  28.541  0.9599  0.1216  0.2891
19577TIP3   OH280221   1.220   0.957  73.794 -0.3117  0.5871 -0.1402
19577TIP3    H180222   1.230   0.862  73.797  0.6888  0.6904  0.2087
19577TIP3    H280223   1.217   0.978  73.701  0.3166  0.2773 -0.2411
19578TIP3   OH280224   2.138   1.561  75.937 -0.1622 -0.2893 -0.4839
19578TIP3    H180225   2.211   1.527  75.885 -0.4755  0.5764 -1.5250
19578TIP3    H280226   2.060   1.521  75.897 -0.3687 -0.0046 -0.3636
19579TIP3   OH280227   0.357   0.618 111.790  0.0951  0.3014 -0.0447
19579TIP3    H180228   0.326   0.653 111.707  2.0623  0.2069 -0.8690
19579TIP3    H280229   0.362   0.523 111.776 -1.0959  0.0945  0.7536
19580TIP3   OH280230   2.046   2.530  63.606 -0.4432  0.6592  0.7051
19580TIP3    H180231   2.089   2.542  63.690  0.4102  0.7041  0.2681
19580TIP3    H280232   2.082   2.598  63.550 -2.2416  1.7044  0.7511
19581TIP3   OH280233   2.223   1.171  81.858 -0.6288  0.4066  0.1490
19581TIP3    H180234   2.255   1.144  81.944  0.3867  2.7827  0.6013
19581TIP3    H280235   2.196   1.262  81.870  1.9297  1.6996 -2.5418
19582TIP3   OH280236   0.110   1.614   4.169 -0.2407  0.4423 -0.1542
19582TIP3    H180237   0.086   1.553   4.099 -0.8046  1.1749 -0.6076
19582TIP3    H280238   0.146   1.690   4.124  0.0986  0.6161  0.3943
19583TIP3   OH280239   0.778   2.673  73.437  0.2902  0.0572 -1.1444
19583TIP3    H180240   0.697   2.622  73.436 -0.1042  0.6567 -0.4753
19583TIP3    H280241   0.841   2.618  73.391  0.1483 -1.5161  0.4335
19584TIP3   OH280242   2.511   0.446  94.042 -0.1046 -0.2710 -0.0703
19584TIP3    H180243   2.474   0.512  93.983 -1.6317 -0.2597  0.8536
19584TIP3    H280244   2.575   0.399  93.988 -0.3837  0.7060 -1.2957
19585TIP3   OH280245   2.477   0.376  14.685 -0.6720  0.0184  0.3452
19585TIP3    H180246   2.496   0.324  14.606 -1.7714 -0.9604  0.7092
19585TIP3    H280247   2.523   0.330  14.755  0.6187  1.0967  0.2681
19586TIP3   OH280248   1.474   2.012  13.116  0.3525  0.0852 -0.2911
19586TIP3    H180249   1.410   1.944  13.135  1.2041 -0.4796  0.6424
19586TIP3    H280250   1.461   2.033  13.023  0.5351 -1.8560 -0.7893
19587TIP3   OH280251   1.526   1.970   1.864  0.4962  0.3546 -0.1483
19587TIP3    H180252   1.591   1.926   1.808 -0.0293  0.0063 -0.4936
19587TIP3    H280253   1.467   2.013   1.802 -0.3157 -0.3543  0.1098
19588TIP3   OH280254   0.737   1.223  73.241 -0.2941  0.4422  0.7179
19588TIP3    H180255   0.748   1.282  73.166 -1.3471  0.2246  0.3734
19588TIP3    H280256   0.644   1.229  73.262 -0.2929 -0.6365  1.0682
19589TIP3   OH280257   0.756   1.994 111.480  0.4143  0.0616  0.2366
19589TIP3    H180258   0.801   1.911 111.465  0.3948  0.3591 -1.6375
19589TIP3    H280259   0.810   2.040 111.544  1.3558 -0.6790 -0.0214
19590TIP3   OH280260   0.913   2.256   8.931  1.1990 -0.1987 -0.1766
19590TIP3    H180261   0.831   2.230   8.973  0.1859  1.0705 -1.2983
19590TIP3    H280262   0.911   2.215   8.845  0.9765  1.1525 -0.8226
19591TIP3   OH280263   0.819   0.220  17.275  0.2579 -0.0240  0.0139
19591TIP3    H180264   0.907   0.189  17.258  0.0096 -1.1922  0.7094
19591TIP3    H280265   0.774   0.214  17.191  0.2343 -1.6047  0.0990
19592TIP3   OH280266   0.839   1.017  86.972 -0.5044 -0.6235  0.0618
19592TIP3    H180267   0.799   0.978  86.894 -1.0233  2.2361 -1.1988
19592TIP3    H280268   0.824   0.952  87.041 -4.0156 -1.3564 -1.1893
19593TIP3   OH280269   2.671   0.503 106.478  0.1389 -0.3643 -0.3378
19593TIP3    H180270   2.686   0.512 106.572 -0.8505 -1.7937 -0.0033
19593TIP3    H280271   2.724   0.427 106.453 -0.4370 -0.6505 -0.7023
19594TIP3   OH280272   0.590   1.186  26.161  0.3001 -0.2594 -0.1053
19594TIP3    H180273   0.643   1.144  26.229 -0.7834 -1.3383  0.1166
19594TIP3    H280274   0.617   1.142  26.080  1.6080  1.0424 -0.4083
19595TIP3   OH280275   0.199   1.190  98.485  0.0418  0.0803  0.0069
19595TIP3    H180276   0.135   1.127  98.451  2.5125 -1.0387 -2.9656
19595TIP3    H280277   0.261   1.136  98.534 -0.2386  0.9260  1.3610
19596TIP3   OH280278   1.039   0.456 109.954  0.0222 -0.3061  0.5202
19596TIP3    H180279   0.955   0.472 109.912  0.1273  0.4456  0.5816
19596TIP3    H280280   1.097   0.523 109.919  0.6631 -0.9606  0.2990
19597TIP3   OH280281   0.734   2.216  34.620  0.1051  0.1438  0.5185
19597TIP3    H180282   0.728   2.312  34.622 -1.9208  0.0623  0.6799
19597TIP3    H280283   0.824   2.197  34.644  0.4617  2.0112  0.8112
19598TIP3   OH280284   1.076   1.098  19.543 -0.3707  0.0405 -0.0235
19598TIP3    H180285   1.044   1.036  19.477 -0.5214 -0.8059  0.8331
19598TIP3    H280286   1.152   1.055  19.581  0.6776  1.2178 -0.7221
19599TIP3   OH280287   2.385   0.922  81.993  0.3114  0.2095 -0.1929
19599TIP3    H180288   2.338   0.856  81.943  0.3182  0.5638 -0.6750
19599TIP3    H280289   2.449   0.872  82.045  2.0956 -0.0149 -2.4594
19600TIP3   OH280290   0.997   2.633  15.958 -0.2359  0.4662  0.2734
19600TIP3    H180291   1.009   2.538  15.967  2.5427  0.6984 -0.1254
19600TIP3    H280292   0.990   2.664  16.048  0.6005  0.0276  0.5049
19601TIP3   OH280293   2.546   2.517  12.732  0.1210 -0.5280 -0.4996
19601TIP3    H180294   2.476   2.580  12.749  0.5341 -0.1529 -0.1718
19601TIP3    H280295   2.609   2.532  12.802  1.0249 -0.1656 -1.3744
19602TIP3   OH280296   2.305   0.661  18.647  0.1074 -0.2725 -0.1275
19602TIP3    H180297   2.345   0.741  18.683 -0.1788  1.1345 -2.6564
19602TIP3    H280298   2.352   0.589  18.689  2.1212  1.2639  0.4151
19603TIP3   OH280299   2.529   2.247  99.435 -0.5282  0.0227  0.0766
19603TIP3    H180300   2.541   2.181  99.367  1.4246  0.4434 -0.0479
19603TIP3    H280301   2.442   2.230  99.470 -0.5374 -1.8670 -0.7373
19604TIP3   OH280302   2.058   1.268   7.070 -0.1837  0.2567  0.2259
19604TIP3    H180303   2.138   1.242   7.023  0.6193  2.2355  0.4276
19604TIP3    H280304   2.015   1.330   7.012  0.6840  2.5336  1.8754
19605TIP3   OH280305   2.292   1.858  93.426 -0.0417  0.1504 -0.3738
19605TIP3    H180306   2.368   1.807  93.455  0.7336  1.5080  0.0743
19605TIP3    H280307   2.232   1.855  93.500  0.2037  0.2803 -0.1720
19606TIP3   OH280308   2.283   2.549  97.865 -0.1719  0.5702 -0.1625
19606TIP3    H180309   2.305   2.468  97.913 -0.1071  0.8057  0.2134
19606TIP3    H280310   2.359   2.605  97.879  1.1835 -0.3924 -2.9346
19607TIP3   OH280311   1.977   2.405  26.133  0.0380 -0.0111 -0.2791
19607TIP3    H180312   1.964   2.338  26.066 -0.9892 -0.4778  0.3577
19607TIP3    H280313   2.065   2.389  26.167  0.8907  0.7257 -2.0263
19608TIP3   OH280314   0.125   1.297  33.727  0.2415 -0.5071 -0.0086
19608TIP3    H180315   0.115   1.317  33.634 -1.4657  2.1562  0.6457
19608TIP3    H280316   0.199   1.350  33.756 -1.1893  1.1678  0.7352
19609TIP3   OH280317   2.660   2.027  94.718  0.1700 -0.1875  0.2739
19609TIP3    H180318   2.580   2.014  94.666  1.3552 -0.1109 -1.6602
19609TIP3    H280319   2.662   2.122  94.734 -0.0504 -0.1708  0.2232
19610TIP3   OH280320   1.511   1.397  95.592  0.0512  0.0732 -0.2482
19610TIP3    H180321   1.460   1.421  95.669 -0.3472  0.6337 -0.6732
19610TIP3    H280322   1.568   1.472  95.577 -0.7875  0.5451 -1.2481
19611TIP3   OH280323   0.195   2.511  75.164  0.0911  0.1562  0.5533
19611TIP3    H180324   0.165   2.549  75.082  0.3829  2.5034  1.4571
19611TIP3    H280325   0.192   2.417  75.149  0.3384  0.5020 -2.1967
19612TIP3   OH280326   1.891   2.018  89.723  0.2933 -0.0029  0.1351
19612TIP3    H180327   1.875   1.958  89.651 -2.3797  0.3334  0.3296
19612TIP3    H280328   1.965   1.980  89.770  1.1742 -0.9907 -1.9378
19613TIP3   OH280329   2.198   0.637 108.391 -0.4276  0.1468 -0.0191
19613TIP3    H180330   2.138   0.700 108.351 -0.8361 -0.4387 -0.3365
19613TIP3    H280331   2.174   0.553 108.353  0.0834 -0.2168  0.4410
19614TIP3   OH280332   1.387   2.334 108.093  0.1044 -0.3284 -0.4307
19614TIP3    H180333   1.391   2.358 108.186  1.1033  0.1856 -0.5957
19614TIP3    H280334   1.297   2.352 108.067 -0.0742 -0.0952  0.3416
19615TIP3   OH280335   0.645   0.873   2.603  0.2045 -0.5503 -0.0557
19615TIP3    H180336   0.600   0.824   2.671 -1.1217  1.4680  0.6344
19615TIP3    H280337   0.576   0.926   2.562  1.4746  0.4818 -0.9515
19616TIP3   OH280338   1.750   0.890 101.104 -0.1040 -0.1793  0.1772
19616TIP3    H180339   1.733   0.968 101.052 -0.6521  0.5969  1.4805
19616TIP3    H280340   1.824   0.913 101.160  0.0890 -0.7920  0.1861
19617TIP3   OH280341   2.484   2.037  28.293  0.2943  0.4741 -0.1510
19617TIP3    H180342   2.477   2.021  28.387 -1.7773  2.9725  0.2199
19617TIP3    H280343   2.536   2.117  28.286  1.0161 -0.0599 -1.2338
19618TIP3   OH280344   1.587   0.358  83.242  0.2737 -0.1292 -0.0950
19618TIP3    H180345   1.562   0.412  83.167 -2.1285  1.5936  1.7465
19618TIP3    H280346   1.680   0.374  83.253  0.1738  1.5979 -1.2287
19619TIP3   OH280347   0.325   0.193  20.817 -0.1861  0.4359  0.5188
19619TIP3    H180348   0.416   0.223  20.822  0.3435 -0.9120 -0.3894
19619TIP3    H280349   0.278   0.264  20.775  0.8914  0.3045 -0.9647
19620TIP3   OH280350   2.402   0.068  44.488  0.9188  0.2589  0.2804
19620TIP3    H180351   2.475   0.012  44.463 -0.5335 -0.1704 -3.6836
19620TIP3    H280352   2.434   0.157  44.473  1.4811  0.2495  1.3310
19621TIP3   OH280353   0.303   0.570  96.681  0.0472 -0.4954 -0.1719
19621TIP3    H180354   0.339   0.572  96.592  0.7730  1.5288  0.1150
19621TIP3    H280355   0.380   0.560  96.737 -0.0281  1.3302  0.3227
19622TIP3   OH280356   1.627   2.217  76.310  0.6917  0.1409 -0.4594
19622TIP3    H180357   1.701   2.225  76.371  0.7853 -0.0863 -0.5450
19622TIP3    H280358   1.668   2.211  76.224  0.6022 -0.8442 -0.4308
19623TIP3   OH280359   0.482   2.007  88.819 -0.5911  0.4313  0.4782
19623TIP3    H180360   0.422   2.061  88.767  0.6234  0.0083 -1.4575
19623TIP3    H280361   0.558   2.064  88.833 -0.5872  0.2679  1.1388
19624TIP3   OH280362   0.338   1.413  27.318  0.5466 -0.5137 -0.2269
19624TIP3    H180363   0.401   1.352  27.358  0.2749 -0.5855  0.0996
19624TIP3    H280364   0.343   1.395  27.224  0.7320 -0.7920 -0.1652
19625TIP3   OH280365   2.378   2.164  48.016  0.2457 -0.6748  0.1643
19625TIP3    H180366   2.445   2.142  48.081 -0.8065  0.4551  1.7076
19625TIP3    H280367   2.311   2.096  48.027 -1.0053  0.7375  1.9554
19626TIP3   OH280368   0.389   2.431 105.193  0.0610 -0.5030 -0.2280
19626TIP3    H180369   0.327   2.462 105.127  1.2719  1.9598 -0.3442
19626TIP3    H280370   0.347   2.450 105.276 -0.3564 -1.1533 -0.2819
19627TIP3   OH280371   0.611   0.985  68.234 -0.5883 -0.0122 -0.1539
19627TIP3    H180372   0.630   1.048  68.303 -1.0379 -2.7946  2.7451
19627TIP3    H280373   0.537   0.934  68.267  2.1128 -4.5752 -0.2817
19628TIP3   OH280374   1.566   2.039  85.778  0.4681  0.7033 -0.4250
19628TIP3    H180375   1.533   2.129  85.782  1.4261  1.0600 -0.2193
19628TIP3    H280376   1.581   2.024  85.684  0.0396  0.6561 -0.4861
19629TIP3   OH280377   0.851   1.991  35.239  0.2759 -0.2966 -0.6542
19629TIP3    H180378   0.801   2.043  35.176 -1.3088 -1.0480 -0.0849
19629TIP3    H280379   0.935   1.976  35.196 -0.0278  0.8821 -1.7367
19630TIP3   OH280380   0.834   2.610  13.509  0.1295  0.1110 -0.1951
19630TIP3    H180381   0.876   2.606  13.422  0.3139  0.5352 -0.1294
19630TIP3    H280382   0.907   2.601  13.571  0.0269  0.0496 -0.0844
19631TIP3   OH280383   1.494   0.371  23.317 -0.6806  0.4019 -0.1889
19631TIP3    H180384   1.499   0.342  23.408 -1.5062  2.5425  0.6037
19631TIP3    H280385   1.545   0.452  23.315 -0.6354  0.3559 -1.6509
19632TIP3   OH280386   0.149   2.300  10.851 -0.4464 -0.2652  0.0265
19632TIP3    H180387   0.113   2.289  10.939 -1.1142  0.6931 -0.1023
19632TIP3    H280388   0.073   2.289  10.793 -0.0887 -0.5005 -0.3995
19633TIP3   OH280389   2.306   0.843 110.141  0.1544  0.6732  0.0849
19633TIP3    H180390   2.399   0.864 110.129  0.2300  0.7113  0.6704
19633TIP3    H280391   2.307   0.766 110.198 -0.1795  0.9229  0.4297
19634TIP3   OH280392   1.387   1.859  52.725  0.3254  0.2572 -0.2788
19634TIP3    H180393   1.355   1.923  52.662  0.1007 -0.1237 -0.5560
19634TIP3    H280394   1.403   1.909  52.805  1.8475  1.0010 -1.0100
19635TIP3   OH280395   0.660   1.601  21.904 -0.7415 -0.3363 -0.2821
19635TIP3    H180396   0.655   1.660  21.980  1.1115  0.9525 -1.0758
19635TIP3    H280397   0.710   1.526  21.935 -0.3096  0.0184 -0.1052
19636TIP3   OH280398   0.680   0.357  22.907  0.1360  0.0029 -0.4422
19636TIP3    H180399   0.696   0.335  22.815  0.8930  0.0351 -0.3209
19636TIP3    H280400   0.763   0.340  22.951 -0.3312 -0.3992  0.3135
19637TIP3   OH280401   0.147   0.439  85.428  0.1570 -0.4973 -0.1722
19637TIP3    H180402   0.108   0.364  85.474 -0.1687 -0.3544 -0.2125
19637TIP3    H280403   0.152   0.410  85.337 -2.2384  0.3826 -0.6619
19638TIP3   OH280404   0.861   2.143   4.160  0.0082 -0.4679 -0.1373
19638TIP3    H180405   0.891   2.178   4.243  0.9211  0.1654 -0.7085
19638TIP3    H280406   0.791   2.082   4.183 -0.6914  0.7031  0.9879
19639TIP3   OH280407   0.392   0.567  27.175  0.0721  0.7077 -0.4493
19639TIP3    H180408   0.344   0.490  27.146  0.3594  0.1091  0.5868
19639TIP3    H280409   0.334   0.641  27.157 -0.4986  0.1769 -0.8030
19640TIP3   OH280410   0.723   0.966  86.368 -0.0562  0.0797 -0.1452
19640TIP3    H180411   0.748   0.880  86.335  2.6843  0.6201  0.3136
19640TIP3    H280412   0.694   0.949  86.458  0.2571 -0.3897 -0.1272
19641TIP3   OH280413   2.518   0.631  14.767 -0.5566  0.4385  0.1232
19641TIP3    H180414   2.495   0.538  14.761  1.1717  0.0650 -1.7010
19641TIP3    H280415   2.485   0.669  14.686 -1.4773  1.5194  0.9687
19642TIP3   OH280416   2.133   1.137  19.468 -0.3063 -0.3314  0.5459
19642TIP3    H180417   2.201   1.109  19.529 -1.4581 -1.0546  1.5536
19642TIP3    H280418   2.133   1.071  19.399 -0.1404 -0.4557  0.6652
19643TIP3   OH280419   0.766   0.551  76.412  0.6244  0.6198 -0.0105
19643TIP3    H180420   0.670   0.556  76.414  0.6027  0.6871 -1.0181
19643TIP3    H280421   0.786   0.472  76.463 -0.0316  0.0085 -0.6609
19644TIP3   OH280422   1.957   0.412  81.196 -0.1719  0.4123 -0.4459
19644TIP3    H180423   1.989   0.473  81.262  4.2819 -1.1261 -0.8420
19644TIP3    H280424   1.879   0.372  81.235 -0.1986  2.5480  1.9451
19645TIP3   OH280425   0.325   1.674  33.220  0.1045  0.4286 -0.4872
19645TIP3    H180426   0.417   1.695  33.203  0.1423  0.5222 -0.1691
19645TIP3    H280427   0.284   1.759  33.239  0.3025  0.2042  1.0215
19646TIP3   OH280428   0.039   0.892 111.288 -0.2207 -0.2321 -0.4949
19646TIP3    H180429   0.018   0.978 111.252  0.3821  0.7652  1.4202
19646TIP3    H280430   0.120   0.867 111.244 -1.2026 -0.5889 -2.2106
19647TIP3   OH280431   1.337   1.611  19.635  0.0355  0.1185 -0.2116
19647TIP3    H180432   1.388   1.568  19.704  0.4340  0.7183 -0.1305
19647TIP3    H280433   1.316   1.540  19.574  0.6491 -0.2064 -0.0557
19648TIP3   OH280434   0.124   2.552  19.273  0.0835 -0.4225  0.0903
19648TIP3    H180435   0.170   2.581  19.194 -0.2608  2.7221  0.9035
19648TIP3    H280436   0.046   2.508  19.239 -0.5767  1.7203 -1.4518
19649TIP3   OH280437   2.555   0.215   0.091 -0.6511  0.4862  0.0620
19649TIP3    H180438   2.520   0.162   0.020 -0.1536  1.4206 -0.9018
19649TIP3    H280439   2.642   0.179   0.108 -1.0959 -0.2820  0.8046
19650TIP3   OH280440   1.620   0.446  29.236 -0.1037 -0.3415  0.1609
19650TIP3    H180441   1.707   0.482  29.220 -0.7903  0.7363 -1.3199
19650TIP3    H280442   1.627   0.354  29.209  0.6554 -0.3637  0.4005
19651TIP3   OH280443   1.428   1.931  23.600 -0.4661  0.7297 -0.2762
19651TIP3    H180444   1.342   1.891  23.613 -0.5919  0.8384 -0.7519
19651TIP3    H280445   1.446   1.919  23.507  0.1553  0.4719 -0.1325
19652TIP3   OH280446   2.390   2.568   4.489 -0.3595  0.8240  0.1271
19652TIP3    H180447   2.338   2.543   4.412  0.1535  1.3931 -0.4175
19652TIP3    H280448   2.454   2.631   4.455  1.7372 -1.0207  0.4449
19653TIP3   OH280449   2.007   0.667 111.857  0.2854 -0.2283  0.0367
19653TIP3    H180450   2.093   0.684 111.896  0.5805 -2.2394  0.3436
19653TIP3    H280451   2.010   0.575 111.831 -1.1169  0.1659 -1.6906
19654TIP3   OH280452   1.465   0.458  85.764  0.1094 -0.3655  0.2133
19654TIP3    H180453   1.394   0.447  85.701  3.4516 -1.3586 -3.8371
19654TIP3    H280454   1.475   0.552  85.773 -1.9241 -0.2017  1.2621
19655TIP3   OH280455   1.898   0.033  10.861 -0.5002 -0.1774 -0.1411
19655TIP3    H180456   1.851   0.115  10.876  0.6542  0.8871 -1.9413
19655TIP3    H280457   1.906  -0.006  10.948 -1.2166  1.5393  0.7552
19656TIP3   OH280458   1.828   2.032  47.756  0.6032  0.7328  0.3363
19656TIP3    H180459   1.738   2.051  47.781  0.7610  1.0650  0.6612
19656TIP3    H280460   1.836   2.064  47.667  0.3230  0.4502  0.2063
19657TIP3   OH280461   1.287   0.788  92.009  0.0339  0.1694  0.5131
19657TIP3    H180462   1.352   0.742  91.955 -1.4083 -1.5739  0.1710
19657TIP3    H280463   1.243   0.847  91.948 -1.3645 -1.5535 -0.2334
19658TIP3   OH280464   0.230   1.541  86.367 -0.1435 -0.0185  0.2686
19658TIP3    H180465   0.199   1.475  86.305 -0.0638 -0.8807  1.1363
19658TIP3    H280466   0.311   1.505  86.403 -0.5725  0.1314  1.4170
19659TIP3   OH280467   0.230   2.047  17.696 -0.0637  0.1245  0.3279
19659TIP3    H180468   0.227   1.952  17.694 -0.6154  0.1386 -1.4194
19659TIP3    H280469   0.323   2.069  17.689  0.0898 -0.2648  1.0166
19660TIP3   OH280470   1.988   1.916 101.787  0.0895  0.0184  0.4659
19660TIP3    H180471   1.917   1.889 101.728 -0.8964 -1.1712  2.0807
19660TIP3    H280472   1.985   2.011 101.786 -1.1314  0.0014 -0.0004
19661TIP3   OH280473   2.114   1.257  10.668 -0.5373  0.5051  0.2555
19661TIP3    H180474   2.111   1.252  10.764 -2.5829  1.5924  0.3137
19661TIP3    H280475   2.033   1.215  10.640 -0.0321  0.3371 -0.9893
19662TIP3   OH280476   0.176   0.184   7.141 -0.3437 -0.3686  0.4411
19662TIP3    H180477   0.239   0.195   7.070  0.5247 -0.0099  1.2522
19662TIP3    H280478   0.218   0.123   7.201 -1.0456 -0.6224  0.6820
19663TIP3   OH280479   0.950   2.302 108.854  0.1052 -0.2864 -0.3761
19663TIP3    H180480   0.967   2.238 108.785 -0.2852 -0.1721 -0.5840
19663TIP3    H280481   0.888   2.257 108.913  0.9858 -0.6477  0.2970
19664TIP3   OH280482   0.550   0.689  87.719 -0.2027 -0.6666 -0.1354
19664TIP3    H180483   0.482   0.731  87.667 -0.5870 -0.3642  0.5970
19664TIP3    H280484   0.504   0.657  87.797  0.6995  0.5957  0.9408
19665TIP3   OH280485   0.861   1.705  37.054  0.3751  0.2869  0.0432
19665TIP3    H180486   0.820   1.701  36.967  1.3351  0.6961 -0.4375
19665TIP3    H280487   0.805   1.764  37.104  0.9392  1.7239 -0.9377
19666TIP3   OH280488   1.638   1.936  63.312  0.4136 -0.1407  0.2540
19666TIP3    H180489   1.726   1.971  63.296  0.3859  0.1188  0.6779
19666TIP3    H280490   1.643   1.898  63.400  0.1635 -0.3349  0.1825
19667TIP3   OH280491   1.325   1.267  17.771  0.0290  0.2255  0.7589
19667TIP3    H180492   1.349   1.188  17.819  0.6074  0.3560  0.6991
19667TIP3    H280493   1.314   1.334  17.839  2.7311  0.9017  0.6618
19668TIP3   OH280494   1.710   1.741  23.484  0.3222  0.3820 -0.1408
19668TIP3    H180495   1.663   1.682  23.543 -0.6715  1.5305  0.2557
19668TIP3    H280496   1.644   1.769  23.421  1.0346  0.2772 -0.9543
19669TIP3   OH280497   2.047   1.163  17.720  0.2664 -0.3038 -0.1317
19669TIP3    H180498   2.087   1.231  17.773 -3.1489  1.3560  0.6041
19669TIP3    H280499   2.021   1.095  17.782  0.9022 -0.8605 -0.4542
19670TIP3   OH280500   1.922   2.067   5.690  0.4197 -0.5330 -0.2521
19670TIP3    H180501   1.829   2.051   5.680  0.2431  0.6652 -0.7212
19670TIP3    H280502   1.935   2.074   5.785 -0.5715  2.3541 -0.2390
19671TIP3   OH280503   1.687   1.524  93.231  0.1818  0.1412 -0.1726
19671TIP3    H180504   1.680   1.514  93.136 -0.2602  0.0747 -0.1299
19671TIP3    H280505   1.619   1.587  93.254  0.4958  0.4035  0.0654
19672TIP3   OH280506   1.541   1.182  78.283  0.8100  0.0651 -0.4970
19672TIP3    H180507   1.611   1.201  78.344 -1.6027  1.3358  2.1018
19672TIP3    H280508   1.499   1.267  78.267 -1.2430 -0.8670 -0.4274
19673TIP3   OH280509   2.470   1.738  17.295  0.1539 -0.2548 -0.6655
19673TIP3    H180510   2.466   1.810  17.357  1.6669  0.5988 -1.5042
19673TIP3    H280511   2.398   1.680  17.320  0.2222  0.4729  1.3442
19674TIP3   OH280512   1.015   0.554  80.569 -0.3505  0.6872  0.6905
19674TIP3    H180513   1.100   0.598  80.570 -0.3788  0.9116 -1.5220
19674TIP3    H280514   0.955   0.620  80.535 -1.1748  0.1608  1.1107
19675TIP3   OH280515   0.119   2.191  42.240 -0.3592  0.6552 -0.4322
19675TIP3    H180516   0.049   2.222  42.297  1.8770 -0.5925  3.3791
19675TIP3    H280517   0.196   2.240  42.269  1.5963 -2.4939  0.1488
19676TIP3   OH280518   1.037   2.198   7.186  0.1261 -0.0273 -0.2309
19676TIP3    H180519   0.987   2.136   7.132  0.0792 -0.5902  0.4609
19676TIP3    H280520   1.117   2.152   7.208  0.6490  0.6172 -0.7321
19677TIP3   OH280521   0.023   2.034  34.580  0.1247 -0.3675 -0.4484
19677TIP3    H180522  -0.031   1.970  34.626  1.1160 -0.4901  0.5905
19677TIP3    H280523   0.103   2.040  34.632 -0.0034  1.8619 -0.4066
19678TIP3   OH280524   1.393   1.876  19.789 -0.1815  0.2850 -0.2673
19678TIP3    H180525   1.410   1.966  19.817  3.4667 -0.7790  1.4620
19678TIP3    H280526   1.334   1.841  19.855  0.5737  0.6560  0.6244
19679TIP3   OH280527   1.048   0.165   0.680 -0.4257  0.2969 -0.0195
19679TIP3    H180528   1.075   0.253   0.704 -0.6721  0.5918 -0.8065
19679TIP3    H280529   1.122   0.128   0.632 -0.8316  0.5756 -0.8842
19680TIP3   OH280530   2.397   1.959  74.115 -0.2975 -0.5620 -0.2464
19680TIP3    H180531   2.304   1.937  74.107  0.0678 -2.8305  1.0581
19680TIP3    H280532   2.401   2.025  74.184 -1.0039  0.3698 -1.0683
19681TIP3   OH280533   1.873   0.056  58.475  0.9685  0.9975 -0.4706
19681TIP3    H180534   1.930   0.118  58.522  4.4802 -2.0882 -0.2576
19681TIP3    H280535   1.916   0.042  58.391 -0.3981 -0.2109 -1.0046
19682TIP3   OH280536   2.493   0.467 111.557  0.3496  0.3356 -0.0946
19682TIP3    H180537   2.524   0.396 111.613 -1.1011 -0.4785 -0.2656
19682TIP3    H280538   2.398   0.457 111.556  0.1351  2.0457 -0.4599
19683TIP3   OH280539   2.114   1.891 107.130 -0.4442  0.2477  0.0307
19683TIP3    H180540   2.178   1.962 107.133 -0.4642  0.2330  1.1987
19683TIP3    H280541   2.109   1.867 107.037  0.9229  0.5320 -0.1366
19684TIP3   OH280542   0.622   0.639  25.700 -0.3901  0.1153  0.0472
19684TIP3    H180543   0.693   0.619  25.640  1.6221  1.5962  1.7751
19684TIP3    H280544   0.659   0.705  25.760 -2.8657  0.1236  1.7180
19685TIP3   OH280545   2.599   0.163  97.679  0.2839  0.3289  0.4597
19685TIP3    H180546   2.573   0.232  97.741  2.1596  0.6987  0.8819
19685TIP3    H280547   2.613   0.086  97.733  0.9801  0.3909  0.3704
19686TIP3   OH280548   1.145   2.266  98.130 -0.1319 -0.2290  0.4477
19686TIP3    H180549   1.171   2.318  98.054  1.5069 -0.6829  0.6474
19686TIP3    H280550   1.098   2.327  98.186  0.4702  0.6698  0.0034
19687TIP3   OH280551   0.559   1.256 106.397  0.3843  0.0332  0.2049
19687TIP3    H180552   0.498   1.296 106.334  0.5817  0.8719  0.5304
19687TIP3    H280553   0.560   1.317 106.471  1.9716  0.2853  0.0158
19688TIP3   OH280554   1.818   1.790 102.084 -0.5227 -0.2951  0.4256
19688TIP3    H180555   1.813   1.847 102.161  0.0027 -0.2639  0.4372
19688TIP3    H280556   1.783   1.844 102.013 -2.4094 -0.8136  0.8861
19689TIP3   OH280557   0.648   0.977  57.166 -0.5410  0.0774  0.1770
19689TIP3    H180558   0.698   1.057  57.185 -0.6073  0.0205  0.6040
19689TIP3    H280559   0.700   0.932  57.099 -0.2022  0.1967  0.3560
19690TIP3   OH280560   1.222   2.307  84.038 -0.1972 -0.2649 -0.3298
19690TIP3    H180561   1.233   2.334  83.947  2.0002  1.8453  0.4439
19690TIP3    H280562   1.143   2.353  84.067  1.3941  2.6518 -0.1272
19691TIP3   OH280563   0.621   1.829  15.729  0.0513  0.5257  0.2001
19691TIP3    H180564   0.570   1.906  15.752 -2.1428  0.0364 -2.4559
19691TIP3    H280565   0.707   1.863  15.706 -0.9383  2.3020 -1.1740
19692TIP3   OH280566   1.468   1.356  26.928 -0.0202  0.1079  0.1007
19692TIP3    H180567   1.503   1.344  27.017 -1.4518 -0.8088  0.5685
19692TIP3    H280568   1.521   1.427  26.891  2.2529 -1.1310  0.7967
19693TIP3   OH280569   0.939   1.847 104.867 -0.2019  0.0494  0.3615
19693TIP3    H180570   0.851   1.867 104.898 -0.0871 -0.4604  1.0301
19693TIP3    H280571   0.937   1.869 104.774 -0.5011  1.7448  0.7406
19694TIP3   OH280572   0.179   1.952 108.546 -0.7349 -0.1920 -0.0847
19694TIP3    H180573   0.160   1.871 108.499  3.5789 -2.4233  1.4731
19694TIP3    H280574   0.174   1.927 108.639 -0.1000  1.5453  0.4566
19695TIP3   OH280575   2.241   0.760   2.423  0.2426  0.0942 -0.0436
19695TIP3    H180576   2.250   0.842   2.374 -0.2404 -0.4973 -1.1690
19695TIP3    H280577   2.168   0.715   2.381 -0.2546 -0.4086  1.3090
19696TIP3   OH280578   2.136   1.363  29.078 -0.3403 -0.0631 -0.0256
19696TIP3    H180579   2.208   1.309  29.110 -0.1590  0.0099 -0.3093
19696TIP3    H280580   2.145   1.362  28.982 -0.6037  0.0968 -0.0529
19697TIP3   OH280581   0.243   1.681  32.665  0.1536 -0.6784  0.1379
19697TIP3    H180582   0.243   1.776  32.656  0.6702 -0.8395 -2.0551
19697TIP3    H280583   0.211   1.666  32.754 -1.2656  1.4977  0.0885
19698TIP3   OH280584   2.425   0.473  78.594  0.0175  0.0918 -0.2466
19698TIP3    H180585   2.426   0.518  78.510  0.6234 -0.3268 -0.4694
19698TIP3    H280586   2.518   0.455  78.613 -0.2273 -1.4472 -0.3748
19699TIP3   OH280587   1.278   2.126  74.927 -0.5605 -0.1010 -0.0188
19699TIP3    H180588   1.251   2.069  74.999 -0.8593 -0.8548 -0.7264
19699TIP3    H280589   1.299   2.209  74.970 -0.6904 -0.5531  0.9480
19700TIP3   OH280590   1.269   0.721  84.873  0.1400 -0.1762  0.4679
19700TIP3    H180591   1.257   0.676  84.957  0.4245  0.9514  1.1254
19700TIP3    H280592   1.207   0.678  84.814  0.1590 -1.1968  1.1624
19701TIP3   OH280593   0.047   2.107  43.209  0.3926 -0.0485  0.3019
19701TIP3    H180594  -0.015   2.123  43.280  0.7618 -2.2241  1.2210
19701TIP3    H280595  -0.007   2.097  43.131 -0.1974  0.4356  0.6458
19702TIP3   OH280596   1.614   0.470   5.905  0.4363  0.2562  0.6366
19702TIP3    H180597   1.578   0.549   5.863 -0.6990  0.1509  1.3591
19702TIP3    H280598   1.699   0.497   5.938  0.4214  0.9477  0.1436
19703TIP3   OH280599   0.241   1.557  75.613 -0.5387  0.5624 -0.2139
19703TIP3    H180600   0.238   1.465  75.587 -0.1415  0.5645 -0.2877
19703TIP3    H280601   0.287   1.557  75.697  1.0111  0.8341 -1.0089
19704TIP3   OH280602   1.638   0.013  41.401 -0.0625  0.5987  0.1584
19704TIP3    H180603   1.546   0.008  41.377  0.2807 -0.8633 -0.9914
19704TIP3    H280604   1.664   0.103  41.380 -1.0562  0.8270 -0.1067
19705TIP3   OH280605   1.311   0.642  21.557  0.0513 -0.1151 -0.7944
19705TIP3    H180606   1.341   0.603  21.475  0.2761 -0.3008 -0.6252
19705TIP3    H280607   1.297   0.734  21.535  2.0996  0.2963 -0.5496
19706TIP3   OH280608   0.853   0.587  78.953  0.2132 -0.8261 -0.7677
19706TIP3    H180609   0.847   0.638  78.872 -0.5881 -0.1108 -0.2659
19706TIP3    H280610   0.817   0.501  78.929 -0.1775 -0.5653 -1.1281
19707TIP3   OH280611   2.585   0.731  76.124  0.5386 -0.7070 -0.0553
19707TIP3    H180612   2.614   0.767  76.040 -0.5770 -2.1036 -1.0878
19707TIP3    H280613   2.586   0.806  76.183  1.2808  0.3344 -1.3234
19708TIP3   OH280614   2.641   2.511  92.484  0.2236  0.4775 -1.0852
19708TIP3    H180615   2.585   2.437  92.459  0.3915  0.5474 -1.6810
19708TIP3    H280616   2.679   2.541  92.402  1.4958  0.1544 -0.6418
19709TIP3   OH280617   0.119   1.433  80.823  0.1826  0.0072  0.6865
19709TIP3    H180618   0.039   1.416  80.773  0.7285 -1.0436  0.1323
19709TIP3    H280619   0.148   1.519  80.793 -0.9301  0.5839  1.1831
19710TIP3   OH280620   2.578   0.273  31.415  0.0430  0.4420  0.1542
19710TIP3    H180621   2.575   0.363  31.384 -0.0499  0.8819  1.3776
19710TIP3    H280622   2.502   0.265  31.473  0.3008 -0.2856  0.4075
19711TIP3   OH280623   0.063   1.703  83.200 -0.2711  0.2276 -0.1912
19711TIP3    H180624   0.108   1.774  83.243 -1.6865  0.4460  1.0064
19711TIP3    H280625   0.061   1.632  83.264 -1.1756  0.0596 -0.3807
19712TIP3   OH280626   2.304   1.633  29.277  0.3258 -0.0804  0.4682
19712TIP3    H180627   2.341   1.700  29.334 -0.5016  0.1290  0.7772
19712TIP3    H280628   2.218   1.667  29.252  0.5661 -0.2780 -0.7150
19713TIP3   OH280629   0.010   0.502  92.875 -0.1637 -0.5726  0.0556
19713TIP3    H180630  -0.001   0.421  92.824 -2.0830 -1.8663  2.3474
19713TIP3    H280631   0.023   0.472  92.965 -1.1540  1.6568  1.0041
19714TIP3   OH280632   0.523   2.321  67.085  0.0312 -0.6926 -0.0799
19714TIP3    H180633   0.492   2.233  67.107  1.7567 -1.5829 -0.9390
19714TIP3    H280634   0.588   2.306  67.016  2.5005  0.9424  1.7273
19715TIP3   OH280635   0.019   1.129  31.881 -0.3539  0.6510 -0.1157
19715TIP3    H180636   0.007   1.034  31.876 -0.3301  0.5247  1.7226
19715TIP3    H280637   0.111   1.142  31.856 -0.7716  0.3988 -1.9676
19716TIP3   OH280638   0.456   1.287 108.620  0.0210 -0.2941 -0.3262
19716TIP3    H180639   0.468   1.284 108.525 -0.1569  0.5489 -0.3740
19716TIP3    H280640   0.541   1.314 108.654 -0.1907  0.3806 -0.3212
19717TIP3   OH280641   1.174   1.212   1.070 -0.5020 -0.4610 -0.2059
19717TIP3    H180642   1.235   1.275   1.033 -0.6255 -0.0313  0.3134
19717TIP3    H280643   1.161   1.241   1.161 -0.2886 -1.4264  0.1496
19718TIP3   OH280644   2.574   2.441  22.636  0.5452  0.2009  0.3463
19718TIP3    H180645   2.493   2.476  22.600 -0.7101 -1.5447  1.3116
19718TIP3    H280646   2.633   2.434  22.561 -0.4621  0.7787 -0.5295
19719TIP3   OH280647   1.543   0.580  89.371 -0.0874  0.2310  0.0939
19719TIP3    H180648   1.543   0.490  89.403 -2.2318 -0.0827 -0.6201
19719TIP3    H280649   1.460   0.616  89.400  0.0780  1.5123 -0.9052
19720TIP3   OH280650   1.859   1.107  58.584 -0.7448  0.0307  0.6174
19720TIP3    H180651   1.899   1.176  58.531 -1.0958 -0.1246  0.1384
19720TIP3    H280652   1.854   1.143  58.672 -0.5572  0.4608  0.4541
19721TIP3   OH280653   2.658   2.025  47.782 -0.4261 -0.2581  0.3633
19721TIP3    H180654   2.716   2.097  47.758 -1.0518  0.4276  0.8777
19721TIP3    H280655   2.581   2.037  47.728 -0.4298 -0.6928  0.2696
19722TIP3   OH280656   0.567   1.111   8.063  0.3282 -0.3311  0.7157
19722TIP3    H180657   0.492   1.052   8.056 -0.3800  0.3889  1.9637
19722TIP3    H280658   0.587   1.134   7.972 -1.0441 -0.4432  0.3621
19723TIP3   OH280659   2.222   0.433  19.228 -0.0118 -0.0318 -0.1020
19723TIP3    H180660   2.163   0.451  19.301  1.3061 -0.1480  1.0281
19723TIP3    H280661   2.292   0.497  19.236  0.5760 -0.5595 -0.7965
19724TIP3   OH280662   0.403   0.269   0.618 -0.4168  0.0630 -0.1640
19724TIP3    H180663   0.473   0.332   0.599  0.2342  0.0234  1.8055
19724TIP3    H280664   0.445   0.184   0.607 -0.7267 -0.0076 -0.8572
19725TIP3   OH280665   1.878   1.949  79.948  0.1419 -0.0273  0.1447
19725TIP3    H180666   1.889   1.854  79.946 -0.0625 -0.0468 -0.1564
19725TIP3    H280667   1.852   1.968  80.038  0.3246 -0.2372  0.2415
19726TIP3   OH280668   1.959   0.911  22.168  0.0213  0.6378  0.3375
19726TIP3    H180669   2.019   0.841  22.142 -1.0026  0.0034 -0.4141
19726TIP3    H280670   2.014   0.974  22.213  1.1106 -0.2928  0.3631
19727TIP3   OH280671   1.661   0.721  93.878  0.1906  0.3253 -0.1080
19727TIP3    H180672   1.599   0.650  93.897 -1.4947  1.0862 -2.2964
19727TIP3    H280673   1.616   0.800  93.908  0.7051  0.7660 -0.4950
19728TIP3   OH280674   0.283   1.475 108.100 -0.3064  0.3078  0.3025
19728TIP3    H180675   0.233   1.557 108.091  0.8926  1.1581  1.0669
19728TIP3    H280676   0.227   1.418 108.152 -0.5769  1.1799  1.0001
19729TIP3   OH280677   0.578   1.794  98.692  0.0686  0.5562 -0.3698
19729TIP3    H180678   0.501   1.759  98.647  0.0495  0.8143 -0.5429
19729TIP3    H280679   0.586   1.884  98.659  1.4945 -0.0146 -1.6945
19730TIP3   OH280680   1.934   0.994  93.746  0.2763 -0.0160  0.2148
19730TIP3    H180681   1.862   1.045  93.784  1.3556 -0.1340  2.5995
19730TIP3    H280682   1.898   0.958  93.665 -1.5614  1.8595  0.1074
19731TIP3   OH280683   1.583   0.978  58.107 -0.1969 -0.0583  0.1821
19731TIP3    H180684   1.599   0.936  58.022  1.5065  2.0339 -0.6157
19731TIP3    H280685   1.492   0.957  58.127  0.2999 -3.4097 -0.4888
19732TIP3   OH280686   2.245   1.443  47.363  0.2479  0.6652  0.4207
19732TIP3    H180687   2.289   1.440  47.278  2.0548 -1.8453  1.3124
19732TIP3    H280688   2.241   1.352  47.391 -2.3046  1.2005  2.0862
19733TIP3   OH280689   1.817   2.216  23.058  0.1504  0.2557  0.3866
19733TIP3    H180690   1.745   2.252  23.005  0.9274 -0.9874 -1.6308
19733TIP3    H280691   1.834   2.130  23.019  2.0857  0.1119  1.4552
19734TIP3   OH280692   2.063   1.792 104.386  0.0465  0.3032 -0.2088
19734TIP3    H180693   2.156   1.800 104.365  0.4135  0.3434  1.3114
19734TIP3    H280694   2.061   1.777 104.481 -1.3985 -1.4224 -0.4421
19735TIP3   OH280695   1.196   1.656  77.123 -0.3796 -0.1129 -0.1153
19735TIP3    H180696   1.213   1.750  77.112  1.0622 -0.3051  0.2958
19735TIP3    H280697   1.276   1.613  77.094 -0.3314 -1.1245  1.4210
19736TIP3   OH280698   2.163   0.351  26.695 -0.4470 -0.0784  0.5211
19736TIP3    H180699   2.189   0.292  26.624 -0.5934  0.4107  0.0581
19736TIP3    H280700   2.070   0.366  26.680 -0.4208  0.2304  0.6698
19737TIP3   OH280701   2.379   1.842 107.431  0.1261  0.0133 -0.4477
19737TIP3    H180702   2.338   1.861 107.346 -0.9009 -0.5591 -0.1006
19737TIP3    H280703   2.305   1.829 107.490  0.8240  0.9302  0.6686
19738TIP3   OH280704   0.968   2.379  88.071 -0.3465  0.3182 -0.1919
19738TIP3    H180705   1.035   2.360  88.136 -0.1574  0.3914 -0.3658
19738TIP3    H280706   0.885   2.362  88.116 -0.1949 -0.6340 -0.2506
19739TIP3   OH280707   2.358   2.235   3.693  0.1693  0.0301 -0.0963
19739TIP3    H180708   2.383   2.143   3.680 -0.1048  0.0203 -0.5973
19739TIP3    H280709   2.263   2.233   3.703 -0.0351  0.3957 -1.6545
19740TIP3   OH280710   2.223   0.775   2.696 -0.3653 -0.1023 -0.2008
19740TIP3    H180711   2.237   0.748   2.605 -0.6774 -2.0006  0.2917
19740TIP3    H280712   2.253   0.701   2.748 -1.2265  0.5196  1.2218
19741TIP3   OH280713   0.950   0.169  89.498 -0.2572 -0.4791  0.4908
19741TIP3    H180714   0.926   0.105  89.432 -0.8113 -1.7777  1.8999
19741TIP3    H280715   1.021   0.127  89.548 -0.4859  0.0815  1.3076
19742TIP3   OH280716   2.234   0.028  94.912 -0.3198  0.3067  0.4364
19742TIP3    H180717   2.151  -0.018  94.904 -0.3256  0.3328  0.3342
19742TIP3    H280718   2.233   0.093  94.841 -0.2462  0.3533  0.4748
19743TIP3   OH280719   0.229   2.370 100.151  0.5277 -0.0785 -0.2203
19743TIP3    H180720   0.316   2.409 100.155 -0.1451  1.4666  0.2277
19743TIP3    H280721   0.175   2.427 100.206 -1.0562 -0.2116 -1.5620
19744TIP3   OH280722   2.655   1.380 102.760  0.0337  0.4116  0.1347
19744TIP3    H180723   2.724   1.365 102.695  0.7614  2.1891  0.4270
19744TIP3    H280724   2.595   1.441 102.717 -0.4023  0.2538  0.5100
19745TIP3   OH280725   0.186   1.816  15.762 -0.0753 -0.1004 -0.9088
19745TIP3    H180726   0.160   1.743  15.706  0.1883 -0.4633 -0.5593
19745TIP3    H280727   0.111   1.875  15.762 -1.1198 -1.3733  0.5102
19746TIP3   OH280728   1.641   0.776  27.392  0.4986  0.1379  0.2402
19746TIP3    H180729   1.719   0.796  27.340 -0.3555 -1.5641 -1.8391
19746TIP3    H280730   1.568   0.790  27.332 -0.6001 -1.1450  1.2074
19747TIP3   OH280731   2.408   1.056 107.583  0.3331  0.2529 -0.1733
19747TIP3    H180732   2.359   0.975 107.588 -1.1062  1.1665  3.6663
19747TIP3    H280733   2.367   1.105 107.511 -1.0593 -1.0109 -0.2707
19748TIP3   OH280734   1.597   0.379  81.683 -0.4463 -0.6008 -0.3768
19748TIP3    H180735   1.658   0.313  81.652 -0.3556 -0.3820 -0.6604
19748TIP3    H280736   1.534   0.330  81.736 -1.4076 -1.2009 -2.0061
19749TIP3   OH280737   1.583   0.233  13.880 -0.0839  0.3035 -0.1898
19749TIP3    H180738   1.580   0.328  13.897  2.9006  0.4947 -0.1350
19749TIP3    H280739   1.561   0.224  13.788  0.1938  1.1419 -0.3475
19750TIP3   OH280740   2.560   2.186  75.641  0.3571 -0.1259  0.3928
19750TIP3    H180741   2.622   2.162  75.710 -1.6536 -1.1046  1.9967
19750TIP3    H280742   2.557   2.108  75.584 -1.6528 -1.4666  2.1521
19751TIP3   OH280743   0.151   0.966 103.617  0.1139 -0.5049  0.4350
19751TIP3    H180744   0.213   1.031 103.651 -0.9706  0.0724  1.4018
19751TIP3    H280745   0.179   0.883 103.656 -0.2824 -0.0798  1.6854
19752TIP3   OH280746   2.284   1.526  16.117 -0.7124  0.0443 -0.6367
19752TIP3    H180747   2.219   1.475  16.165 -0.3811  0.5360  0.3682
19752TIP3    H280748   2.356   1.465  16.101 -0.6812 -0.0402 -0.1950
19753TIP3   OH280749   1.791   1.242  25.899  0.1389  0.3885  0.2418
19753TIP3    H180750   1.881   1.269  25.917 -0.2767  1.3067  0.9845
19753TIP3    H280751   1.759   1.305  25.835  0.1451 -0.1851 -0.3414
19754TIP3   OH280752   1.573   0.727  91.553  0.3925  0.3989  0.4558
19754TIP3    H180753   1.647   0.695  91.604 -0.8808 -0.0293  2.1103
19754TIP3    H280754   1.608   0.803  91.505  1.7720  0.4767  1.5356
19755TIP3   OH280755   2.620   0.931  29.335  0.3112 -0.0106 -0.2907
19755TIP3    H180756   2.632   0.840  29.308  0.7558  0.0569 -0.3150
19755TIP3    H280757   2.549   0.963  29.278 -0.3376 -0.5459  0.2102
19756TIP3   OH280758   1.088   1.713 109.765  0.2300  0.5179  0.2695
19756TIP3    H180759   1.073   1.697 109.672  0.3310 -0.1895  0.3597
19756TIP3    H280760   1.013   1.672 109.809  0.1786  0.8533  0.4973
19757TIP3   OH280761   1.788   1.946  47.340  0.6803  0.7173 -0.2891
19757TIP3    H180762   1.809   2.033  47.375  0.5873  0.1366  1.3055
19757TIP3    H280763   1.792   1.957  47.245  2.2015  2.0885 -0.1211
19758TIP3   OH280764   1.170   1.249  77.312 -0.4768  0.5182  0.3223
19758TIP3    H180765   1.133   1.226  77.397  1.1483  1.7289  1.4099
19758TIP3    H280766   1.255   1.289  77.332  0.4027 -0.0410 -1.9217
19759TIP3   OH280767   2.234   0.969  33.723  0.0051  0.1630  0.1125
19759TIP3    H180768   2.178   0.911  33.774 -0.0614 -0.8155 -1.0601
19759TIP3    H280769   2.320   0.927  33.724 -0.4597 -0.9760 -2.2831
19760TIP3   OH280770   1.660   2.356   0.747  0.1071 -0.1951 -0.0521
19760TIP3    H180771   1.723   2.311   0.691  0.9344  0.5817  0.2287
19760TIP3    H280772   1.607   2.407   0.686  0.3354 -0.1515 -0.2168
19761TIP3   OH280773   2.477   0.776  99.129  0.4080 -0.7184  0.2166
19761TIP3    H180774   2.467   0.804  99.220 -1.2891 -0.0457 -0.1383
19761TIP3    H280775   2.572   0.775  99.114  0.6975 -0.5736  1.8964
19762TIP3   OH280776   2.307   2.264  75.418  0.4616  0.1436 -0.1080
19762TIP3    H180777   2.217   2.244  75.445  0.6522 -0.3923  0.1452
19762TIP3    H280778   2.345   2.310  75.492  0.4475  0.2292 -0.1544
19763TIP3   OH280779   0.184   1.729  96.585  0.3306  0.3792 -0.3885
19763TIP3    H180780   0.220   1.795  96.644 -0.6988  0.3883  0.2633
19763TIP3    H280781   0.261   1.688  96.545  1.0149  1.1628  0.0849
19764TIP3   OH280782   1.968   1.840  82.471  0.8893 -0.5866  0.0884
19764TIP3    H180783   1.917   1.899  82.527  0.4394 -0.6075 -0.2958
19764TIP3    H280784   1.985   1.764  82.526 -0.6125 -1.1438 -0.1834
19765TIP3   OH280785   1.506   0.860  97.230  0.4078 -0.1750  0.1704
19765TIP3    H180786   1.504   0.890  97.321 -1.1816 -0.2025  0.1823
19765TIP3    H280787   1.527   0.767  97.235 -0.7729 -0.4421  0.6321
19766TIP3   OH280788   1.156   0.929   6.046 -0.5141  0.2513 -0.0774
19766TIP3    H180789   1.188   1.013   6.079 -0.4749 -0.5208  1.9905
19766TIP3    H280790   1.131   0.880   6.124 -2.6242 -0.8607 -1.3465
19767TIP3   OH280791   2.434   0.288   1.262 -0.5050  0.0665 -0.5499
19767TIP3    H180792   2.529   0.293   1.249  0.0689 -1.8099  2.2330
19767TIP3    H280793   2.408   0.206   1.221 -0.5154 -0.5010  0.5582
19768TIP3   OH280794   1.059   1.015   6.642  0.4302  0.2708  0.5198
19768TIP3    H180795   0.977   1.064   6.642  1.0416  1.3468 -0.4592
19768TIP3    H280796   1.034   0.927   6.613 -0.1454  1.0959 -1.7419
19769TIP3   OH280797   0.640   0.746 110.374  0.1536  0.2663 -0.1870
19769TIP3    H180798   0.569   0.682 110.378 -0.1618  0.6013 -0.4226
19769TIP3    H280799   0.712   0.705 110.422 -0.2079 -0.0606  0.0780
19770TIP3   OH280800   1.857   1.790  35.737 -0.6776  0.0542 -0.1463
19770TIP3    H180801   1.789   1.813  35.801 -0.5934 -0.6800  0.2161
19770TIP3    H280802   1.841   1.697  35.717 -0.8130  0.3139 -1.3284
19771TIP3   OH280803   0.785   1.511  82.826  0.6752 -0.4954 -0.1757
19771TIP3    H180804   0.759   1.531  82.736  0.3179 -2.0886 -0.4585
19771TIP3    H280805   0.715   1.454  82.859  0.0675  1.1630  1.6167
19772TIP3   OH280806   2.161   1.297  95.337 -0.0834  0.2196 -0.0598
19772TIP3    H180807   2.224   1.236  95.298  0.4601  0.4815  0.3925
19772TIP3    H280808   2.108   1.242  95.395 -0.2058  0.0135 -0.3650
19773TIP3   OH280809   0.269   1.380  31.477 -0.0902  0.0186  0.3298
19773TIP3    H180810   0.337   1.422  31.530 -0.3964  0.1311  0.6366
19773TIP3    H280811   0.225   1.453  31.433 -1.2358  0.1256  1.5837
19774TIP3   OH280812   2.154   2.249  87.692  0.4572  0.2483 -0.4820
19774TIP3    H180813   2.112   2.311  87.633  1.3102 -0.2855 -1.6822
19774TIP3    H280814   2.081   2.209  87.740 -0.1668  1.4272 -0.4131
19775TIP3   OH280815   0.964   0.298  30.808 -0.0276 -0.7768  0.0490
19775TIP3    H180816   0.916   0.253  30.878  0.4335 -0.2838  0.7008
19775TIP3    H280817   0.916   0.380  30.796 -0.5821 -1.2136 -0.7944
19776TIP3   OH280818   0.524   1.086  98.885 -0.0655  0.0881 -0.4210
19776TIP3    H180819   0.486   1.173  98.874  1.0250  0.4451 -1.5137
19776TIP3    H280820   0.614   1.094  98.853  0.1298 -1.3825 -0.3224
19777TIP3   OH280821   2.202   0.257  18.551  0.2356  0.4065  0.6198
19777TIP3    H180822   2.158   0.269  18.467  1.3602  1.7943  0.1906
19777TIP3    H280823   2.276   0.199  18.530 -1.0284 -1.5087  1.2375
19778TIP3   OH280824   0.464   1.638  17.745  0.1782 -0.0609 -0.2536
19778TIP3    H180825   0.512   1.579  17.803 -0.3079 -0.1804  0.0348
19778TIP3    H280826   0.525   1.658  17.674  0.2206 -1.2115 -0.5569
19779TIP3   OH280827   0.744   2.526  22.675  0.7014 -0.1812 -0.2610
19779TIP3    H180828   0.656   2.563  22.663  0.9680  0.2913 -0.8195
19779TIP3    H280829   0.734   2.433  22.658 -0.1196 -0.5372  1.8039
19780TIP3   OH280830   1.539   2.247  94.879  0.9984 -0.7657  0.4147
19780TIP3    H180831   1.629   2.213  94.878  1.5384  0.6215 -0.2589
19780TIP3    H280832   1.546   2.336  94.844 -0.9249 -1.3695 -1.8110
19781TIP3   OH280833   2.599   1.713 105.858 -0.0881  0.1243  0.0052
19781TIP3    H180834   2.645   1.661 105.793 -0.0834 -0.4062  0.4199
19781TIP3    H280835   2.667   1.764 105.902 -0.1918  1.1568 -0.9871
19782TIP3   OH280836   2.470   0.473  38.832  0.3821  0.5434 -0.1081
19782TIP3    H180837   2.442   0.452  38.921  0.0914 -1.5284 -0.6394
19782TIP3    H280838   2.563   0.448  38.830  0.1373 -0.3632 -0.6458
19783TIP3   OH280839   1.974   1.951   9.672 -0.4040 -0.3962 -0.3454
19783TIP3    H180840   2.020   1.883   9.722  1.3616  2.0133  1.6191
19783TIP3    H280841   2.029   1.966   9.595 -1.3576 -1.8151 -1.3553
19784TIP3   OH280842   0.481   0.129  19.986 -0.0759 -0.0358  0.3310
19784TIP3    H180843   0.387   0.112  19.976  0.2731 -1.7073 -0.5347
19784TIP3    H280844   0.518   0.043  20.004  1.2694  0.6540  0.9260
19785TIP3   OH280845   0.094   1.367   4.805  0.1978  0.2499 -0.5133
19785TIP3    H180846   0.162   1.427   4.773  0.0820  0.0478 -1.1435
19785TIP3    H280847   0.118   1.352   4.897  0.2017  1.2887 -0.3337
19786TIP3   OH280848   1.649   1.416  74.812 -0.5888  0.0674 -0.5283
19786TIP3    H180849   1.594   1.473  74.758 -1.9780  0.7128  1.4285
19786TIP3    H280850   1.623   1.327  74.788 -0.4148  0.3029 -1.6429
19787TIP3   OH280851   0.648   1.493 110.659  0.0762 -0.4338 -0.2904
19787TIP3    H180852   0.600   1.574 110.678 -0.6769 -0.2281 -2.6746
19787TIP3    H280853   0.737   1.510 110.692 -0.3973  0.8508  0.4215
19788TIP3   OH280854   1.386   0.208  96.424  0.5720  0.0659  0.2091
19788TIP3    H180855   1.472   0.239  96.394 -0.4105  0.9844 -1.8499
19788TIP3    H280856   1.351   0.280  96.475 -0.3041  1.0895 -1.7442
19789TIP3   OH280857   2.257   1.408  80.188 -0.0922  0.5279 -0.3564
19789TIP3    H180858   2.259   1.335  80.125 -1.0455 -1.2917  1.5885
19789TIP3    H280859   2.349   1.420  80.213 -0.0880 -1.5006  0.8311
19790TIP3   OH280860   2.278   2.403   5.422 -0.5714  0.7536  0.2999
19790TIP3    H180861   2.282   2.426   5.515 -0.7006  1.7952  0.0549
19790TIP3    H280862   2.288   2.308   5.421 -0.7632  0.7076  1.3928
19791TIP3   OH280863   1.656   0.653  94.903  0.0361  0.1665 -0.8026
19791TIP3    H180864   1.737   0.601  94.908 -0.2770 -0.2807 -0.1934
19791TIP3    H280865   1.675   0.722  94.840  1.6716  1.4279  0.9497
19792TIP3   OH280866   0.005   0.142  41.724  0.5278 -0.3685  0.1644
19792TIP3    H180867  -0.088   0.125  41.706  1.0263 -1.9536 -1.2859
19792TIP3    H280868   0.006   0.191  41.806 -1.5062 -2.0723  1.3020
19793TIP3   OH280869   1.630   0.428 103.149 -0.0693 -0.0320  0.5041
19793TIP3    H180870   1.707   0.390 103.190  0.0373  0.0414  0.3753
19793TIP3    H280871   1.609   0.503 103.205 -0.7981 -0.7816  1.2602
19794TIP3   OH280872   1.958   2.577 100.672 -0.3200 -0.4768 -0.1917
19794TIP3    H180873   2.010   2.500 100.650 -1.1590 -0.9180 -0.7022
19794TIP3    H280874   1.868   2.553 100.648 -0.7234  0.3499  0.4404
19795TIP3   OH280875   0.985   2.105 108.642 -0.0447  0.0499  0.1515
19795TIP3    H180876   1.007   2.136 108.554  1.0539 -0.9307  0.0588
19795TIP3    H280877   0.904   2.055 108.630  0.7047 -1.0421 -0.5323
19796TIP3   OH280878   1.137   0.673  97.677  0.3696  0.1458 -0.0273
19796TIP3    H180879   1.053   0.630  97.694  0.7869 -0.0589  1.6528
19796TIP3    H280880   1.179   0.617  97.610  0.1213 -1.0354  0.7732
19797TIP3   OH280881   1.538   1.858  86.060  0.0563 -0.1623 -0.1558
19797TIP3    H180882   1.457   1.880  86.105  0.9749  0.4030  1.2806
19797TIP3    H280883   1.593   1.936  86.067  0.8636 -0.6452 -0.8086
19798TIP3   OH280884   1.454   0.041  19.828  0.3129 -0.0084 -0.2680
19798TIP3    H180885   1.542   0.009  19.807  0.3003 -0.7003  0.6700
19798TIP3    H280886   1.451   0.128  19.788  1.8599  0.5277  0.6560
19799TIP3   OH280887   0.792   2.548 103.201  0.2507  0.0261  0.5036
19799TIP3    H180888   0.799   2.535 103.106 -0.8105 -0.0286  0.4200
19799TIP3    H280889   0.745   2.631 103.210  0.5492  0.1469  0.9878
19800TIP3   OH280890   0.715   0.357 101.142  0.0679 -0.1416 -0.0939
19800TIP3    H180891   0.686   0.438 101.100  0.1899 -0.7060 -1.3165
19800TIP3    H280892   0.711   0.376 101.235  0.3618  1.3611 -0.3615
19801TIP3   OH280893   1.874   0.203  73.978  0.4193 -0.1345  0.2615
19801TIP3    H180894   1.886   0.286  74.024 -0.2768  0.9518 -1.4453
19801TIP3    H280895   1.959   0.159  73.985  1.0786  1.1289  0.3698
19802TIP3   OH280896   0.157   0.168  75.837  0.0718 -0.1480  0.6482
19802TIP3    H180897   0.129   0.128  75.755  1.1227  0.0188  0.1911
19802TIP3    H280898   0.111   0.119  75.905 -3.9346  2.1369 -0.1010
19803TIP3   OH280899   2.417   0.173  89.941  0.4008 -0.2021  0.0382
19803TIP3    H180900   2.480   0.186  90.012 -0.3683 -0.4309  0.7807
19803TIP3    H280901   2.401   0.261  89.907  0.5885 -0.0556  0.3200
19804TIP3   OH280902   1.890   2.295   4.910 -0.0016 -0.1586  0.4183
19804TIP3    H180903   1.934   2.346   4.842  1.3311 -0.3698  1.0826
19804TIP3    H280904   1.879   2.356   4.983  0.2121 -0.4041  0.6583
19805TIP3   OH280905   2.383   0.382  95.174 -0.3842 -0.2083  0.6945
19805TIP3    H180906   2.399   0.374  95.268 -1.7189  1.7988  1.1475
19805TIP3    H280907   2.358   0.473  95.161  0.6615 -0.1845 -1.7890
19806TIP3   OH280908   0.200   2.039  16.722 -0.6242  0.2355 -0.4069
19806TIP3    H180909   0.160   2.106  16.667 -1.1933  1.4007  1.3382
19806TIP3    H280910   0.285   2.021  16.681 -0.7317  1.5659 -1.2622
19807TIP3   OH280911   1.062   0.680  13.062  0.1796 -0.8333 -0.0364
19807TIP3    H180912   1.101   0.744  13.003  0.6664 -1.2755 -0.2056
19807TIP3    H280913   1.066   0.721  13.149 -1.5473  0.2780 -0.4385
19808TIP3   OH280914   2.328   0.861  75.383  0.3389 -1.0325  0.4074
19808TIP3    H180915   2.278   0.809  75.320 -1.4231 -2.3085  2.7301
19808TIP3    H280916   2.406   0.888  75.334 -2.3855  0.9092 -3.3941
19809TIP3   OH280917   1.720   0.567  16.905  0.3331  0.1690 -0.1360
19809TIP3    H180918   1.689   0.491  16.857  1.5308 -0.0672 -0.5513
19809TIP3    H280919   1.688   0.642  16.855 -0.6583 -0.0295  0.1556
19810TIP3   OH280920   1.541   2.429  26.389 -0.1598 -0.1613  0.4748
19810TIP3    H180921   1.634   2.412  26.370  0.1864 -1.5267  2.9274
19810TIP3    H280922   1.542   2.477  26.471 -1.6327  0.4950  0.1351
19811TIP3   OH280923   1.626   1.455  31.924  0.1281  0.0779  0.4415
19811TIP3    H180924   1.625   1.364  31.955 -0.8330  0.2644  1.0131
19811TIP3    H280925   1.657   1.449  31.834  0.8598 -0.7248  0.7310
19812TIP3   OH280926   1.931   0.952   2.842 -0.1544  0.3981 -0.3495
19812TIP3    H180927   1.953   1.026   2.898  0.1805  2.1562 -2.6550
19812TIP3    H280928   1.856   0.982   2.791 -0.2503 -0.9965 -1.0819
19813TIP3   OH280929   0.606   1.505  18.462 -0.5717 -0.0258 -0.3558
19813TIP3    H180930   0.517   1.519  18.494 -0.2212  0.0216  0.6398
19813TIP3    H280931   0.660   1.509  18.541  0.1235 -1.8084 -0.6889
19814TIP3   OH280932   2.636   0.664  91.412  0.7327  0.0117 -0.5196
19814TIP3    H180933   2.643   0.757  91.432 -2.3894  0.1946  0.1469
19814TIP3    H280934   2.624   0.662  91.317 -2.4184  0.6621 -0.2359
19815TIP3   OH280935   1.077   1.341 109.478 -0.0507 -0.2829  0.0418
19815TIP3    H180936   1.027   1.406 109.429 -1.1051 -1.0988 -0.0184
19815TIP3    H280937   1.014   1.271 109.496  1.1980 -1.6188 -0.5187
19816TIP3   OH280938   1.663   0.708  80.694 -0.5013  0.2526 -0.3202
19816TIP3    H180939   1.658   0.694  80.599  0.8113 -0.4074 -0.3220
19816TIP3    H280940   1.750   0.676  80.718 -1.3887 -1.0427  1.3596
19817TIP3   OH280941   1.578   0.661  90.733  0.1955  0.5134 -0.0447
19817TIP3    H180942   1.581   0.595  90.802 -2.2155 -0.4387 -0.7453
19817TIP3    H280943   1.669   0.686  90.720  0.9765 -1.1926  1.6506
19818TIP3   OH280944   0.290   0.524  76.392  0.2407 -0.0840 -0.3567
19818TIP3    H180945   0.249   0.441  76.417  0.2937 -0.9979 -2.9886
19818TIP3    H280946   0.231   0.561  76.326  2.7579 -0.6850 -3.1412
19819TIP3   OH280947   2.355   1.922  12.197  0.2697  0.2473 -0.1464
19819TIP3    H180948   2.293   1.943  12.267 -0.1174 -0.7995 -0.1669
19819TIP3    H280949   2.439   1.954  12.230  0.1790 -0.6832  1.0254
19820TIP3   OH280950   1.594   0.704   0.789 -0.1259  0.1269 -0.6659
19820TIP3    H180951   1.643   0.708   0.872 -0.1626 -1.7787 -0.5290
19820TIP3    H280952   1.637   0.635   0.739 -2.7995 -1.8817 -0.4123
19821TIP3   OH280953   2.200   2.420  28.750  0.1777  0.2864 -0.1700
19821TIP3    H180954   2.262   2.378  28.810  0.5180  0.2677 -0.5335
19821TIP3    H280955   2.244   2.418  28.665 -0.6801 -0.5173 -0.6171
19822TIP3   OH280956   2.555   1.914   4.085  0.3551  0.5120  0.6780
19822TIP3    H180957   2.567   1.827   4.046 -0.6551  0.9689 -0.6904
19822TIP3    H280958   2.466   1.912   4.121  1.3262  0.0112  3.3166
19823TIP3   OH280959   0.519   0.709   8.106 -0.0128  0.2865 -0.2663
19823TIP3    H180960   0.520   0.638   8.041 -1.0556  0.5475 -0.5901
19823TIP3    H280961   0.600   0.758   8.089  1.7921 -1.9450  1.2757
19824TIP3   OH280962   1.016   2.260  16.502  0.4774  0.4344 -0.4417
19824TIP3    H180963   1.066   2.331  16.462  0.2806  0.0302 -1.4335
19824TIP3    H280964   1.072   2.228  16.572  0.8065  1.2055 -0.3416
19825TIP3   OH280965   1.855   1.220  28.529  0.2388 -0.1497  0.5948
19825TIP3    H180966   1.845   1.131  28.562  2.2299 -0.6149  0.0873
19825TIP3    H280967   1.890   1.209  28.440 -1.6152  1.1270 -0.3552
19826TIP3   OH280968   1.144   2.440  17.236 -0.4355 -0.3715  0.3194
19826TIP3    H180969   1.112   2.357  17.273  0.4561 -0.1736  1.5738
19826TIP3    H280970   1.239   2.432  17.238 -0.3030  1.1729  1.6396
19827TIP3   OH280971   0.136   2.348  79.966 -0.3820 -0.1818  0.3483
19827TIP3    H180972   0.220   2.384  79.939 -1.1112  0.1725 -1.6401
19827TIP3    H280973   0.159   2.275  80.024  1.2320  0.7756  0.9789
19828TIP3   OH280974   0.734   2.314  23.816  0.0640  0.1701 -0.0553
19828TIP3    H180975   0.646   2.304  23.853 -0.3997  0.6888 -0.9828
19828TIP3    H280976   0.719   2.339  23.725  1.1784 -0.0402 -0.3090
19829TIP3   OH280977   0.647   1.786   7.943 -0.2608 -0.0795  0.4554
19829TIP3    H180978   0.559   1.823   7.935 -0.3977 -0.1397  1.5356
19829TIP3    H280979   0.633   1.692   7.950 -0.1962 -0.0181  1.6093
19830TIP3   OH280980   2.510   0.614  15.948 -0.1760  0.3535  0.3882
19830TIP3    H180981   2.551   0.700  15.954 -0.3073  0.3547  1.6692
19830TIP3    H280982   2.474   0.599  16.036  1.2758 -1.7221  0.7020
19831TIP3   OH280983   1.824   1.200  18.999 -0.4391 -0.0116 -0.3116
19831TIP3    H180984   1.755   1.259  18.968 -0.2696  0.4665  0.2097
19831TIP3    H280985   1.807   1.190  19.093  0.0325 -0.1212 -0.2336
19832TIP3   OH280986   0.216   1.405  37.678 -0.0374 -0.5333 -0.2004
19832TIP3    H180987   0.250   1.355  37.752  0.9793 -0.9673 -0.9400
19832TIP3    H280988   0.219   1.345  37.604 -0.0082  0.2232 -0.8299
19833TIP3   OH280989   1.419   0.838  90.323  0.0470 -0.0585  0.3242
19833TIP3    H180990   1.333   0.863  90.290  0.4805  0.2147 -0.6458
19833TIP3    H280991   1.481   0.879  90.262  0.8737  0.2236  1.3319
19834TIP3   OH280992   0.670   1.134  16.499  0.0879 -0.3575 -0.7004
19834TIP3    H180993   0.732   1.100  16.434  1.2183  0.5702 -0.1373
19834TIP3    H280994   0.603   1.066  16.506  0.7145 -1.1164 -1.7657
19835TIP3   OH280995   1.392   2.414  27.553 -0.1118  0.3802  0.0622
19835TIP3    H180996   1.360   2.463  27.477 -0.0159 -0.0772 -0.2818
19835TIP3    H280997   1.341   2.333  27.552  0.2900  0.1238  0.1523
19836TIP3   OH280998   0.943   1.732  89.299 -0.4954  0.1454 -0.6771
19836TIP3    H180999   0.890   1.669  89.250 -0.5471  0.3103 -0.8310
19836TIP3    H281000   0.903   1.817  89.281 -0.0814  0.2930 -0.9342
19837TIP3   OH281001   0.901   0.457  57.666  0.5774  0.2252 -0.1069
19837TIP3    H181002   0.874   0.515  57.737  1.7469  1.3662 -0.5400
19837TIP3    H281003   0.986   0.491  57.639  0.6299 -0.8211 -1.3648
19838TIP3   OH281004   1.240   2.543  96.810  0.1234 -0.3991  0.1901
19838TIP3    H181005   1.268   2.581  96.727  0.7240 -2.9466 -0.8466
19838TIP3    H281006   1.164   2.595  96.836 -1.5130 -0.9034 -3.1070
19839TIP3   OH281007   0.007   0.840  94.812 -0.3647 -0.2980  0.7491
19839TIP3    H181008   0.056   0.909  94.858 -0.4480 -0.5445  1.2100
19839TIP3    H281009  -0.012   0.775  94.879  0.1435 -1.0202  0.2131
19840TIP3   OH281010   0.806   1.067  76.228 -0.4593 -0.5382 -0.6022
19840TIP3    H181011   0.854   1.003  76.281 -1.2728 -0.2900  0.4774
19840TIP3    H281012   0.720   1.073  76.270 -0.7456  0.4982 -1.2997
19841TIP3   OH281013   2.636   2.228  77.332  0.2510 -0.4103  0.5900
19841TIP3    H181014   2.699   2.193  77.396 -0.1952 -0.8883  0.7778
19841TIP3    H281015   2.649   2.174  77.254  1.1514  0.5071  0.0901
19842TIP3   OH281016   0.223   0.770  47.603 -0.9454  0.0598 -0.3034
19842TIP3    H181017   0.192   0.734  47.520 -4.0658  0.7968  0.4408
19842TIP3    H281018   0.243   0.862  47.584 -1.0440  0.0651 -0.3827
19843TIP3   OH281019   2.600   1.457  82.125 -0.3032  0.1078  0.2464
19843TIP3    H181020   2.599   1.443  82.220 -1.0350 -1.5348  0.0176
19843TIP3    H281021   2.586   1.551  82.115  1.1338  0.5394  1.7779
19844TIP3   OH281022   1.169   1.218  79.469  0.2627 -0.2638 -0.2476
19844TIP3    H181023   1.119   1.141  79.495  0.7878 -0.4431  0.2585
19844TIP3    H281024   1.201   1.197  79.381 -2.3493  0.7503 -1.5505
19845TIP3   OH281025   0.374   0.371 101.542  0.4858  0.5664 -0.4375
19845TIP3    H181026   0.464   0.344 101.561  0.1047 -0.4646 -0.0440
19845TIP3    H281027   0.338   0.299 101.490 -0.2127  0.8313 -0.3237
19846TIP3   OH281028   0.280   2.096  95.437 -0.0600 -0.1191 -0.1136
19846TIP3    H181029   0.324   2.035  95.496  0.0055 -1.2906 -1.3217
19846TIP3    H281030   0.282   2.053  95.352 -0.9433  1.1287 -0.8050
19847TIP3   OH281031   0.146   0.898 107.176  0.2933  0.2262  0.1517
19847TIP3    H181032   0.217   0.924 107.236 -0.5861  1.4233  0.7302
19847TIP3    H281033   0.137   0.804 107.189  0.6353  0.3422  1.3480
19848TIP3   OH281034   2.454   1.084  93.497  0.3609 -0.3808  0.7720
19848TIP3    H181035   2.406   1.001  93.498 -0.5451  0.0876 -0.5411
19848TIP3    H281036   2.408   1.137  93.432  1.1798  1.0056  1.2847
19849TIP3   OH281037   0.090   1.601  94.029  0.8447  0.1826 -0.3229
19849TIP3    H181038   0.041   1.524  94.000 -0.6427  0.7682  0.5519
19849TIP3    H281039   0.036   1.675  94.004  3.0647  1.1238 -2.7459
19850TIP3   OH281040   0.231   0.529  88.722 -0.0759  0.0258 -0.1616
19850TIP3    H181041   0.272   0.445  88.741 -0.4670  0.4783  3.4264
19850TIP3    H281042   0.139   0.509  88.706  0.2590 -0.3796 -1.7737
19851TIP3   OH281043   0.940   0.166  24.590  0.0948 -0.0972  0.4133
19851TIP3    H181044   0.946   0.209  24.505  0.1916  0.6921  0.8103
19851TIP3    H281045   0.933   0.073  24.570 -0.9506  0.1641 -0.4859
19852TIP3   OH281046   1.586   1.089  10.509 -0.4656  0.3515 -0.0756
19852TIP3    H181047   1.515   1.135  10.465  0.7972  1.9151 -0.5574
19852TIP3    H281048   1.598   1.009  10.458 -1.7535  0.1337 -0.0731
19853TIP3   OH281049   1.344   0.227  12.198  0.2265 -0.4897 -0.1410
19853TIP3    H181050   1.328   0.321  12.205  0.1284 -0.6447  2.5022
19853TIP3    H281051   1.419   0.210  12.255  2.2004 -1.6553 -2.8493
19854TIP3   OH281052   1.782   0.499  17.192  0.6234 -0.2121  0.2593
19854TIP3    H181053   1.791   0.522  17.099  1.5971  0.2411  0.4531
19854TIP3    H281054   1.690   0.517  17.212  0.3616 -0.4759 -0.6562
19855TIP3   OH281055   1.263   1.431  52.474  0.5853  0.7063  0.1536
19855TIP3    H181056   1.305   1.472  52.398 -0.9249  1.1923 -0.4627
19855TIP3    H281057   1.239   1.505  52.531 -0.2730  0.5388  0.0285
19856TIP3   OH281058   1.742   1.386  16.630 -0.7672  0.1526 -0.3343
19856TIP3    H181059   1.676   1.361  16.694 -1.2820 -0.9414 -1.2491
19856TIP3    H281060   1.707   1.355  16.546  1.1583 -0.9913 -0.7828
19857TIP3   OH281061   0.225   0.652 109.413 -0.1090  0.1739 -0.2312
19857TIP3    H181062   0.312   0.674 109.445 -0.0972  0.3007 -0.3541
19857TIP3    H281063   0.219   0.692 109.326  0.1122 -0.7489 -0.6848
19858TIP3   OH281064   2.603   1.770  92.136 -0.4295  0.1356  0.1254
19858TIP3    H181065   2.640   1.738  92.219 -1.9866  1.3747  1.3768
19858TIP3    H281066   2.668   1.831  92.102 -0.0008  0.0200  0.7225
19859TIP3   OH281067   2.137   0.559  33.577 -0.0546  0.0299 -0.1236
19859TIP3    H181068   2.080   0.572  33.653 -0.1453 -0.4224 -0.1084
19859TIP3    H281069   2.226   0.566  33.613 -0.0964 -0.2115  0.0304
19860TIP3   OH281070   0.405   0.551  97.112 -0.2961  0.0705  0.1327
19860TIP3    H181071   0.434   0.544  97.021  0.2678 -1.1867  0.3956
19860TIP3    H281072   0.465   0.614  97.152  1.6738 -1.9415  0.4761
19861TIP3   OH281073   2.618   1.388   7.561 -0.6374 -0.4402  0.1249
19861TIP3    H181074   2.534   1.352   7.533 -0.9719  0.8681 -0.6128
19861TIP3    H281075   2.672   1.386   7.482 -0.0487 -1.0219  0.5303
19862TIP3   OH281076   2.373   0.428   1.799 -0.4363 -0.0868 -0.1297
19862TIP3    H181077   2.389   0.411   1.706 -1.6782  1.1926 -0.6132
19862TIP3    H281078   2.460   0.443   1.836  0.1437 -1.3356 -0.9114
19863TIP3   OH281079   0.479   0.312  86.617  0.1480 -1.0399 -0.4662
19863TIP3    H181080   0.456   0.295  86.525  0.4184 -1.9903 -0.3592
19863TIP3    H281081   0.568   0.279  86.627 -0.5953 -2.8497  0.6486
19864TIP3   OH281082   1.710   2.012 101.655 -0.8264 -0.0775  0.0537
19864TIP3    H181083   1.619   1.985 101.671 -0.3983 -0.8478  1.4553
19864TIP3    H281084   1.749   1.937 101.610 -1.3168  1.0010 -2.3170
19865TIP3   OH281085   0.879   0.467 105.040 -0.1837 -0.4360  0.3294
19865TIP3    H181086   0.889   0.385 105.089  0.7013 -0.8280 -0.4675
19865TIP3    H281087   0.900   0.536 105.102 -0.1320 -0.8592  0.7840
19866TIP3   OH281088   1.528   1.664  33.048  0.1288 -0.1159 -0.5399
19866TIP3    H181089   1.508   1.640  33.139 -0.0289  2.3855  0.1575
19866TIP3    H281090   1.459   1.727  33.025 -0.1145 -1.0656 -2.5964
19867TIP3   OH281091   0.194   2.401 112.058  0.2815 -0.2772  0.3227
19867TIP3    H181092   0.134   2.420 112.130  0.0939 -0.2162  0.1533
19867TIP3    H281093   0.247   2.328 112.090  0.2196 -0.2307  0.5332
19868TIP3   OH281094   0.789   1.395  11.523  0.2892 -0.2257 -0.1263
19868TIP3    H181095   0.742   1.479  11.521 -1.5609 -1.1653  1.0438
19868TIP3    H281096   0.838   1.397  11.605  0.7992 -0.0377 -0.4278
19869TIP3   OH281097   0.370   0.394  95.842 -0.3026 -0.2498 -0.1413
19869TIP3    H181098   0.322   0.318  95.875  0.1533 -0.5019 -0.0554
19869TIP3    H281099   0.330   0.469  95.886 -0.1034 -0.5283  0.5263
19870TIP3   OH281100   1.638   1.296   5.760  0.0466 -0.4775 -0.5812
19870TIP3    H181101   1.632   1.313   5.854  0.8576 -1.0286 -0.4191
19870TIP3    H281102   1.680   1.374   5.724 -2.0207  0.6272 -0.8154
19871TIP3   OH281103   2.447   2.093  32.461 -0.0928 -0.4133  0.2882
19871TIP3    H181104   2.536   2.093  32.426 -0.0130 -2.3223  0.4104
19871TIP3    H281105   2.394   2.132  32.392  0.7034 -0.0765 -0.1414
19872TIP3   OH281106   1.122   0.468  27.580  0.0561 -0.6062  0.2100
19872TIP3    H181107   1.061   0.407  27.622 -3.0814  1.0912 -1.5153
19872TIP3    H281108   1.091   0.474  27.489  0.1581  3.4286  0.2509
19873TIP3   OH281109   1.913   1.256  35.598 -0.6930  0.4532 -0.1210
19873TIP3    H181110   1.860   1.195  35.649 -0.7841  0.2220 -0.4844
19873TIP3    H281111   1.856   1.283  35.527 -0.4785  0.5624 -0.2533
19874TIP3   OH281112   2.505   2.032  90.851  0.6675  0.4273 -0.0435
19874TIP3    H181113   2.484   2.089  90.777 -0.8610  2.3267  1.7549
19874TIP3    H281114   2.508   1.944  90.813 -3.4523  0.8579 -1.8319
19875TIP3   OH281115   2.290   2.349  29.422  0.2951 -0.0404  0.4433
19875TIP3    H181116   2.255   2.358  29.511  0.6109 -0.1720  0.5813
19875TIP3    H281117   2.339   2.430  29.408 -0.0996  0.1692  0.2273
19876TIP3   OH281118   2.108   2.625  85.271 -0.5000 -0.2118 -0.6759
19876TIP3    H181119   2.036   2.666  85.318 -0.7527 -1.5436  0.1687
19876TIP3    H281120   2.146   2.563  85.334  1.3102  0.3630 -1.1422
19877TIP3   OH281121   2.338   0.579  38.178  0.5232  0.3032 -0.1171
19877TIP3    H181122   2.412   0.576  38.238  0.1647 -0.4565  0.3087
19877TIP3    H281123   2.286   0.654  38.208  0.1661 -0.2698  0.7695
19878TIP3   OH281124   1.113   1.908  73.153  0.1813  0.3361 -0.2731
19878TIP3    H181125   1.171   1.971  73.111  2.6469 -1.0211  0.8313
19878TIP3    H281126   1.092   1.948  73.238  1.6377 -0.1649  0.3751
19879TIP3   OH281127   0.800   1.678 102.216  0.0365 -0.1705 -0.1308
19879TIP3    H181128   0.843   1.737 102.277  2.0566 -0.7010 -0.9709
19879TIP3    H281129   0.814   1.717 102.130  1.9827 -2.0836 -0.7810
19880TIP3   OH281130   1.471   0.982  20.105 -0.3700 -0.1002  0.0676
19880TIP3    H181131   1.393   1.025  20.072 -0.4356  0.6623  1.1586
19880TIP3    H281132   1.443   0.891  20.120 -0.8677  0.0163 -0.1288
19881TIP3   OH281133   1.113   2.356 104.428  0.4797  0.4632 -0.3188
19881TIP3    H181134   1.067   2.285 104.384 -0.0377  0.3105  0.4504
19881TIP3    H281135   1.205   2.343 104.407  0.3793 -0.3877 -0.2472
19882TIP3   OH281136   0.700   1.716   0.192 -0.2485 -0.2944  0.4930
19882TIP3    H181137   0.648   1.692   0.269  0.9093  0.2828  1.4894
19882TIP3    H281138   0.655   1.791   0.154 -0.6319 -0.3631  0.8130
19883TIP3   OH281139   1.015   0.103 106.178 -0.1674  0.1189  0.1487
19883TIP3    H181140   0.969   0.154 106.245  0.0280  1.7462 -0.8907
19883TIP3    H281141   1.108   0.117 106.196 -0.1121  0.5744 -0.4332
19884TIP3   OH281142   0.459   1.235  19.220  0.4330  0.4552 -0.1176
19884TIP3    H181143   0.402   1.192  19.156  0.3453 -0.2505  0.4272
19884TIP3    H281144   0.452   1.181  19.299  2.0828  0.2031 -0.1267
19885TIP3   OH281145   1.014   0.995  89.132 -0.6081 -0.3142  0.0150
19885TIP3    H181146   0.972   0.975  89.049  1.0656 -0.1327 -0.9185
19885TIP3    H281147   1.055   1.081  89.119  1.8771 -1.4060  0.0902
19886TIP3   OH281148   0.930   1.734  82.515  0.8637  0.6075  0.3079
19886TIP3    H181149   0.943   1.641  82.535 -0.3519  0.1984 -0.6430
19886TIP3    H281150   0.902   1.734  82.423 -0.1230  1.8155  0.5872
19887TIP3   OH281151   0.175   2.009  31.254 -0.2250 -0.2638 -0.2565
19887TIP3    H181152   0.175   1.955  31.175  1.0681 -1.2755  0.4006
19887TIP3    H281153   0.114   1.966  31.313  0.0486 -0.4470 -0.1051
19888TIP3   OH281154   1.855   2.278   9.192 -0.1583  0.2164 -0.3596
19888TIP3    H181155   1.760   2.270   9.201 -0.2367 -0.9482 -1.8327
19888TIP3    H281156   1.889   2.264   9.280 -1.3030 -0.1234  0.0461
19889TIP3   OH281157   1.674   1.298   2.682  0.6391 -0.0316 -0.0706
19889TIP3    H181158   1.763   1.284   2.650 -0.4677 -1.3887 -2.9208
19889TIP3    H281159   1.658   1.225   2.741  0.4631 -1.6092 -1.9722
19890TIP3   OH281160   0.427   1.478 105.157  0.3274  0.1739 -0.3197
19890TIP3    H181161   0.514   1.443 105.176  0.5567  0.4897 -0.7742
19890TIP3    H281162   0.381   1.405 105.115  0.1970 -0.1606  0.3991
19891TIP3   OH281163   0.352   0.237  88.689  0.6220 -0.1124 -0.0872
19891TIP3    H181164   0.366   0.145  88.666 -1.6268 -0.6802  0.5624
19891TIP3    H281165   0.314   0.234  88.777  0.1078  1.3979 -0.2283
19892TIP3   OH281166   1.744   0.402  76.192  0.4961  0.3724 -0.2670
19892TIP3    H181167   1.836   0.380  76.205  0.0359 -0.3465  2.4119
19892TIP3    H281168   1.699   0.318  76.184 -0.1044  0.6527  0.0353
19893TIP3   OH281169   2.557   0.703  27.108 -0.2405  0.5274 -0.3202
19893TIP3    H181170   2.550   0.794  27.078  1.0702  0.4919 -0.8199
19893TIP3    H281171   2.576   0.653  27.029  0.5313  0.0388  0.1567
19894TIP3   OH281172   1.581   0.760   4.001  0.1540 -0.3111 -0.3656
19894TIP3    H181173   1.621   0.726   4.081 -1.1206 -1.4969 -0.1909
19894TIP3    H281174   1.559   0.851   4.022  0.2333 -0.4769  0.4821
19895TIP3   OH281175   2.149   1.871   7.392 -0.4216  0.6502  0.0506
19895TIP3    H181176   2.121   1.938   7.455  0.0306  1.7999 -0.9292
19895TIP3    H281177   2.243   1.886   7.380 -0.3091 -0.1741 -0.1774
19896TIP3   OH281178   0.431   2.605   8.421 -0.8037 -0.3602 -0.1008
19896TIP3    H181179   0.404   2.691   8.454  0.4647  0.2783 -0.6700
19896TIP3    H281180   0.412   2.608   8.327  1.5943  0.2959 -0.6178
19897TIP3   OH281181   1.601   2.400   3.094 -0.6799 -0.4699  0.3315
19897TIP3    H181182   1.682   2.348   3.095  1.1146  2.0989  0.2432
19897TIP3    H281183   1.601   2.444   3.179 -1.3306  0.4543 -0.1325
19898TIP3   OH281184   0.860   0.989  84.543  0.1352  0.1036  0.4131
19898TIP3    H181185   0.850   0.919  84.608 -2.4374  0.0071  0.0036
19898TIP3    H281186   0.816   1.064  84.582  0.1087  0.5650 -0.4882
19899TIP3   OH281187   0.325   0.903  68.229  0.1487  0.8645 -0.2287
19899TIP3    H181188   0.271   0.900  68.150 -1.6699  1.5761  0.9255
19899TIP3    H281189   0.364   0.816  68.236 -2.7397 -0.4953  0.1086
19900TIP3   OH281190   1.833   2.356  10.288 -0.0368 -0.2360 -0.0946
19900TIP3    H181191   1.784   2.402  10.357  0.3855  1.3869 -0.8398
19900TIP3    H281192   1.844   2.420  10.219 -0.4854 -1.8441 -1.7397
19901TIP3   OH281193   2.535   0.624  86.373 -0.0217  0.2569 -0.2252
19901TIP3    H181194   2.513   0.698  86.429 -1.0405 -0.0827 -0.1708
19901TIP3    H281195   2.574   0.663  86.295 -1.3790  0.9096 -0.5910
19902TIP3   OH281196   2.282   1.480   4.826 -0.0119  0.2396  0.6769
19902TIP3    H181197   2.215   1.547   4.817  0.8559  1.1653  0.8640
19902TIP3    H281198   2.360   1.518   4.784  0.8490 -0.1023  1.8893
19903TIP3   OH281199   0.292   0.887  58.686 -0.2123 -0.1408 -0.0465
19903TIP3    H181200   0.310   0.979  58.705 -0.5890  0.1115 -0.8381
19903TIP3    H281201   0.199   0.877  58.701  0.1109 -0.8355  1.6909
19904TIP3   OH281202   1.670   0.497  96.738  0.0522 -0.3098 -0.3291
19904TIP3    H181203   1.624   0.415  96.755 -1.0107  0.3504  0.0644
19904TIP3    H281204   1.752   0.489  96.787 -0.5760 -0.6537  0.7087
19905TIP3   OH281205   0.113   2.364   0.747  0.0399  0.3613  0.5048
19905TIP3    H181206   0.139   2.276   0.718  0.8314  0.8856 -0.4611
19905TIP3    H281207   0.049   2.392   0.682  0.9787  1.1068 -0.1208
19906TIP3   OH281208   2.157   0.625  14.256 -0.8224 -0.3826 -0.6698
19906TIP3    H181209   2.090   0.677  14.211 -0.9962  1.0735  1.1576
19906TIP3    H281210   2.108   0.574  14.320 -0.3328 -0.3535 -0.2636
19907TIP3   OH281211   0.301   1.614  90.453 -0.3980  0.7740 -0.6978
19907TIP3    H181212   0.388   1.628  90.416  0.7277  0.9715  1.7880
19907TIP3    H281213   0.261   1.548  90.397  2.1151 -0.7723 -0.8108
19908TIP3   OH281214   0.593   2.283 101.540 -0.2798 -0.0145  0.4331
19908TIP3    H181215   0.517   2.294 101.482 -0.5687  1.1559  0.9942
19908TIP3    H281216   0.635   2.202 101.510  0.0891  0.9735 -1.9817
19909TIP3   OH281217   0.838   2.489  86.533  0.3993 -0.3759  0.2780
19909TIP3    H181218   0.901   2.440  86.586  0.0750  0.0855  1.0935
19909TIP3    H281219   0.863   2.581  86.545  0.2165 -0.2546 -0.2430
19910TIP3   OH281220   1.447   0.799 105.903  0.3047  0.2961 -0.4567
19910TIP3    H181221   1.523   0.744 105.925 -0.2534 -0.5163 -0.5596
19910TIP3    H281222   1.371   0.743 105.917 -0.2493  0.8607 -1.1263
19911TIP3   OH281223   1.517   0.874  31.729 -0.2492 -0.0136  0.7271
19911TIP3    H181224   1.505   0.823  31.649 -0.2131  0.5425  0.3605
19911TIP3    H281225   1.595   0.927  31.713 -1.3506  1.5700  0.3198
19912TIP3   OH281226   1.712   2.126  75.604  0.2411  0.5898  0.5061
19912TIP3    H181227   1.709   2.043  75.558 -1.5658  0.3745  0.9443
19912TIP3    H281228   1.765   2.109  75.682 -2.3824 -1.0000  2.0785
19913TIP3   OH281229   1.625   2.647  19.213 -0.3652  0.1376  0.0145
19913TIP3    H181230   1.630   2.558  19.181 -1.7227 -0.2612  0.7934
19913TIP3    H281231   1.707   2.688  19.186 -0.6638 -0.6593 -2.3560
19914TIP3   OH281232   0.732   0.746 103.349  0.3682  0.2020  0.0348
19914TIP3    H181233   0.712   0.671 103.293 -0.4128  0.2493  0.2306
19914TIP3    H281234   0.825   0.737 103.370  0.0847 -1.2521  0.8386
19915TIP3   OH281235   1.772   2.467  30.740  0.3215 -0.2477 -0.0583
19915TIP3    H181236   1.693   2.465  30.686  0.4760  1.5477 -0.3934
19915TIP3    H281237   1.795   2.375  30.752 -1.2087 -0.7601 -0.8427
19916TIP3   OH281238   0.769   0.605  98.743 -0.2707 -0.2077 -0.0129
19916TIP3    H181239   0.860   0.607  98.771  0.3004 -0.2884 -1.7786
19916TIP3    H281240   0.771   0.565  98.656 -1.9975 -0.2423 -0.0763
19917TIP3   OH281241   0.626   1.795  28.882 -0.1906 -0.2263 -0.2449
19917TIP3    H181242   0.659   1.885  28.884  0.3407 -0.4213  0.0003
19917TIP3    H281243   0.555   1.797  28.818  1.1292 -0.0680 -1.7892
19918TIP3   OH281244   1.854   0.581   5.935 -0.4460 -0.5846  0.7418
19918TIP3    H181245   1.923   0.588   5.870 -0.1504 -3.4344  0.6045
19918TIP3    H281246   1.824   0.671   5.949  1.7221  0.4715 -0.8519
19919TIP3   OH281247   0.629   1.627 100.033  0.1951  0.3578 -0.5641
19919TIP3    H181248   0.707   1.645  99.980  0.3700  0.3282 -0.3192
19919TIP3    H281249   0.557   1.631  99.971  0.4949 -0.7167 -1.0065
19920TIP3   OH281250   2.420   1.049  84.314 -0.2303 -0.2033  0.2878
19920TIP3    H181251   2.491   1.075  84.255  0.7453  0.0319  1.5339
19920TIP3    H281252   2.346   1.105  84.289  0.1065 -0.2163 -0.7984
19921TIP3   OH281253   1.606   1.029 100.192 -0.0500 -0.0206  0.2060
19921TIP3    H181254   1.690   1.074 100.187 -0.9689  1.7751  0.2621
19921TIP3    H281255   1.555   1.063 100.118 -1.2903  0.1798  1.1154
19922TIP3   OH281256   0.473   0.834  98.756 -0.5642 -0.2831  0.3816
19922TIP3    H181257   0.489   0.913  98.807 -1.4533  1.0226 -1.2299
19922TIP3    H281258   0.554   0.784  98.761  0.3519  1.1771  0.7180
19923TIP3   OH281259   0.575   1.678 101.864 -0.3732 -0.4414 -0.2821
19923TIP3    H181260   0.575   1.768 101.896  1.0415 -0.5190 -0.0193
19923TIP3    H281261   0.658   1.641 101.895 -0.7402 -1.7061 -0.7466
19924TIP3   OH281262   1.922   2.136  96.536  0.1178  0.2985  0.1402
19924TIP3    H181263   1.846   2.192  96.521  1.5460  2.0043 -1.0735
19924TIP3    H281264   1.935   2.089  96.454  2.4015  2.7066 -1.0399
19925TIP3   OH281265   0.639   0.587   6.622  0.3736 -0.4907  0.5717
19925TIP3    H181266   0.632   0.665   6.567  0.5454 -0.9133 -0.0623
19925TIP3    H281267   0.712   0.537   6.584 -0.1524 -1.2722  0.5498
19926TIP3   OH281268   0.791   1.463 101.958 -0.2438 -0.3567 -0.3536
19926TIP3    H181269   0.840   1.527 101.905 -0.8083  0.0340 -0.4077
19926TIP3    H281270   0.857   1.422 102.013  0.4635 -1.1787 -1.7585
19927TIP3   OH281271   2.459   2.217  86.314  0.5562 -0.5173 -0.4958
19927TIP3    H181272   2.532   2.277  86.326 -0.0432  0.1994 -0.3909
19927TIP3    H281273   2.438   2.187  86.402 -0.0073  0.1676 -0.3831
19928TIP3   OH281274   1.769   0.084  10.288 -0.0755 -0.0168  0.0030
19928TIP3    H181275   1.748   0.146  10.358  0.1574 -0.5244  0.5293
19928TIP3    H281276   1.759   0.135  10.207  0.8794  0.9271  0.4501
19929TIP3   OH281277   0.163   1.704 110.488 -0.6004 -0.0633  0.2087
19929TIP3    H181278   0.184   1.646 110.561 -1.1735 -0.1756  0.2850
19929TIP3    H281279   0.248   1.731 110.453 -0.2332  1.5376  2.1416
19930TIP3   OH281280   1.813   1.695  47.093 -0.8750 -0.4550 -0.0036
19930TIP3    H181281   1.871   1.691  47.017  0.5105  0.7472  0.9325
19930TIP3    H281282   1.785   1.787  47.097 -1.5168 -0.6660  0.5185
19931TIP3   OH281283   0.994   1.964  78.008 -0.5325 -0.4708  0.0806
19931TIP3    H181284   0.900   1.946  78.016 -0.4818 -0.5067  0.6307
19931TIP3    H281285   1.036   1.885  78.041 -0.3056 -0.2385  0.3470
19932TIP3   OH281286   0.490   1.754  13.354  0.1556 -0.0454  0.2406
19932TIP3    H181287   0.555   1.801  13.406  1.7669  0.6071 -2.1666
19932TIP3    H281288   0.421   1.819  13.337  0.2376  0.1131  0.5208
19933TIP3   OH281289   0.452   1.988 108.525  0.3997  0.0121 -0.0131
19933TIP3    H181290   0.450   2.080 108.550  0.2603 -0.5769  2.4341
19933TIP3    H281291   0.360   1.965 108.511  0.5622  0.6453 -2.5495
19934TIP3   OH281292   1.120   1.307  22.683 -0.0375 -0.4356 -0.0081
19934TIP3    H181293   1.205   1.300  22.639  0.5650 -1.5419  1.2415
19934TIP3    H281294   1.057   1.276  22.618  0.8541 -2.2533 -0.0848
19935TIP3   OH281295   1.534   0.561 101.980 -0.5887  0.1520  0.4189
19935TIP3    H181296   1.528   0.582 102.073 -0.2257 -0.3227  0.5583
19935TIP3    H281297   1.601   0.620 101.947 -1.4609  1.0647  0.2222
19936TIP3   OH281298   1.173   0.475   7.739  0.1141  0.1659  0.7279
19936TIP3    H181299   1.088   0.449   7.773  0.0977  0.5719  1.0047
19936TIP3    H281300   1.229   0.399   7.754 -0.3134 -0.2817  0.1011
19937TIP3   OH281301   1.307   0.936  85.541 -0.3850  0.0628 -0.6800
19937TIP3    H181302   1.402   0.930  85.548 -0.2933  1.4240 -0.4936
19937TIP3    H281303   1.276   0.939  85.632 -0.5273  0.6425 -0.7479
19938TIP3   OH281304   2.318   2.416  23.421  0.1651 -0.0802  0.2377
19938TIP3    H181305   2.300   2.498  23.467 -1.4220 -0.1772 -0.1660
19938TIP3    H281306   2.409   2.425  23.392  0.1445  1.3693  0.5334
19939TIP3   OH281307   2.116   0.245  84.504  0.5956 -0.4503 -0.6433
19939TIP3    H181308   2.158   0.239  84.589  0.1184 -1.9619 -0.4909
19939TIP3    H281309   2.040   0.301  84.519  1.5944  0.9290 -0.5503
19940TIP3   OH281310   0.525   2.480  36.839 -0.6823  0.3663 -0.2699
19940TIP3    H181311   0.479   2.400  36.865 -2.1142  1.7077  1.5595
19940TIP3    H281312   0.548   2.466  36.747  0.5680 -2.7952  0.3834
19941TIP3   OH281313   0.691   1.896  81.815 -0.1472  0.2810 -0.1853
19941TIP3    H181314   0.687   1.900  81.719  0.6262  0.7168 -0.2094
19941TIP3    H281315   0.726   1.982  81.841 -0.4917  0.2193  0.4967
19942TIP3   OH281316   1.831   0.513  17.504  0.5683 -0.0846 -0.0865
19942TIP3    H181317   1.816   0.531  17.411 -1.3837 -0.9661 -0.0041
19942TIP3    H281318   1.926   0.504  17.512  0.9593  1.8864 -1.6114
19943TIP3   OH281319   0.728   0.167  13.576  0.3000 -0.0566  0.4134
19943TIP3    H181320   0.704   0.171  13.483  0.8323  0.5379  0.2918
19943TIP3    H281321   0.769   0.080  13.586 -0.6863 -0.5431  0.3365
19944TIP3   OH281322   0.920   1.839  10.120  0.2244 -0.2574 -0.4970
19944TIP3    H181323   0.895   1.770  10.059 -0.3782 -0.9111  0.4509
19944TIP3    H281324   0.903   1.920  10.073 -4.1329 -0.5951  0.0595
19945TIP3   OH281325   0.870   0.741  80.409  0.4123 -0.0335  0.2442
19945TIP3    H181326   0.798   0.714  80.466  1.1081  1.5549  1.9775
19945TIP3    H281327   0.829   0.801  80.347  0.3048  1.5332  1.7494
19946TIP3   OH281328   2.058   1.930  95.110  0.2623  0.4393 -0.0278
19946TIP3    H181329   1.974   1.935  95.156  0.5860  0.4173  0.5699
19946TIP3    H281330   2.068   1.838  95.087  0.5165  0.2938  0.6489
19947TIP3   OH281331   2.478   1.503 104.825 -0.1989  0.0431  0.0198
19947TIP3    H181332   2.490   1.420 104.780 -3.3575 -0.5357  0.0011
19947TIP3    H281333   2.414   1.484 104.894  0.7286  1.9883  1.5183
19948TIP3   OH281334   0.354   1.689  24.956 -0.1217  0.8263  0.3609
19948TIP3    H181335   0.302   1.653  25.027  0.2053  1.1652  0.7755
19948TIP3    H281336   0.309   1.660  24.876 -0.3229  0.1978  0.6959
19949TIP3   OH281337   2.145   1.846  83.152 -0.1295 -0.2957  0.4195
19949TIP3    H181338   2.064   1.794  83.156  0.9171 -2.0886 -0.3697
19949TIP3    H281339   2.175   1.850  83.243 -1.5661  1.2326  0.8748
19950TIP3   OH281340   1.418   1.263  10.075 -0.4341 -0.1776 -0.3390
19950TIP3    H181341   1.473   1.298  10.004 -0.7217  0.3927 -0.2890
19950TIP3    H281342   1.471   1.194  10.114  0.4525  0.6567 -0.0105
19951TIP3   OH281343   0.294   2.168  92.578 -0.5557 -0.0606 -0.1427
19951TIP3    H181344   0.230   2.230  92.612 -1.0201  0.0838 -1.2579
19951TIP3    H281345   0.252   2.083  92.586 -0.3714 -0.1114  0.3238
19952TIP3   OH281346   1.778   0.163  21.633  0.3480  0.4537 -0.4273
19952TIP3    H181347   1.768   0.251  21.599  0.2957  0.2784 -0.8788
19952TIP3    H281348   1.866   0.136  21.604  0.8409  0.7833  0.7071
19953TIP3   OH281349   1.154   0.198  79.991  0.3835 -0.2085  0.7917
19953TIP3    H181350   1.087   0.231  79.931  0.9900  0.3446  0.3909
19953TIP3    H281351   1.180   0.114  79.954 -0.1012 -0.4281  0.9558
19954TIP3   OH281352   2.605   0.558   8.281 -0.1107  0.3493  0.3515
19954TIP3    H181353   2.614   0.542   8.187 -1.1929  2.4984 -0.1819
19954TIP3    H281354   2.685   0.523   8.319  0.3955 -0.4895 -1.3787
19955TIP3   OH281355   1.606   1.268  93.201  0.2018 -0.0670  0.2628
19955TIP3    H181356   1.621   1.261  93.107  0.1023  0.4987  0.1980
19955TIP3    H281357   1.639   1.355  93.224  1.1735 -0.5986  0.9359
19956TIP3   OH281358   1.502   1.685  95.096  0.1703 -0.3590  0.0721
19956TIP3    H181359   1.588   1.659  95.128 -0.2425 -1.0495  0.6795
19956TIP3    H281360   1.517   1.717  95.008  1.1333  0.1097  0.3887
19957TIP3   OH281361   1.110   1.728  78.489  0.7950  0.0891 -0.3805
19957TIP3    H181362   1.083   1.743  78.580 -1.7807 -0.4840 -0.9922
19957TIP3    H281363   1.206   1.733  78.492  0.9313 -1.9637  2.7481
19958TIP3   OH281364   0.709   2.423  26.931 -0.2171  0.9561  0.0382
19958TIP3    H181365   0.770   2.453  26.864  0.2214  1.5717  0.7000
19958TIP3    H281366   0.764   2.378  26.995 -0.6504  0.2490 -0.0723
19959TIP3   OH281367   2.246   1.985  36.220 -0.5850 -0.3052  0.6494
19959TIP3    H181368   2.291   1.946  36.145  0.5795 -0.3892  1.3704
19959TIP3    H281369   2.153   1.983  36.195 -0.1531  0.6191 -1.2160
19960TIP3   OH281370   2.649   1.935  86.378 -0.3679  0.1731  0.2134
19960TIP3    H181371   2.602   1.935  86.294  0.9765 -3.1772 -0.6950
19960TIP3    H281372   2.733   1.893  86.359  0.5887  0.6062  2.9915
19961TIP3   OH281373   0.267   0.584  33.492  0.3377 -0.1543  0.3578
19961TIP3    H181374   0.213   0.512  33.525  0.6524 -1.1608 -1.1975
19961TIP3    H281375   0.215   0.662  33.507 -1.0749 -0.9777 -0.0595
19962TIP3   OH281376   0.361   1.667   0.620  0.9285 -0.4859 -0.1535
19962TIP3    H181377   0.365   1.648   0.713  0.5643  1.1790  0.2214
19962TIP3    H281378   0.291   1.610   0.587  1.0591 -1.0835  0.5729
19963TIP3   OH281379   2.043   2.037 106.489  0.0660 -0.0132 -0.1317
19963TIP3    H181380   1.993   2.064 106.565 -0.5244  1.5361 -1.0225
19963TIP3    H281381   1.977   2.006 106.427  0.3485  0.4835 -0.6963
19964TIP3   OH281382   1.223   2.408  85.629 -0.6435  0.2101 -0.5950
19964TIP3    H181383   1.247   2.344  85.697 -1.3671 -1.0452 -1.4620
19964TIP3    H281384   1.301   2.462  85.617  1.1417 -2.4265 -1.8987
19965TIP3   OH281385   0.578   2.342  77.218 -0.0952  0.0064 -0.1549
19965TIP3    H181386   0.592   2.247  77.224 -2.3974 -0.4270 -0.5447
19965TIP3    H281387   0.493   2.356  77.260  0.5116  2.0213  0.5138
19966TIP3   OH281388   0.498   0.819  99.142  0.1528  0.3801  0.1565
19966TIP3    H181389   0.554   0.789  99.213  0.4201 -0.6036 -0.4368
19966TIP3    H281390   0.528   0.770  99.065  0.2552  1.8464 -0.7767
19967TIP3   OH281391   0.096   2.237  92.964 -0.0041 -0.6097 -0.2825
19967TIP3    H181392   0.126   2.318  93.006  0.1030  0.1814 -1.8141
19967TIP3    H281393   0.023   2.265  92.908  1.0245 -1.2733 -2.0234
19968TIP3   OH281394   0.432   1.428  82.226 -0.5764 -0.1506 -0.1254
19968TIP3    H181395   0.441   1.425  82.321 -1.5830 -0.2237 -0.0136
19968TIP3    H281396   0.501   1.371  82.193  1.7602  2.1600  0.3890
19969TIP3   OH281397   0.467   0.414  21.582 -0.0883 -0.5664 -0.2014
19969TIP3    H181398   0.533   0.379  21.523  1.3312 -0.1086  1.0354
19969TIP3    H281399   0.432   0.490  21.536 -0.6172 -1.4931 -1.3700
19970TIP3   OH281400   1.711   1.756  86.686 -0.1974 -0.4028 -0.6559
19970TIP3    H181401   1.675   1.670  86.707 -0.2943  0.0629  1.3569
19970TIP3    H281402   1.800   1.739  86.657 -0.0621 -1.1701  0.1643
19971TIP3   OH281403   2.352   0.774 106.181 -0.1739 -0.3066 -0.1245
19971TIP3    H181404   2.381   0.729 106.102  0.0698  1.5393 -1.1299
19971TIP3    H281405   2.425   0.764 106.242 -0.2468 -1.4974 -0.2154
19972TIP3   OH281406   1.904   1.728  15.027 -0.3319  0.1898  0.4481
19972TIP3    H181407   1.959   1.662  14.986 -1.7472 -0.7516 -0.0016
19972TIP3    H281408   1.877   1.785  14.955 -1.6238 -0.5976  0.2804
19973TIP3   OH281409   2.638   2.473  83.508 -0.4853  0.6274 -0.4322
19973TIP3    H181410   2.731   2.451  83.508 -0.5549  0.2842  0.4178
19973TIP3    H281411   2.599   2.417  83.441 -0.3970 -0.7207  0.6095
19974TIP3   OH281412   2.553   1.682  93.465 -0.9455 -0.0931  0.2900
19974TIP3    H181413   2.586   1.638  93.386 -1.8618  1.0855 -0.7826
19974TIP3    H281414   2.615   1.657  93.533 -0.7513 -2.0587 -0.5312
19975TIP3   OH281415   0.018   0.359  21.823  0.0141  0.5735  0.3220
19975TIP3    H181416   0.047   0.439  21.780  0.4066  0.5324  0.4988
19975TIP3    H281417   0.099   0.307  21.832 -0.3919 -0.3063 -0.7615
19976TIP3   OH281418   2.366   0.065  14.338 -0.1927 -0.4050  0.1706
19976TIP3    H181419   2.363  -0.009  14.399 -0.6843  0.2573  0.9648
19976TIP3    H281420   2.358   0.025  14.251  2.3750 -1.5489  0.3690
19977TIP3   OH281421   2.606   0.708  81.547 -0.3689 -0.4158  0.8692
19977TIP3    H181422   2.671   0.643  81.520 -0.4697 -0.2309  0.1679
19977TIP3    H281423   2.580   0.680  81.634  0.0175 -0.9913  0.8051
19978TIP3   OH281424   0.322   0.057  15.080 -0.1865  0.0025 -0.1552
19978TIP3    H181425   0.231   0.086  15.081 -0.0483  0.6305  2.6970
19978TIP3    H281426   0.323  -0.016  15.018 -2.5548  0.1912 -0.5046
19979TIP3   OH281427   2.228   0.589  33.292  0.1223 -0.2190 -0.0713
19979TIP3    H181428   2.185   0.539  33.223  1.2656 -1.0911 -0.1936
19979TIP3    H281429   2.260   0.668  33.248  0.5725 -0.6244 -0.4922
19980TIP3   OH281430   2.373   0.151  32.734 -0.3961 -0.4182  0.0639
19980TIP3    H181431   2.287   0.192  32.731 -1.1501 -1.9098  0.2346
19980TIP3    H281432   2.403   0.165  32.824 -0.4639  0.0909  0.0078
19981TIP3   OH281433   0.424   0.119  90.060 -0.4626 -0.2241 -0.1787
19981TIP3    H181434   0.345   0.163  90.028 -0.2685  0.2860  0.0451
19981TIP3    H281435   0.392   0.058  90.126 -0.9031 -1.4662 -1.4709
19982TIP3   OH281436   1.991   1.932  28.750  0.2610  0.4110 -0.0138
19982TIP3    H181437   2.038   1.955  28.830 -0.3117  2.5043 -0.2161
19982TIP3    H281438   1.905   1.972  28.760 -0.4563 -0.8150 -0.9314
19983TIP3   OH281439   1.125   0.228  22.432 -0.1819 -0.0950  0.0935
19983TIP3    H181440   1.117   0.158  22.367  1.7513  0.3013 -0.6329
19983TIP3    H281441   1.177   0.189  22.503 -0.4705  0.1283  0.4320
19984TIP3   OH281442   0.437   2.258  91.434 -0.1663 -0.2419 -0.6306
19984TIP3    H181443   0.505   2.318  91.404 -0.4273  1.6287  2.0927
19984TIP3    H281444   0.409   2.211  91.356  3.1062  0.0506 -2.1056
19985TIP3   OH281445   1.323   2.671  81.450 -0.1372 -0.3048 -0.0323
19985TIP3    H181446   1.289   2.720  81.525  0.1421  0.1216 -0.1755
19985TIP3    H281447   1.277   2.587  81.452 -0.8547  0.0851  0.0379
19986TIP3   OH281448   0.227   0.445  37.450 -0.1999 -0.2545  0.4912
19986TIP3    H181449   0.230   0.492  37.367 -0.0492 -1.5796 -0.2951
19986TIP3    H281450   0.283   0.368  37.436 -1.6066 -1.4686  1.1829
19987TIP3   OH281451   1.642   1.982   5.673  0.1718 -0.5642 -0.0424
19987TIP3    H181452   1.555   1.953   5.648  0.8344 -1.9636 -0.8747
19987TIP3    H281453   1.701   1.923   5.626  1.5574 -0.2274  1.2101
19988TIP3   OH281454   0.549   1.580  28.482  0.2378 -0.5052  0.0854
19988TIP3    H181455   0.490   1.634  28.535  1.5644 -0.3287  1.4311
19988TIP3    H281456   0.490   1.527  28.428 -1.1225  2.1783 -1.2543
19989TIP3   OH281457   1.392   0.681   9.529  0.4680  0.7128 -0.5711
19989TIP3    H181458   1.311   0.707   9.572  1.3458  0.0892  1.5779
19989TIP3    H281459   1.364   0.631   9.452 -1.2190 -0.2964  0.6376
19990TIP3   OH281460   2.179   0.739  89.642  0.1398 -0.1140 -0.0100
19990TIP3    H181461   2.186   0.814  89.701 -0.0924 -0.3740  0.3479
19990TIP3    H281462   2.112   0.684  89.682  1.0864 -1.0560  0.3097
19991TIP3   OH281463   1.833   0.457  78.924  0.5829 -0.0494  0.5928
19991TIP3    H181464   1.865   0.511  78.852 -0.6100  0.2559  0.2590
19991TIP3    H281465   1.849   0.367  78.896 -1.7643 -0.0446 -1.0738
19992TIP3   OH281466   2.164   1.914 104.090 -0.0553 -0.1847  0.0759
19992TIP3    H181467   2.141   1.981 104.154  0.1752  0.3537 -0.4006
19992TIP3    H281468   2.193   1.963 104.013  2.3591 -0.7746  0.5028
19993TIP3   OH281469   1.801   1.007   0.676 -0.1812  0.5465  0.0532
19993TIP3    H181470   1.765   0.985   0.590  0.6411  0.0317 -0.1690
19993TIP3    H281471   1.741   0.966   0.739 -0.4143  0.3635 -0.2887
19994TIP3   OH281472   2.506   0.413  28.211 -0.0732 -0.1935  0.1710
19994TIP3    H181473   2.517   0.325  28.248  1.1030  0.3337  1.1401
19994TIP3    H281474   2.545   0.407  28.124  0.2678 -0.5536  0.3440
19995TIP3   OH281475   1.258   0.035  87.591  0.1814  0.0415  0.3207
19995TIP3    H181476   1.275  -0.048  87.546  0.7833 -0.6290  1.7092
19995TIP3    H281477   1.344   0.077  87.598 -0.1045  0.7653 -0.2909
19996TIP3   OH281478   0.650   1.365 105.985  0.1750 -0.2124  0.1007
19996TIP3    H181479   0.631   1.409 105.903 -0.9982  0.0128  0.4749
19996TIP3    H281480   0.678   1.277 105.960  3.1094  0.8250 -0.6932
19997TIP3   OH281481   1.020   1.703 107.519 -0.1002  0.0310  0.7676
19997TIP3    H181482   1.073   1.772 107.479 -0.0603 -0.1443  0.5164
19997TIP3    H281483   1.082   1.632 107.536 -0.2130 -0.0885  0.6831
19998TIP3   OH281484   0.492   2.685  26.821 -0.2425 -0.2051 -0.0206
19998TIP3    H181485   0.586   2.684  26.804  0.2604  1.1790  2.2280
19998TIP3    H281486   0.482   2.631  26.900 -1.0677  1.0010  0.7230
19999TIP3   OH281487   2.601   1.875  88.627  0.8864  0.1799 -0.3610
19999TIP3    H181488   2.617   1.876  88.722  0.2736 -1.0334 -0.2076
19999TIP3    H281489   2.679   1.835  88.590  0.2060 -1.4691 -0.1059
20000TIP3   OH281490   0.543   1.992   6.808  0.3354 -0.1495 -0.1603
20000TIP3    H181491   0.545   1.910   6.857 -0.5400  0.9919  1.9040
20000TIP3    H281492   0.463   1.988   6.756 -0.4818 -0.0223  1.0572
20001TIP3   OH281493   1.700   1.301   9.349 -0.8484 -0.1401  0.0561
20001TIP3    H181494   1.666   1.225   9.301 -0.0154 -1.0230  0.8348
20001TIP3    H281495   1.644   1.374   9.320 -1.3718 -0.9452 -1.0484
20002TIP3   OH281496   0.004   1.093   4.813  0.2608  0.2217 -0.3135
20002TIP3    H181497  -0.033   1.179   4.796  0.0425  0.1172 -0.3690
20002TIP3    H281498   0.093   1.111   4.843 -0.0520  0.5018  0.4645
20003TIP3   OH281499   1.940   2.093  15.828 -0.1637  0.0472  0.3454
20003TIP3    H181500   1.999   2.152  15.875  1.6318  0.2495 -1.9894
20003TIP3    H281501   1.853   2.132  15.840  0.8321  2.6762 -0.2863
20004TIP3   OH281502   2.018   1.635  97.469 -0.2437  0.1573 -0.4143
20004TIP3    H181503   1.951   1.658  97.405 -0.3243  0.2619 -0.2915
20004TIP3    H281504   2.085   1.590  97.417 -0.9287 -0.9737 -0.3692
20005TIP3   OH281505   0.068   0.071 108.747  0.5730  0.4531  0.2140
20005TIP3    H181506   0.002   0.021 108.699 -0.1072  1.1726  0.3850
20005TIP3    H281507   0.027   0.157 108.762  0.2019 -0.1457  3.2515
20006TIP3   OH281508   1.380   2.360  20.235  0.4086 -0.3008  0.2986
20006TIP3    H181509   1.395   2.396  20.322  1.7841 -1.0976  0.4129
20006TIP3    H281510   1.406   2.268  20.242  0.5246 -0.3802 -0.9471
20007TIP3   OH281511   0.927   0.004  90.402  0.2231 -0.3298 -0.7389
20007TIP3    H181512   0.962   0.029  90.316  1.7274  0.4533  0.0767
20007TIP3    H281513   0.878   0.081  90.431 -0.0379 -0.4870 -0.7554
20008TIP3   OH281514   0.093   1.118   6.919  0.1725  0.1587 -0.5822
20008TIP3    H181515   0.020   1.059   6.937 -0.2852  0.5924 -0.9694
20008TIP3    H281516   0.136   1.131   7.003  1.1720 -1.8694 -0.7141
20009TIP3   OH281517   2.259   0.574 103.491 -0.2630  0.5092 -0.0370
20009TIP3    H181518   2.242   0.665 103.518 -0.8347  0.4536 -0.1912
20009TIP3    H281519   2.346   0.555 103.526 -0.1435  1.1104  0.0208
20010TIP3   OH281520   0.135   1.692  92.989  0.5509  0.1450  0.2661
20010TIP3    H181521   0.057   1.670  92.939  1.2360 -0.6741 -0.4590
20010TIP3    H281522   0.132   1.788  92.996 -0.0607  0.1956 -0.4953
20011TIP3   OH281523   2.022   0.478  83.603 -0.0245 -0.6148  0.5841
20011TIP3    H181524   2.017   0.543  83.673 -0.6548 -0.8711  0.7766
20011TIP3    H281525   2.046   0.529  83.525 -0.0279 -0.2262  0.8306
20012TIP3   OH281526   1.200   0.751 103.042  0.6461  0.5110 -0.1390
20012TIP3    H181527   1.179   0.699 102.964 -2.2919 -0.7371  1.3225
20012TIP3    H281528   1.179   0.841 103.017 -2.1933 -0.1033 -0.3020
20013TIP3   OH281529   1.231   2.422 106.141  0.3274 -0.2513  0.0384
20013TIP3    H181530   1.297   2.356 106.120  0.0885 -0.3547 -0.3988
20013TIP3    H281531   1.274   2.505 106.121  0.2101 -0.3339 -0.5866
20014TIP3   OH281532   0.010   0.595  92.298 -0.2753 -0.1551  0.0861
20014TIP3    H181533  -0.052   0.614  92.227  0.9397  0.5198 -0.8404
20014TIP3    H281534  -0.022   0.645  92.373 -0.4352  0.7957 -0.6065
20015TIP3   OH281535   1.913   0.324  77.043  0.1652 -0.2149  0.3694
20015TIP3    H181536   1.840   0.306  77.102 -1.2144 -0.8438 -1.4274
20015TIP3    H281537   1.965   0.243  77.044  0.3174 -0.1121  0.9438
20016TIP3   OH281538   2.066   0.559  31.157 -0.0176 -0.1575 -0.1905
20016TIP3    H181539   1.971   0.554  31.151 -0.0381  0.0501 -0.0746
20016TIP3    H281540   2.083   0.569  31.251  0.1162 -0.1214 -0.2183
20017TIP3   OH281541   0.487   0.711  12.095 -0.5656  0.1351 -0.2360
20017TIP3    H181542   0.519   0.738  12.009  0.3549 -0.3541 -0.0679
20017TIP3    H281543   0.392   0.721  12.091 -0.4488  0.9375 -1.0133
20018TIP3   OH281544   0.357   1.547  10.728 -0.3406  0.3480 -0.0022
20018TIP3    H181545   0.366   1.504  10.813  0.4110  0.1794 -0.1679
20018TIP3    H281546   0.438   1.596  10.716 -1.4598  2.4623  0.5235
20019TIP3   OH281547   2.349   0.593  93.184 -0.1830 -0.0673  0.3401
20019TIP3    H181548   2.333   0.687  93.183  0.5983  0.1181  1.8840
20019TIP3    H281549   2.379   0.572  93.095 -1.2354  0.9524 -0.2763
20020TIP3   OH281550   1.523   1.173  75.573  0.1111  0.6581 -0.2469
20020TIP3    H181551   1.560   1.089  75.544 -0.6041  0.4432 -0.5671
20020TIP3    H281552   1.472   1.204  75.498 -0.8925  0.6130  0.3969
20021TIP3   OH281553   0.232   2.228  75.130 -0.5702 -0.2653  0.0747
20021TIP3    H181554   0.254   2.201  75.041 -0.2262  0.0741  0.0507
20021TIP3    H281555   0.168   2.164  75.160 -1.5871  0.2849 -0.8339
20022TIP3   OH281556   0.953   1.001  88.584 -0.2193  0.1351  0.3920
20022TIP3    H181557   0.869   1.038  88.556 -0.7645 -1.9830 -0.9880
20022TIP3    H281558   1.009   1.009  88.507 -0.3269 -1.7201  0.0912
20023TIP3   OH281559   0.112   2.635  19.574  0.2603  0.1773  0.0444
20023TIP3    H181560   0.101   2.662  19.483 -2.7533  0.3753  0.3530
20023TIP3    H281561   0.072   2.548  19.578 -0.6135  0.6034  1.3377
20024TIP3   OH281562   0.880   1.589  14.618 -0.5696 -0.3685 -0.3243
20024TIP3    H181563   0.940   1.584  14.692 -1.0441  0.2698  0.1105
20024TIP3    H281564   0.845   1.500  14.609 -1.0373 -0.2922  0.6624
20025TIP3   OH281565   0.537   2.640  22.827 -0.1727  0.4379  0.4411
20025TIP3    H181566   0.579   2.688  22.898 -1.4586  1.0293  0.8094
20025TIP3    H281567   0.499   2.707  22.771 -1.3182 -0.1019  0.5458
20026TIP3   OH281568   1.358   2.562  34.419  0.0314  0.3565 -0.1914
20026TIP3    H181569   1.345   2.470  34.396  0.0731  0.8915 -2.5946
20026TIP3    H281570   1.424   2.561  34.488  0.0262 -1.4074 -0.1866
20027TIP3   OH281571   1.706   1.706 100.815 -0.5246 -0.0545 -0.3232
20027TIP3    H181572   1.799   1.695 100.796 -0.6782  0.4406 -1.4094
20027TIP3    H281573   1.663   1.638 100.764 -0.9195  1.1259 -1.6142
20028TIP3   OH281574   0.249   0.471  79.446  0.8572 -0.0713 -0.5444
20028TIP3    H181575   0.189   0.449  79.375 -0.6292  3.3816 -0.5323
20028TIP3    H281576   0.283   0.557  79.423  1.8545  0.2927  1.9922
20029TIP3   OH281577   2.102   0.986  74.629 -0.2554 -0.1093 -0.4631
20029TIP3    H181578   2.079   1.071  74.666 -0.5914 -1.1377  1.8696
20029TIP3    H281579   2.182   1.003  74.579 -0.1270  1.5288  0.2290
20030TIP3   OH281580   1.241   0.558  57.002 -0.3228  0.3579 -0.3053
20030TIP3    H181581   1.270   0.503  57.075 -0.8772  0.8190  0.2771
20030TIP3    H281582   1.284   0.642  57.017 -1.8585  1.0279  0.5357
20031TIP3   OH281583   1.793   0.249  11.591  0.0429  0.4156  0.0790
20031TIP3    H181584   1.786   0.314  11.521  1.2466 -0.9049 -1.3248
20031TIP3    H281585   1.716   0.265  11.646 -1.6516  0.6831 -2.2306
20032TIP3   OH281586   2.041   1.158 110.041  0.3297  0.0356 -0.0708
20032TIP3    H181587   1.973   1.150 110.108  0.1303 -1.1795 -0.3971
20032TIP3    H281588   2.023   1.243 110.000 -0.5155  0.0771  0.3493
20033TIP3   OH281589   0.360   1.522  93.872  0.0084 -0.5836  0.7532
20033TIP3    H181590   0.361   1.524  93.776  1.0102 -1.0222  0.7455
20033TIP3    H281591   0.275   1.485  93.894 -0.0076 -1.0018  0.0200
20034TIP3   OH281592   0.377   2.626  86.641 -0.3826 -0.7932 -0.1364
20034TIP3    H181593   0.378   2.698  86.705 -1.5283 -1.3257  0.5195
20034TIP3    H281594   0.428   2.557  86.681 -0.9221 -1.0490  0.1264
20035TIP3   OH281595   1.316   1.285  99.894  0.5332  0.4001 -0.0534
20035TIP3    H181596   1.277   1.322  99.974  0.9645 -0.2241  0.4615
20035TIP3    H281597   1.243   1.240  99.851  0.5771 -0.4612  0.7247
20036TIP3   OH281598   0.600   0.297  11.747  0.1193  0.6353 -0.5943
20036TIP3    H181599   0.629   0.283  11.837 -2.4575 -0.8745  0.1226
20036TIP3    H281600   0.672   0.265  11.693  0.6643 -0.9597  0.9824
20037TIP3   OH281601   1.857   1.637 107.637 -0.3772 -0.0475 -0.2358
20037TIP3    H181602   1.771   1.618 107.676  0.1523 -0.6541  0.6639
20037TIP3    H281603   1.849   1.609 107.546 -0.7932 -1.1481  0.1241
20038TIP3   OH281604   2.185   2.536  19.972 -0.1193 -0.4274 -0.1621
20038TIP3    H181605   2.139   2.567  19.893  0.4763  0.3598 -0.2124
20038TIP3    H281606   2.270   2.580  19.969 -0.2683  0.0056  1.1722
20039TIP3   OH281607   0.624   0.194   9.962 -0.6575  0.3448  0.1100
20039TIP3    H181608   0.629   0.256   9.889  1.6632  1.3033  0.9935
20039TIP3    H281609   0.550   0.137   9.940 -1.6005  2.1614 -1.7264
20040TIP3   OH281610   2.243   1.527  36.534 -0.2789 -0.2792 -0.5917
20040TIP3    H181611   2.306   1.575  36.480 -1.3266  0.3359 -1.3037
20040TIP3    H281612   2.171   1.506  36.475 -1.6090  0.6798  0.6232
20041TIP3   OH281613   1.084   2.123  19.405  0.1947  0.2751 -0.1367
20041TIP3    H181614   1.033   2.201  19.384 -0.1032 -0.1207 -0.9364
20041TIP3    H281615   1.161   2.156  19.452  0.3657  1.1124 -0.9758
20042TIP3   OH281616   1.861   0.557  83.964 -0.0190  0.4330 -0.2535
20042TIP3    H181617   1.956   0.549  83.957 -0.1360 -0.9468 -0.5368
20042TIP3    H281618   1.827   0.508  83.890 -0.9614  3.7727 -2.2736
20043TIP3   OH281619   2.292   0.843  62.912 -0.0931  0.2888  0.2524
20043TIP3    H181620   2.210   0.824  62.865  0.2342 -1.2244  0.2712
20043TIP3    H281621   2.360   0.833  62.846  0.5338 -3.3684  1.2485
20044TIP3   OH281622   0.138   2.216  14.954 -0.1081 -0.2619 -0.2679
20044TIP3    H181623   0.146   2.291  14.895  0.1276 -0.2749 -0.2543
20044TIP3    H281624   0.228   2.194  14.977 -0.1863 -0.4164 -0.1035
20045TIP3   OH281625   0.014   0.568 106.790 -0.0745 -0.4349  0.5236
20045TIP3    H181626   0.071   0.645 106.798  1.0355 -1.0411 -1.0531
20045TIP3    H281627   0.053   0.503 106.849  0.4623 -0.6151 -0.0282
20046TIP3   OH281628   0.792   1.981  98.970 -0.2530  0.0371  0.3608
20046TIP3    H181629   0.841   1.925  99.031 -0.2085 -1.2478 -0.8155
20046TIP3    H281630   0.721   1.925  98.938 -0.7918  0.9773 -0.1320
20047TIP3   OH281631   0.622   2.427  63.505  0.0459 -0.1321  0.6741
20047TIP3    H181632   0.560   2.419  63.432 -0.7831 -1.2306  1.4695
20047TIP3    H281633   0.639   2.337  63.532  1.3380  0.1936  1.0462
20048TIP3   OH281634   0.779   0.391 105.371  0.4990  0.6475  0.4076
20048TIP3    H181635   0.723   0.462 105.340 -0.9090 -0.2515  0.8082
20048TIP3    H281636   0.719   0.319 105.390  1.7874 -0.3327  0.9339
20049TIP3   OH281637   1.005   0.741  31.869  0.0743  0.8412  0.0936
20049TIP3    H181638   1.010   0.688  31.790  0.0748  1.6596 -0.4641
20049TIP3    H281639   1.079   0.802  31.863  0.8859  0.0309  1.3903
20050TIP3   OH281640   1.423   0.253  37.153  0.3898  0.0347 -0.4573
20050TIP3    H181641   1.497   0.308  37.178  0.3369  0.2689 -0.8034
20050TIP3    H281642   1.444   0.223  37.064  0.1497 -0.0313 -0.4928
20051TIP3   OH281643   1.462   0.018   7.848  0.0007  0.4674 -0.6458
20051TIP3    H181644   1.512   0.020   7.930  1.0611  1.1717 -1.2785
20051TIP3    H281645   1.429  -0.071   7.843  1.5034 -0.1469 -0.3459
20052TIP3   OH281646   0.514   0.566  82.185 -0.2639  0.4541 -0.0493
20052TIP3    H181647   0.555   0.576  82.271 -0.3434  0.2697  0.0115
20052TIP3    H281648   0.428   0.529  82.203 -0.7548  1.5238 -0.1246
20053TIP3   OH281649   1.290   2.447 109.198  0.2432 -0.7582 -0.0079
20053TIP3    H181650   1.255   2.535 109.183  1.6023 -0.4620 -1.6626
20053TIP3    H281651   1.327   2.451 109.287 -1.0491 -0.1535  0.5266
20054TIP3   OH281652   1.563   1.496  23.529 -0.4561  0.2502 -0.1862
20054TIP3    H181653   1.571   1.441  23.451  2.5098 -2.3472  1.6611
20054TIP3    H281654   1.470   1.491  23.553 -0.6994 -2.2538 -1.3533
20055TIP3   OH281655   1.170   1.504  95.715 -0.4659  0.1355 -0.1492
20055TIP3    H181656   1.197   1.504  95.624 -2.3715  0.5522 -0.7500
20055TIP3    H281657   1.150   1.412  95.735  1.0429 -0.1428  0.2346
20056TIP3   OH281658   2.667   0.794   3.681  0.1629 -0.3386  0.2501
20056TIP3    H181659   2.756   0.808   3.649 -1.0537  0.5574 -3.1577
20056TIP3    H281660   2.657   0.858   3.752  1.8609  0.3221 -0.0409
20057TIP3   OH281661   0.638   1.694 106.691 -0.3613  0.3666 -0.4629
20057TIP3    H181662   0.600   1.745 106.620 -0.8504  1.1330  0.3346
20057TIP3    H281663   0.572   1.697 106.761  0.1931 -0.2107  0.0973
20058TIP3   OH281664   0.421   1.403  11.618  0.4111  0.2211  0.6427
20058TIP3    H181665   0.383   1.317  11.605  2.3029 -0.5211 -0.5603
20058TIP3    H281666   0.441   1.408  11.711 -1.4014  0.1539  1.0621
20059TIP3   OH281667   1.716   0.255  15.739 -0.2080 -0.0362  0.2597
20059TIP3    H181668   1.769   0.179  15.760 -0.8913 -0.8598 -0.8869
20059TIP3    H281669   1.632   0.219  15.709 -0.5154  1.1468 -0.3952
20060TIP3   OH281670   1.055   2.593  16.867  0.1792 -0.2852  0.3288
20060TIP3    H181671   1.129   2.625  16.919 -0.5533  0.5988  0.8423
20060TIP3    H281672   1.037   2.664  16.805 -0.2262 -0.5132  0.1833
20061TIP3   OH281673   1.139   0.656  89.963  0.4032 -0.1439  0.3690
20061TIP3    H181674   1.070   0.702  90.010  0.7526 -0.2198  0.9605
20061TIP3    H281675   1.135   0.692  89.874  0.8611  1.2463  0.8927
20062TIP3   OH281676   1.611   1.312  95.294  0.4517  0.5469 -0.1238
20062TIP3    H181677   1.552   1.269  95.355  0.5521  0.4380 -0.1062
20062TIP3    H281678   1.553   1.359  95.234  0.1872 -1.7291 -1.7887
20063TIP3   OH281679   0.105   0.713  82.436 -0.5143 -0.0127 -0.0845
20063TIP3    H181680   0.075   0.640  82.490 -0.1719  0.9900  1.5635
20063TIP3    H281681   0.130   0.674  82.353  0.5460 -1.9099  1.0615
20064TIP3   OH281682   0.111   2.528  48.272 -1.1333 -0.1465  0.0491
20064TIP3    H181683   0.193   2.490  48.303 -1.7722  0.0083  2.1350
20064TIP3    H281684   0.068   2.458  48.224 -1.4803 -1.5809  2.2710
20065TIP3   OH281685   0.900   0.417 108.863 -0.2809  0.4542  0.7066
20065TIP3    H181686   0.985   0.459 108.855  0.6802 -0.8952  2.8257
20065TIP3    H281687   0.855   0.466 108.932 -1.8929  2.0531 -1.3424
20066TIP3   OH281688   2.181   0.939  94.398  0.3278 -0.0743  0.0647
20066TIP3    H181689   2.227   0.888  94.465  1.7133  0.2208 -0.6162
20066TIP3    H281690   2.177   0.881  94.323  1.3036  0.5371 -0.4868
20067TIP3   OH281691   2.570   0.441  77.109 -0.2878 -1.1612 -0.1451
20067TIP3    H181692   2.521   0.452  77.190 -1.0974 -1.7318 -0.5473
20067TIP3    H281693   2.582   0.530  77.075  1.4899 -0.7537  1.3971
20068TIP3   OH281694   1.575   2.391  78.256 -0.2200  0.0800 -0.3384
20068TIP3    H181695   1.525   2.322  78.299 -1.6115  0.6453 -0.9968
20068TIP3    H281696   1.647   2.345  78.212 -0.4823 -0.8129  0.1507
20069TIP3   OH281697   1.452   1.083  83.102  0.3341 -0.1437 -1.3396
20069TIP3    H181698   1.360   1.058  83.117  0.2827  0.6196 -0.3162
20069TIP3    H281699   1.501   1.038  83.170  0.8065 -0.9092 -2.1569
20070TIP3   OH281700   2.431   0.120  91.365  0.1821 -0.0934 -0.2587
20070TIP3    H181701   2.337   0.114  91.346 -0.1014 -1.6843  1.3977
20070TIP3    H281702   2.453   0.212  91.350 -1.6101  0.2863 -0.7415
20071TIP3   OH281703   0.547   0.276  15.447 -0.3186 -0.3026  0.2443
20071TIP3    H181704   0.463   0.319  15.460 -1.5840 -1.7186 -2.3483
20071TIP3    H281705   0.524   0.191  15.409  2.2788 -0.1229 -2.0812
20072TIP3   OH281706   2.527   2.272 111.867  0.7647  0.3717  0.4397
20072TIP3    H181707   2.487   2.357 111.885 -1.9217 -0.8257  0.6677
20072TIP3    H281708   2.612   2.292 111.828  0.3890  3.1233  0.8743
20073TIP3   OH281709   1.704   0.577  23.022  0.4378 -0.1593 -0.0012
20073TIP3    H181710   1.692   0.586  23.117  0.4148 -3.8760  0.5096
20073TIP3    H281711   1.793   0.610  23.006  1.3083 -1.4673  1.7659
20074TIP3   OH281712   1.011   1.810   1.972 -0.4148 -0.4997  0.1094
20074TIP3    H181713   1.046   1.887   2.018 -1.4198  1.3492 -2.0318
20074TIP3    H281714   0.958   1.765   2.037 -0.3187  0.9720  1.2540
20075TIP3   OH281715   0.825   0.289  23.156  0.3344 -0.4704  0.2713
20075TIP3    H181716   0.749   0.329  23.200 -0.2176 -0.5095 -0.6275
20075TIP3    H281717   0.815   0.195  23.173  0.7178 -0.3990  0.9599
20076TIP3   OH281718   1.323   2.243  32.609 -0.6096 -0.1026  0.2542
20076TIP3    H181719   1.277   2.174  32.658 -1.4203 -0.7913 -1.4136
20076TIP3    H281720   1.415   2.224  32.623 -0.8234 -1.3107  0.1267
20077TIP3   OH281721   0.665   1.359   5.638 -0.3479 -0.0743  0.5006
20077TIP3    H181722   0.715   1.315   5.706 -0.1470  0.2206  0.5440
20077TIP3    H281723   0.695   1.318   5.556 -0.0107  0.1185  0.5231
20078TIP3   OH281724   2.246   0.027 109.378 -0.1307 -0.1138  0.0600
20078TIP3    H181725   2.237  -0.064 109.350 -0.3081 -0.4237  1.0649
20078TIP3    H281726   2.266   0.021 109.472 -1.2413  0.8975  0.3878
20079TIP3   OH281727   1.527   0.423  25.074 -0.2410  0.0981  0.1054
20079TIP3    H181728   1.620   0.399  25.070  0.0134  0.9749  0.4553
20079TIP3    H281729   1.501   0.400  25.163 -0.2460  0.2249  0.1367
20080TIP3   OH281730   0.443   0.411  89.398  0.0955 -0.1618  0.0036
20080TIP3    H181731   0.502   0.464  89.451  0.1638 -1.4889  1.3288
20080TIP3    H281732   0.361   0.411  89.447  0.2547 -1.6704  0.3245
20081TIP3   OH281733   0.750   1.387  29.043  0.1919 -0.0384 -0.2109
20081TIP3    H181734   0.712   1.468  29.078 -0.8969 -0.5419 -0.2025
20081TIP3    H281735   0.770   1.335  29.121  2.0670  0.7030 -0.1475
20082TIP3   OH281736   0.702   2.653   5.006  0.3502 -0.2536  0.5547
20082TIP3    H181737   0.720   2.592   5.077 -0.3427 -0.4449  0.5754
20082TIP3    H281738   0.780   2.650   4.951  0.4280 -0.9505  0.7009
20083TIP3   OH281739   2.344   1.873  18.687  0.0607  0.0140  0.2607
20083TIP3    H181740   2.274   1.889  18.750  0.1690 -1.8171  0.9015
20083TIP3    H281741   2.299   1.864  18.603 -0.4078 -0.5403  0.5661
20084TIP3   OH281742   2.166   2.507 106.770  0.4792  0.3074 -0.3485
20084TIP3    H181743   2.221   2.429 106.766  0.8135  0.5261 -0.1822
20084TIP3    H281744   2.223   2.578 106.740  0.7038  0.7445  1.0109
20085TIP3   OH281745   0.694   2.056  19.069  0.5211 -0.4757  0.0318
20085TIP3    H181746   0.741   1.979  19.100  0.0733 -1.3533 -1.3658
20085TIP3    H281747   0.717   2.125  19.131 -0.6299 -2.1825  2.4893
20086TIP3   OH281748   0.063   1.960  77.410 -0.1067 -0.2285 -0.2102
20086TIP3    H181749   0.064   1.939  77.317 -0.8724 -1.7182  0.0970
20086TIP3    H281750   0.150   1.935  77.441  0.0429 -0.0182 -0.4479
20087TIP3   OH281751   1.640   0.049  82.672  0.2487 -0.3436 -0.4923
20087TIP3    H181752   1.632   0.145  82.673 -0.1581 -0.3497 -1.8573
20087TIP3    H281753   1.581   0.019  82.741 -1.7289  0.2799 -1.8383
20088TIP3   OH281754   1.601   0.890  14.171  0.1658 -0.4348 -0.5722
20088TIP3    H181755   1.591   0.931  14.085 -0.0202  0.4091 -0.1561
20088TIP3    H281756   1.674   0.937  14.212 -1.0714  0.6011  0.5292
20089TIP3   OH281757   2.489   0.606  79.080 -0.0724 -0.7477  0.1883
20089TIP3    H181758   2.459   0.617  79.170  2.1819  0.1423  0.9029
20089TIP3    H281759   2.499   0.511  79.069  1.6779 -0.7838  1.6591
20090TIP3   OH281760   1.482   1.296 101.078 -0.2296 -0.6574 -0.3239
20090TIP3    H181761   1.408   1.238 101.061 -0.6872  0.5766 -3.3941
20090TIP3    H281762   1.463   1.336 101.163 -1.7730 -2.1955  0.1071
20091TIP3   OH281763   1.510   1.697  31.210  0.1061  0.2433 -0.0326
20091TIP3    H181764   1.488   1.654  31.127 -0.1505  0.4270 -0.0619
20091TIP3    H281765   1.444   1.766  31.219  1.2106  1.4073 -0.5658
20092TIP3   OH281766   0.811   0.555  90.113  0.5309 -0.1904 -0.6205
20092TIP3    H181767   0.839   0.640  90.081  0.0129  0.1898 -0.0945
20092TIP3    H281768   0.737   0.531  90.056  0.7150 -0.3157 -0.8068
20093TIP3   OH281769   2.229   0.519   0.832 -0.1547 -0.6684 -0.4538
20093TIP3    H181770   2.219   0.584   0.901  1.6859 -0.4670 -0.3086
20093TIP3    H281771   2.229   0.435   0.879  0.9820 -0.5382 -0.1906
20094TIP3   OH281772   1.983   0.366  91.171 -0.1375 -0.1072 -0.1633
20094TIP3    H181773   1.922   0.313  91.223 -0.0295  0.7882  0.9151
20094TIP3    H281774   2.056   0.383  91.231 -0.0426  1.0199 -0.5907
20095TIP3   OH281775   1.070   2.350   0.059 -0.0788 -0.3081 -0.4502
20095TIP3    H181776   1.082   2.436   0.020 -1.8544  1.2624  2.1653
20095TIP3    H281777   1.003   2.308   0.005 -1.2551  1.1206 -0.1768
20096TIP3   OH281778   0.093   0.316  83.630  0.1492  0.5318 -0.5792
20096TIP3    H181779   0.166   0.259  83.606 -0.2872 -0.1637 -0.2889
20096TIP3    H281780   0.112   0.399  83.587  0.9287  0.2480 -0.8020
20097TIP3   OH281781   0.350   1.739 104.040 -0.6353  0.0149 -0.2593
20097TIP3    H181782   0.257   1.725 104.021 -1.2063  1.2640  1.3917
20097TIP3    H281783   0.360   1.834 104.040  0.7262 -0.1171 -0.7365
20098TIP3   OH281784   0.017   2.494  91.846  0.1554 -0.0701  0.2281
20098TIP3    H181785   0.100   2.477  91.802  0.6764 -0.9388  1.4962
20098TIP3    H281786  -0.050   2.481  91.778  0.8864 -1.9085 -0.1974
20099TIP3   OH281787   0.465   1.968 107.779 -0.1675 -0.6816  0.1101
20099TIP3    H181788   0.499   1.913 107.850 -1.3476 -0.1430  1.1287
20099TIP3    H281789   0.542   1.995 107.730  0.6895 -0.8949  1.3128
20100TIP3   OH281790   2.289   0.188  10.710  0.1339 -0.3658  0.4287
20100TIP3    H181791   2.357   0.212  10.646  0.4097 -1.6085  0.2129
20100TIP3    H281792   2.213   0.164  10.657  0.1282 -0.7064  0.5840
20101TIP3   OH281793   2.371   1.708  83.208 -0.3052 -0.4388 -0.2461
20101TIP3    H181794   2.292   1.728  83.157  0.4595  1.4050 -0.7816
20101TIP3    H281795   2.375   1.612  83.209 -1.9218 -0.5514 -1.1888
20102TIP3   OH281796   2.434   0.867  21.995 -0.3748 -0.0463 -0.2995
20102TIP3    H181797   2.402   0.951  21.961 -0.3982  0.2097  0.3389
20102TIP3    H281798   2.481   0.828  21.922 -0.7684  0.3102 -0.7501
20103TIP3   OH281799   2.168   2.377  31.298 -0.3095 -0.1753  0.3034
20103TIP3    H181800   2.162   2.351  31.390  1.8151  0.3391  0.6430
20103TIP3    H281801   2.234   2.318  31.261 -0.3497  0.3336 -0.6025
20104TIP3   OH281802   0.658   0.784  23.659  0.7786 -0.0743 -0.2542
20104TIP3    H181803   0.579   0.755  23.615  0.5632 -0.3560  0.3065
20104TIP3    H281804   0.726   0.779  23.592  0.1185  1.2637 -1.0685
20105TIP3   OH281805   0.564   1.403  95.752  0.4030 -0.3544  0.3871
20105TIP3    H181806   0.609   1.377  95.832 -0.0288 -1.8939  0.1546
20105TIP3    H281807   0.563   1.324  95.698 -0.7268  0.2160 -0.4807
20106TIP3   OH281808   0.228   1.905  85.505 -0.2180 -0.2252  0.1507
20106TIP3    H181809   0.221   1.936  85.415 -0.8772  2.2533  0.9627
20106TIP3    H281810   0.242   1.811  85.498  1.0149  0.0870 -2.5546
20107TIP3   OH281811   2.453   0.376  38.027 -0.1635  0.4546 -0.1469
20107TIP3    H181812   2.422   0.291  38.059 -1.2199  0.7406 -0.3807
20107TIP3    H281813   2.395   0.440  38.068  0.7077  1.0848  0.1248
20108TIP3   OH281814   2.354   1.709  19.788  0.1961  0.4186  0.0343
20108TIP3    H181815   2.322   1.795  19.761 -3.2137 -0.7208 -0.0126
20108TIP3    H281816   2.349   1.655  19.708 -1.1933 -0.6571  0.7909
20109TIP3   OH281817   1.892   2.443  31.804  0.4790 -0.7082 -0.1683
20109TIP3    H181818   1.937   2.381  31.862 -0.7918  0.3368  2.0362
20109TIP3    H281819   1.807   2.403  31.789  0.5456 -0.6316 -0.7615
20110TIP3   OH281820   2.387   2.020 107.145  0.1831 -0.3818 -0.0242
20110TIP3    H181821   2.479   2.003 107.166  0.1343 -1.3020 -0.5027
20110TIP3    H281822   2.386   2.031 107.050 -0.1077  0.3121  0.0567
20111TIP3   OH281823   1.509   2.610  26.120  0.2435  0.2379 -0.2488
20111TIP3    H181824   1.534   2.547  26.188 -0.6200 -0.3420 -0.4431
20111TIP3    H281825   1.425   2.576  26.087  0.5954  0.5725 -1.5227
20112TIP3   OH281826   1.177   0.038  37.049  0.2351  0.3522  0.0986
20112TIP3    H181827   1.219   0.042  37.135  0.8640 -0.5425 -0.1478
20112TIP3    H281828   1.205  -0.046  37.013  0.5896  1.0298 -1.2952
20113TIP3   OH281829   0.913   0.851  77.609  0.4791 -0.0961  0.0340
20113TIP3    H181830   0.850   0.783  77.589  0.1165  0.7404 -1.9076
20113TIP3    H281831   0.999   0.809  77.597  0.2626 -0.2738 -0.9328
20114TIP3   OH281832   1.679   2.550  92.231  0.8564  0.5053  0.3546
20114TIP3    H181833   1.686   2.513  92.319  0.2991  0.3924  0.3573
20114TIP3    H281834   1.651   2.476  92.176  2.6304  0.1963 -0.2144
20115TIP3   OH281835   1.302   2.220 105.805 -0.1998  0.1925  0.2785
20115TIP3    H181836   1.301   2.202 105.711 -0.1527  0.1112  0.2904
20115TIP3    H281837   1.210   2.234 105.828 -0.0495  2.2308 -0.1686
20116TIP3   OH281838   0.198   0.244  36.100 -0.1875 -0.4234  0.2146
20116TIP3    H181839   0.231   0.317  36.153 -0.3042  0.4783 -0.9015
20116TIP3    H281840   0.103   0.260  36.095 -0.1237 -0.2382 -0.6028
20117TIP3   OH281841   2.492   1.965   0.441  0.0690 -0.3119 -0.6017
20117TIP3    H181842   2.462   1.902   0.507 -0.8173  1.0237  0.3292
20117TIP3    H281843   2.579   1.991   0.472  0.1254 -0.5283 -0.5764
20118TIP3   OH281844   1.523   1.416  25.578 -0.1777  0.0099  0.3592
20118TIP3    H181845   1.608   1.429  25.537 -0.3176 -0.4658 -0.0880
20118TIP3    H281846   1.544   1.402  25.671  0.2456 -0.2519  0.2298
20119TIP3   OH281847   0.448   0.588 110.064 -0.3776  0.6973 -0.2947
20119TIP3    H181848   0.380   0.626 110.008 -0.3024  1.2772  0.0047
20119TIP3    H281849   0.527   0.638 110.043 -0.3995  1.0839  0.4967
20120TIP3   OH281850   0.091   1.058 109.217 -0.1771 -0.1164 -0.5078
20120TIP3    H181851   0.175   1.098 109.238 -0.4986  0.2511  0.1033
20120TIP3    H281852   0.064   1.014 109.298 -1.3603  1.1813 -0.1544
20121TIP3   OH281853   1.839   2.530  90.527  0.3328  0.0082  0.0657
20121TIP3    H181854   1.859   2.451  90.578 -0.4513  0.1308  0.5894
20121TIP3    H281855   1.751   2.555  90.555 -0.0527  0.1825 -1.2475
20122TIP3   OH281856   1.344   2.331  35.982  0.6579 -0.2390  0.1063
20122TIP3    H181857   1.363   2.338  36.075 -2.9079  0.4522  0.9493
20122TIP3    H281858   1.316   2.240  35.969  0.2800 -0.1035 -0.0629
20123TIP3   OH281859   0.141   1.394  30.972 -0.1971 -0.0418 -0.0353
20123TIP3    H181860   0.176   1.335  30.906 -2.1820  1.1276 -2.3214
20123TIP3    H281861   0.063   1.350  31.006 -0.3490  0.2468 -0.0025
20124TIP3   OH281862   1.018   1.615 112.145  0.6261 -0.5579 -0.0232
20124TIP3    H181863   1.037   1.522 112.157 -2.0643 -1.1680  0.0849
20124TIP3    H281864   0.991   1.645 112.231  1.6366  0.4130 -0.0206
20125TIP3   OH281865   0.166   2.250  27.245 -0.2083  0.4125  0.2677
20125TIP3    H181866   0.242   2.223  27.194 -0.1764  1.4610 -0.2774
20125TIP3    H281867   0.190   2.335  27.281 -1.0071  0.6233  0.3327
20126TIP3   OH281868   1.731   2.269  29.411  0.2775  0.4558 -0.3709
20126TIP3    H181869   1.658   2.252  29.351 -0.8726  2.6524  0.3139
20126TIP3    H281870   1.807   2.280  29.353  0.0704 -1.4647 -1.1147
20127TIP3   OH281871   1.982   0.255  76.204  0.0874 -0.0710  0.3858
20127TIP3    H181872   2.067   0.262  76.160 -0.3843 -3.5545 -1.3709
20127TIP3    H281873   1.972   0.162  76.222 -3.1300  0.3207  1.0924
20128TIP3   OH281874   1.676   2.265  63.631 -0.5270 -0.6651 -0.0709
20128TIP3    H181875   1.584   2.291  63.627 -0.3892 -0.1016  0.3062
20128TIP3    H281876   1.674   2.171  63.645 -1.0523 -0.5543  0.6167
20129TIP3   OH281877   0.130   1.515  62.762 -0.1130  0.7749 -0.3374
20129TIP3    H181878   0.145   1.561  62.679 -0.7177 -4.0898 -3.5947
20129TIP3    H281879   0.035   1.520  62.775 -0.4112 -0.7279 -1.6285
20130TIP3   OH281880   0.628   2.328  92.612 -0.0700  0.2852  0.1842
20130TIP3    H181881   0.692   2.396  92.592  0.9030 -0.6630 -0.0339
20130TIP3    H281882   0.643   2.260  92.546 -0.4599 -0.5095  0.8910
20131TIP3   OH281883   1.180   0.018  75.298 -0.0828 -0.5269  0.1711
20131TIP3    H181884   1.166   0.106  75.263 -2.4189 -0.7934  0.2690
20131TIP3    H281885   1.185   0.030  75.393  0.4094 -0.4364  0.1363
20132TIP3   OH281886   2.114   2.019  18.093  0.2507  0.2673 -0.0525
20132TIP3    H181887   2.083   2.038  18.005  0.9903  0.8082 -0.2128
20132TIP3    H281888   2.194   2.072  18.102  0.2478  0.1313  0.8940
20133TIP3   OH281889   0.774   1.313  35.814  0.0584  0.5181 -0.6312
20133TIP3    H181890   0.722   1.238  35.844  1.1354 -0.0553 -0.1348
20133TIP3    H281891   0.756   1.318  35.720 -2.2629  1.4643 -0.2055
20134TIP3   OH281892   1.917   2.432  90.939 -0.3076 -0.5319 -0.1507
20134TIP3    H181893   2.009   2.415  90.961 -0.2170  2.7067  2.8672
20134TIP3    H281894   1.868   2.377  91.000 -0.2897 -0.4376 -0.0519
20135TIP3   OH281895   1.134   1.563  57.351 -0.6749  0.3864 -0.4509
20135TIP3    H181896   1.134   1.474  57.316  1.3274  0.0524  0.2434
20135TIP3    H281897   1.169   1.616  57.279  0.0198  0.2700 -0.2088
20136TIP3   OH281898   0.064   1.293 110.612  0.0966 -0.2035  0.0462
20136TIP3    H181899   0.077   1.243 110.692 -2.0030  1.2783  1.4384
20136TIP3    H281900   0.138   1.354 110.609  0.0431 -0.0847  1.0405
20137TIP3   OH281901   1.822   1.300 111.983 -0.3554  0.5942  0.1966
20137TIP3    H181902   1.743   1.247 111.977 -0.4100  0.4634  1.7549
20137TIP3    H281903   1.874   1.258 112.051  0.3838  1.5485  0.2387
20138TIP3   OH281904   0.610   1.408 104.915  0.3109 -0.0214  0.1412
20138TIP3    H181905   0.549   1.477 104.889 -0.6908 -0.5889  0.8936
20138TIP3    H281906   0.693   1.433 104.875 -0.3464  0.9184 -0.6869
20139TIP3   OH281907   0.668   0.190  81.110 -0.0711 -0.2438  0.2112
20139TIP3    H181908   0.712   0.106  81.099 -2.0732 -1.3240  0.0636
20139TIP3    H281909   0.736   0.248  81.144  1.5152 -1.7437 -0.2679
20140TIP3   OH281910   0.087   1.226  82.148 -0.8249  0.0282  0.2883
20140TIP3    H181911   0.004   1.200  82.187 -0.0760 -0.4942  1.5852
20140TIP3    H281912   0.068   1.309  82.104 -2.1003 -0.2647  0.2469
20141TIP3   OH281913   0.808   0.902   1.209  0.2406 -0.1372 -0.2252
20141TIP3    H181914   0.819   0.868   1.298  0.0415 -0.2032 -0.2253
20141TIP3    H281915   0.824   0.996   1.217  0.1024 -0.1244 -0.0981
20142TIP3   OH281916   1.553   0.604  89.084  0.3713  0.3938  0.5656
20142TIP3    H181917   1.558   0.602  89.179 -0.3696 -0.6330  0.6002
20142TIP3    H281918   1.523   0.517  89.059  1.4862  0.3266 -0.6711
20143TIP3   OH281919   2.120   2.555  94.328 -0.0273  0.0325  0.1233
20143TIP3    H181920   2.154   2.519  94.410 -0.1600  0.1709  0.2423
20143TIP3    H281921   2.178   2.630  94.309  0.4922 -0.4703 -0.3174
20144TIP3   OH281922   0.992   1.400  93.866 -0.7512  0.1517 -0.1205
20144TIP3    H181923   0.918   1.419  93.922  0.0691  0.0723  1.0240
20144TIP3    H281924   1.027   1.317  93.899 -0.5153 -0.1260 -1.0322
20145TIP3   OH281925   0.220   1.072  92.863 -0.1987 -0.1851 -0.1016
20145TIP3    H181926   0.280   1.064  92.938  0.5814  1.2482 -0.5318
20145TIP3    H281927   0.239   0.996  92.809 -0.4549 -1.0005  0.9229
20146TIP3   OH281928   0.816   0.865  32.288  0.0100 -0.4715  0.2149
20146TIP3    H181929   0.791   0.814  32.211  0.6773 -0.0867 -0.2600
20146TIP3    H281930   0.839   0.798  32.353  1.5283 -0.7994 -0.6185
20147TIP3   OH281931   0.884   2.533 107.159  0.3537  0.3557  0.5008
20147TIP3    H181932   0.899   2.624 107.185  1.2735 -0.0089  1.2993
20147TIP3    H281933   0.971   2.496 107.150 -0.0217 -0.5295  0.4613
20148TIP3   OH281934   0.363   2.511  82.657  0.3738 -0.0773 -0.2993
20148TIP3    H181935   0.303   2.499  82.730  1.0517 -0.6064  0.1853
20148TIP3    H281936   0.379   2.605  82.654  0.4959 -0.0768  0.3603
20149TIP3   OH281937   1.224   0.400  90.012  0.3146  0.6866 -0.3945
20149TIP3    H181938   1.208   0.494  90.015 -1.3769  0.4103  0.4544
20149TIP3    H281939   1.206   0.376  89.922 -0.9532  0.9333 -0.2288
20150TIP3   OH281940   1.772   0.170 102.886 -0.3114  0.3963 -0.1380
20150TIP3    H181941   1.705   0.235 102.867  0.8275  1.1000 -2.0687
20150TIP3    H281942   1.842   0.220 102.929 -0.3983 -0.0512  0.5425
20151TIP3   OH281943   1.784   0.115  86.650  0.7229 -0.0060  0.4006
20151TIP3    H181944   1.716   0.167  86.608  0.9910 -0.0263 -0.0640
20151TIP3    H281945   1.771   0.026  86.616  3.4765  0.6642 -2.9762
20152TIP3   OH281946   0.428   1.692  18.614 -0.1814 -0.1361 -0.4073
20152TIP3    H181947   0.369   1.699  18.539 -1.6168 -1.3411  0.5354
20152TIP3    H281948   0.381   1.636  18.676  1.9171 -1.0416  0.4647
20153TIP3   OH281949   0.443   1.172  74.518  0.3607 -0.1486 -0.1060
20153TIP3    H181950   0.411   1.260  74.541  0.6317 -0.0486 -0.1097
20153TIP3    H281951   0.363   1.120  74.506  0.2024  0.0032  0.2727
20154TIP3   OH281952   2.050   1.969   5.456 -0.0364 -0.0665  0.3874
20154TIP3    H181953   2.014   1.990   5.542 -0.3844 -0.0238  0.2339
20154TIP3    H281954   2.038   1.874   5.446  0.4783 -0.1577  0.5994
20155TIP3   OH281955   1.386   1.857  19.507  0.1764  0.1735  0.2657
20155TIP3    H181956   1.399   1.894  19.594  1.7326  0.7168 -0.1589
20155TIP3    H281957   1.366   1.764  19.524  0.3181  0.2983  1.1964
20156TIP3   OH281958   1.137   0.811  38.291  0.0968  0.0850 -0.1186
20156TIP3    H181959   1.160   0.898  38.260 -1.1770  2.3975  4.4760
20156TIP3    H281960   1.070   0.780  38.230  1.6177  1.5662 -2.7232
20157TIP3   OH281961   2.203   0.395  89.147  0.2066  0.1691 -0.1117
20157TIP3    H181962   2.186   0.447  89.225 -0.7485  0.3239 -0.4117
20157TIP3    H281963   2.200   0.304  89.177  2.5493  0.2528  0.5499
20158TIP3   OH281964   2.338   0.360  81.954 -0.1692 -0.1117 -0.6356
20158TIP3    H181965   2.431   0.356  81.977  0.1005  1.8395 -1.2070
20158TIP3    H281966   2.323   0.282  81.900  0.7206 -1.3061  0.7601
20159TIP3   OH281967   0.509   1.015  97.007 -0.2496  0.4485  0.1912
20159TIP3    H181968   0.531   1.002  96.915  0.0793  1.4051  0.1202
20159TIP3    H281969   0.414   1.017  97.010 -0.2571  0.6750 -0.1736
20160TIP3   OH281970   0.139   0.112  41.423 -0.1112  0.2899 -0.5109
20160TIP3    H181971   0.064   0.167  41.399 -0.1511  0.6329  0.3659
20160TIP3    H281972   0.177   0.085  41.339 -0.9856  0.4301 -0.9550
20161TIP3   OH281973   2.394   0.982  29.670 -0.1446 -0.2453  0.1088
20161TIP3    H181974   2.330   1.040  29.629 -0.1365  0.0971  0.5708
20161TIP3    H281975   2.479   1.022  29.649  0.1235 -2.0559 -2.6678
20162TIP3   OH281976   0.683   0.420  66.474  0.0440  0.0893  0.3921
20162TIP3    H181977   0.590   0.403  66.456 -0.2772  1.2805  0.7841
20162TIP3    H281978   0.730   0.348  66.432 -1.0827 -0.7021  0.4501
20163TIP3   OH281979   1.357   0.026  30.858  0.3794  0.0403  0.0052
20163TIP3    H181980   1.308   0.077  30.922  1.6713  1.7271 -0.3009
20163TIP3    H281981   1.385  -0.052  30.907 -1.0707 -0.1125  0.6521
20164TIP3   OH281982   2.340   1.032 106.393 -0.0931  0.0844 -0.0116
20164TIP3    H181983   2.429   1.065 106.403 -0.2639  0.4631  0.3093
20164TIP3    H281984   2.338   0.993 106.306  1.2864 -2.7927  1.1351
20165TIP3   OH281985   1.834   0.175  19.495 -0.1764  0.1730 -0.1494
20165TIP3    H181986   1.881   0.258  19.486  0.0045  0.0753 -0.0884
20165TIP3    H281987   1.867   0.121  19.424 -0.7361  0.3638 -0.5651
20166TIP3   OH281988   0.716   2.429  16.139  0.2117  0.0970  0.1036
20166TIP3    H181989   0.757   2.370  16.202 -0.4063  0.2614  0.6655
20166TIP3    H281990   0.780   2.499  16.127  0.7469 -0.4294 -0.2075
20167TIP3   OH281991   2.446   0.118  96.451  0.6480  0.4427  0.3596
20167TIP3    H181992   2.454   0.212  96.469  1.9983  0.2351  0.8905
20167TIP3    H281993   2.411   0.081  96.532 -1.0105  0.6206 -0.2308
20168TIP3   OH281994   2.616   2.621  26.926  0.1046 -0.0174 -0.4441
20168TIP3    H181995   2.645   2.600  26.837  0.0569 -0.0607 -0.4495
20168TIP3    H281996   2.650   2.550  26.981 -1.1832 -0.8591 -0.6630
20169TIP3   OH281997   2.356   2.560 112.177 -0.1699 -0.4598  0.4480
20169TIP3    H181998   2.263   2.538 112.170 -0.3670  0.1373  1.0366
20169TIP3    H281999   2.377   2.547 112.270  0.0939  0.2685  0.4980
20170TIP3   OH282000   2.067   1.634  81.230 -0.0796  0.4449  0.3854
20170TIP3    H182001   2.039   1.598  81.145 -1.6132  0.9173  0.6652
20170TIP3    H282002   2.049   1.564  81.293  1.5112 -0.0938  0.3046
20171TIP3   OH282003   0.651   0.331  96.530  0.1524  0.2213 -0.0862
20171TIP3    H182004   0.563   0.296  96.545  1.1798 -1.5921  2.4509
20171TIP3    H282005   0.657   0.407  96.587  0.6075 -0.3826  0.6861
20172TIP3   OH282006   1.512   0.957  85.009  0.1910  0.1908  0.5985
20172TIP3    H182007   1.603   0.927  85.003  0.8678  2.2343 -0.0924
20172TIP3    H282008   1.489   0.942  85.101  1.4875  0.3397  0.9765
20173TIP3   OH282009   2.052   2.586  17.699 -0.6726  0.6526 -0.6440
20173TIP3    H182010   2.134   2.551  17.663 -0.9735 -1.7945  0.8072
20173TIP3    H282011   2.079   2.642  17.771 -0.2637  0.9434 -1.0122
20174TIP3   OH282012   1.092   0.254   5.328 -0.4838  0.1654  0.7256
20174TIP3    H182013   1.081   0.177   5.272 -2.0392  1.1013 -0.3255
20174TIP3    H282014   1.067   0.225   5.415 -0.0641 -0.7671  0.5425
20175TIP3   OH282015   2.585   0.243   6.802 -0.4555 -0.7228  0.6415
20175TIP3    H182016   2.635   0.171   6.840  2.3249  1.3192  1.2221
20175TIP3    H282017   2.649   0.315   6.795 -2.9153  1.5295 -0.3395
20176TIP3   OH282018   0.002   2.000  11.161  0.0643  0.0621 -0.4614
20176TIP3    H182019  -0.045   2.029  11.239 -1.0681 -2.3080 -0.1637
20176TIP3    H282020   0.085   1.965  11.194 -0.7373 -1.6565 -0.1480
20177TIP3   OH282021   0.865   2.282  25.216 -0.1594 -0.1854  0.9725
20177TIP3    H182022   0.793   2.284  25.278  0.0648 -2.4274  1.4088
20177TIP3    H282023   0.944   2.285  25.270  0.0349 -1.9446  0.8614
20178TIP3   OH282024   2.380   2.055  84.260 -0.8059  0.2346 -1.0254
20178TIP3    H182025   2.288   2.050  84.285 -1.4135  1.3102 -2.8022
20178TIP3    H282026   2.401   2.149  84.265 -0.0696  0.1047 -1.4865
20179TIP3   OH282027   1.858   0.013  93.942 -0.8806 -0.4804  0.0132
20179TIP3    H182028   1.865   0.096  93.894 -0.2167  0.1168  1.0971
20179TIP3    H282029   1.824  -0.049  93.877 -1.7282  0.7066 -0.7378
20180TIP3   OH282030   2.015   0.864  98.644 -0.0903  0.2517  0.2710
20180TIP3    H182031   1.964   0.862  98.725 -0.0000 -0.0450  0.3234
20180TIP3    H282032   2.033   0.956  98.629 -1.2122  0.4261 -0.0993
20181TIP3   OH282033   2.521   0.446  37.441 -0.4779  0.9116  0.3339
20181TIP3    H182034   2.464   0.369  37.438 -0.6464  0.8238  3.0959
20181TIP3    H282035   2.461   0.521  37.435 -0.5851  0.8238  0.3179
20182TIP3   OH282036   0.169   0.912  76.774  0.6164  0.0864  0.2187
20182TIP3    H182037   0.138   0.878  76.858 -2.0560 -0.8373 -1.0338
20182TIP3    H282038   0.232   0.846  76.744 -1.3590 -1.7124 -0.2391
20183TIP3   OH282039   1.651   1.621  28.437 -0.7857 -0.1688 -0.2351
20183TIP3    H182040   1.562   1.653  28.418 -0.2625  1.4375 -0.1871
20183TIP3    H282041   1.699   1.700  28.464  0.8178 -0.9052 -0.8306
20184TIP3   OH282042   0.395   2.105  95.739  0.4646  0.2302  0.0195
20184TIP3    H182043   0.425   2.194  95.720 -0.1356  0.8991  1.9520
20184TIP3    H282044   0.473   2.059  95.769  1.0903 -0.3878 -2.3347
20185TIP3   OH282045   2.624   1.943  23.212 -0.8132 -0.7621  0.0851
20185TIP3    H182046   2.599   1.920  23.123 -0.0098 -1.6351  0.0658
20185TIP3    H282047   2.586   1.873  23.266 -0.6353 -0.6614  0.3426
20186TIP3   OH282048   0.836   0.541  25.462 -0.1110  0.6579  0.2160
20186TIP3    H182049   0.890   0.616  25.488  1.3987  0.0568 -0.9823
20186TIP3    H282050   0.831   0.547  25.367 -0.4072 -0.4553  0.1414
20187TIP3   OH282051   2.076   1.036  76.815 -0.2933 -0.5867 -0.3237
20187TIP3    H182052   2.019   0.988  76.755 -0.4336 -0.3810 -0.3586
20187TIP3    H282053   2.037   1.020  76.901 -0.3759 -0.4801 -0.3452
20188TIP3   OH282054   0.206   0.085   1.766 -0.4772 -0.1061 -0.0571
20188TIP3    H182055   0.131   0.099   1.824 -0.4777  1.9261 -0.4490
20188TIP3    H282056   0.178   0.121   1.681  0.4494 -0.5964 -0.5894
20189TIP3   OH282057   1.743   0.738   1.014 -0.3510  0.1492 -0.5260
20189TIP3    H182058   1.793   0.691   1.081  0.7499 -1.0408 -2.1366
20189TIP3    H282059   1.803   0.807   0.984  0.0064 -0.7026 -1.8140
20190TIP3   OH282060   0.279   0.166  85.475 -0.4950 -0.6022  0.3349
20190TIP3    H182061   0.280   0.221  85.397 -0.9059 -0.7497  0.2208
20190TIP3    H282062   0.219   0.094  85.453 -0.5836 -0.6647  0.7700
20191TIP3   OH282063   1.752   2.547  82.500 -0.2133  0.2070  0.0301
20191TIP3    H182064   1.708   2.604  82.564 -0.1681 -0.4993  0.6940
20191TIP3    H282065   1.820   2.603  82.462 -0.3121  0.6683  0.5154
20192TIP3   OH282066   2.209   2.622  29.997 -0.0384 -0.2908  0.9050
20192TIP3    H182067   2.289   2.570  30.000 -0.3226 -0.7396  0.9797
20192TIP3    H282068   2.220   2.689  30.064  1.0959  0.9033 -0.4216
20193TIP3   OH282069   1.719   0.686  28.954  0.3795 -0.6687  0.0097
20193TIP3    H182070   1.770   0.620  29.000  0.0433  0.0823  1.5376
20193TIP3    H282071   1.754   0.770  28.985 -1.4837 -0.1314  0.8061
20194TIP3   OH282072   0.144   0.474   8.414 -0.4817  0.3824  0.1664
20194TIP3    H182073   0.105   0.431   8.490  0.3506 -1.7332 -0.5072
20194TIP3    H282074   0.209   0.534   8.451 -0.9289  0.2858  1.1370
20195TIP3   OH282075   1.308   0.556   0.264  0.0872  0.3761 -0.6022
20195TIP3    H182076   1.290   0.625   0.327  0.1509 -0.7052  0.6464
20195TIP3    H282077   1.293   0.475   0.312  5.7365 -0.7368 -0.0027
20196TIP3   OH282078   1.618   1.747  25.513 -0.8276 -0.3798 -0.2403
20196TIP3    H182079   1.678   1.798  25.458 -0.4725 -0.9556 -0.3928
20196TIP3    H282080   1.563   1.699  25.451  0.0854 -1.6353 -0.1258
20197TIP3   OH282081   1.827   1.079  13.073 -0.2262 -0.4061 -0.3211
20197TIP3    H182082   1.759   1.132  13.032  0.7209 -0.2303 -1.7294
20197TIP3    H282083   1.907   1.130  13.061  0.7565 -2.1837 -1.9026
20198TIP3   OH282084   1.228   1.491  11.253 -0.1104 -0.1417 -0.1810
20198TIP3    H182085   1.198   1.472  11.342  0.3819 -0.9685 -0.1737
20198TIP3    H282086   1.320   1.463  11.253  0.4537  1.6339 -0.4054
20199TIP3   OH282087   0.778   0.850  34.570  0.1103  0.2110  0.5100
20199TIP3    H182088   0.817   0.906  34.637 -0.6202  1.8803 -0.3938
20199TIP3    H282089   0.716   0.907  34.525  0.9446 -0.6725 -1.9272
20200TIP3   OH282090   0.006   1.998  34.316  0.1706 -0.0433 -0.0441
20200TIP3    H182091  -0.086   1.975  34.322  0.5583 -1.6321  0.3086
20200TIP3    H282092   0.035   2.003  34.407  1.0056 -2.2306 -0.1210
20201TIP3   OH282093   0.893   1.067   8.234 -0.3819  0.0119 -0.2648
20201TIP3    H182094   0.945   1.079   8.314  1.0548 -1.1152 -0.9895
20201TIP3    H282095   0.936   0.995   8.188 -3.0476 -1.5019 -0.5740
20202TIP3   OH282096   0.027   1.545  94.656  0.2370  0.2371  0.2808
20202TIP3    H182097   0.120   1.560  94.638  0.1060  2.0773  0.9578
20202TIP3    H282098  -0.018   1.577  94.577  0.0647  1.8290  0.9880
20203TIP3   OH282099   0.400   0.836  27.358 -0.4626 -0.1589 -0.0057
20203TIP3    H182100   0.306   0.820  27.372 -1.2226  2.5538 -1.2551
20203TIP3    H282101   0.415   0.921  27.399  1.8518 -1.1663  1.3902
20204TIP3   OH282102   2.502   0.392  91.398  0.8693 -0.1205 -0.4436
20204TIP3    H182103   2.563   0.460  91.368 -0.6238  1.0542 -0.9625
20204TIP3    H282104   2.505   0.397  91.493 -0.4277  1.8896 -0.4474
20205TIP3   OH282105   0.316   0.071  27.830 -0.0355  0.0717 -0.0959
20205TIP3    H182106   0.360   0.155  27.824  0.2550 -0.0459  0.3757
20205TIP3    H282107   0.336   0.039  27.918  1.3370 -1.2970 -0.8630
20206TIP3   OH282108   1.860   1.804 111.277 -0.5371 -0.0882  0.1029
20206TIP3    H182109   1.769   1.805 111.305 -0.6349  0.6160 -0.2083
20206TIP3    H282110   1.869   1.724 111.226 -1.0878  0.0345 -0.1961
20207TIP3   OH282111   1.375   1.976  79.657  0.4234  0.6945  0.0817
20207TIP3    H182112   1.364   2.022  79.574  0.5635 -1.0900 -0.9763
20207TIP3    H282113   1.413   1.892  79.633 -0.6965 -0.3646  1.8243
20208TIP3   OH282114   1.607   0.974  28.253  0.0759 -0.0154  0.5387
20208TIP3    H182115   1.589   1.027  28.332  0.8843  0.5202  0.3823
20208TIP3    H282116   1.611   1.038  28.182  1.4937 -0.2138  0.4077
20209TIP3   OH282117   0.566   1.303  91.733 -0.1694 -0.0943 -0.0421
20209TIP3    H182118   0.533   1.372  91.675  0.7237  0.0240 -0.4369
20209TIP3    H282119   0.547   1.335  91.821 -0.9353  0.0385 -0.2445
20210TIP3   OH282120   0.881   2.592   7.892  0.1605  0.0095  0.3013
20210TIP3    H182121   0.957   2.631   7.937  1.3761 -1.2830 -0.5580
20210TIP3    H282122   0.893   2.617   7.800  1.6108 -3.1671 -0.5081
20211TIP3   OH282123   2.605   0.430  36.836  0.4481  0.3502  0.3798
20211TIP3    H182124   2.578   0.340  36.818 -0.2266  0.6168  0.0257
20211TIP3    H282125   2.625   0.466  36.750  0.1266  0.7176  0.4562
20212TIP3   OH282126   1.387   2.107   6.488 -0.2127 -0.2941  0.5054
20212TIP3    H182127   1.388   2.155   6.571  1.7078 -0.3059  0.5445
20212TIP3    H282128   1.331   2.158   6.430 -2.2220 -0.6873  2.0081
20213TIP3   OH282129   2.279   2.235  32.830  0.3839 -0.6262  0.8549
20213TIP3    H182130   2.215   2.241  32.901 -0.1872 -0.8862  0.3698
20213TIP3    H282131   2.308   2.144  32.832 -1.1481 -1.1977 -0.5206
20214TIP3   OH282132   1.816   0.740  14.386 -0.1765  0.2911 -0.0055
20214TIP3    H182133   1.857   0.656  14.365 -2.5015 -1.1334  0.6152
20214TIP3    H282134   1.829   0.794  14.309 -1.2013 -1.7612 -1.7235
20215TIP3   OH282135   1.332   2.587  90.706 -0.3795  0.0587  0.0164
20215TIP3    H182136   1.269   2.515  90.705  0.0463 -0.3214  0.1239
20215TIP3    H282137   1.285   2.661  90.666  0.5117 -1.3933 -4.2896
20216TIP3   OH282138   2.006   0.529  21.982  0.0258 -0.2044 -0.1193
20216TIP3    H182139   2.096   0.511  21.953  0.3439  1.3820 -0.2020
20216TIP3    H282140   2.008   0.512  22.077 -0.2661 -2.5667 -0.4736
20217TIP3   OH282141   1.805   1.889  77.592 -0.3421 -0.1593  0.4070
20217TIP3    H182142   1.790   1.984  77.595  2.0965  0.3978 -1.7360
20217TIP3    H282143   1.866   1.877  77.520  1.1450 -3.1559  1.9974
20218TIP3   OH282144   1.562   1.343  17.417  0.0662 -0.0717  0.7759
20218TIP3    H182145   1.614   1.379  17.489  0.7496 -0.1884  0.3487
20218TIP3    H282146   1.472   1.367  17.439  0.3963  1.0086  1.0272
20219TIP3   OH282147   1.617   1.089  92.588  0.2742  0.2236 -0.5613
20219TIP3    H182148   1.557   1.117  92.519 -1.5128  0.0414  0.8623
20219TIP3    H282149   1.577   1.009  92.623  1.6053 -0.1701  0.1216
20220TIP3   OH282150   0.893   0.905 111.232  0.3037  0.1298 -0.0972
20220TIP3    H182151   0.860   0.995 111.237 -0.1087 -0.0786  1.6172
20220TIP3    H282152   0.984   0.912 111.263  0.3839  0.0064 -0.3082
20221TIP3   OH282153   0.236   2.194  90.323  0.6359 -0.5751 -0.6326
20221TIP3    H182154   0.145   2.209  90.296  0.5067  0.4234  0.2775
20221TIP3    H282155   0.233   2.112  90.373 -0.2877  0.6927  1.5510
20222TIP3   OH282156   1.419   1.776  34.661 -0.2954  0.7427 -0.5216
20222TIP3    H182157   1.437   1.796  34.752  0.0970 -1.3208 -0.0951
20222TIP3    H282158   1.483   1.708  34.638  0.4434  2.0479 -2.7151
20223TIP3   OH282159   0.487   0.448 112.086 -0.1870 -0.2014  0.0668
20223TIP3    H182160   0.449   0.456 111.998 -2.1122 -1.3551  0.7378
20223TIP3    H282161   0.567   0.398 112.073 -0.6269 -0.6682 -1.0038
20224TIP3   OH282162   0.427   2.581  11.619  0.6727  0.2317  0.2449
20224TIP3    H182163   0.360   2.515  11.602  0.1111  0.5354  1.1920
20224TIP3    H282164   0.480   2.582  11.540 -1.9808  1.8677 -1.6638
20225TIP3   OH282165   2.186   0.453 104.698 -0.5451  0.1888  0.0824
20225TIP3    H182166   2.090   0.450 104.695 -0.5374  0.2680 -1.9076
20225TIP3    H282167   2.212   0.462 104.606  1.4716 -2.5773  0.2676
20226TIP3   OH282168   2.434   1.494  83.782  0.5067 -0.0002  0.3895
20226TIP3    H182169   2.488   1.475  83.705  0.7990  0.8167  0.3821
20226TIP3    H282170   2.373   1.562  83.752  1.7930  1.6446  1.3412
20227TIP3   OH282171   1.282   2.542 107.661 -0.2546  0.0071  0.1024
20227TIP3    H182172   1.368   2.564 107.698  0.0757 -0.3351 -0.4460
20227TIP3    H282173   1.225   2.613 107.690  0.0711 -0.0612  0.9660
20228TIP3   OH282174   0.070   0.692  30.948  0.3207  0.3362 -0.6912
20228TIP3    H182175  -0.012   0.678  30.996  0.2981  2.1291 -0.1537
20228TIP3    H282176   0.042   0.736  30.867  0.6629 -0.0193 -1.0065
20229TIP3   OH282177   0.900   0.095   7.251  0.2456  0.0533 -0.3022
20229TIP3    H182178   0.902   0.092   7.346  0.3726 -4.2155 -0.2890
20229TIP3    H282179   0.862   0.181   7.231 -1.1440  0.5309  3.5684
20230TIP3   OH282180   1.806   0.607  77.052  0.3055 -0.3013  0.5045
20230TIP3    H182181   1.807   0.511  77.047 -0.0546 -0.2481 -1.1248
20230TIP3    H282182   1.726   0.627  77.100  0.1716 -0.8155  0.5004
20231TIP3   OH282183   0.261   1.188  37.537  0.0720 -0.6967  0.2053
20231TIP3    H182184   0.322   1.152  37.601  2.7313  0.9979 -1.1919
20231TIP3    H282185   0.284   1.145  37.454 -1.6079 -1.0069 -0.1480
20232TIP3   OH282186   2.452   0.715  32.741  0.6116  0.2972 -0.1777
20232TIP3    H182187   2.455   0.693  32.648 -0.5906  0.6151 -0.3044
20232TIP3    H282188   2.506   0.648  32.783 -1.4146 -1.8380 -0.7533
20233TIP3   OH282189   2.363   2.079  95.076 -0.3084  0.1547  0.3299
20233TIP3    H182190   2.445   2.035  95.053 -0.3147  0.8683 -1.1570
20233TIP3    H282191   2.301   2.050  95.009 -1.4580 -0.8050  1.7509
20234TIP3   OH282192   2.118   1.420 105.906 -0.1538  0.0801 -0.5387
20234TIP3    H182193   2.205   1.457 105.921 -0.2805  0.7688 -1.4111
20234TIP3    H282194   2.128   1.364 105.829 -0.3867 -0.1970 -0.3682
20235TIP3   OH282195   1.370   2.049  12.843  0.1417  0.1323 -0.2288
20235TIP3    H182196   1.304   1.990  12.809  0.5673 -1.3184  1.3537
20235TIP3    H282197   1.420   2.076  12.765 -1.8537  0.7877 -1.3643
20236TIP3   OH282198   2.111   0.503  23.851 -0.4950 -0.0717  0.7027
20236TIP3    H182199   2.113   0.424  23.905 -0.2834  0.2144  1.1125
20236TIP3    H282200   2.152   0.570  23.904 -2.2324  0.7587  1.0700
20237TIP3   OH282201   1.239   0.223   1.631 -0.2686 -0.7352 -0.0277
20237TIP3    H182202   1.290   0.295   1.669 -0.7647  0.0980 -0.9046
20237TIP3    H282203   1.177   0.199   1.700  0.1624 -0.6037  0.4151
20238TIP3   OH282204   1.027   2.680  34.649 -0.1015 -0.4642 -0.2375
20238TIP3    H182205   1.064   2.747  34.706  1.8396 -0.8512 -0.9681
20238TIP3    H282206   1.029   2.719  34.561  0.0215 -1.0599 -0.5072
20239TIP3   OH282207   1.096   0.766  11.865  0.0178  0.2359 -0.1254
20239TIP3    H182208   1.130   0.703  11.801 -0.0240  0.0791  0.0071
20239TIP3    H282209   1.172   0.791  11.917  0.1293  0.6584 -0.4847
20240TIP3   OH282210   0.838   2.649  76.247  0.0258  0.3171  0.7393
20240TIP3    H182211   0.851   2.738  76.212  0.9451 -0.3519 -0.7363
20240TIP3    H282212   0.806   2.599  76.172  0.9400 -0.9142  1.1380
20241TIP3   OH282213   1.145   0.619  77.552  0.0813 -0.0700  0.0934
20241TIP3    H182214   1.156   0.597  77.645  1.1687  0.1393  0.0259
20241TIP3    H282215   1.183   0.707  77.544 -1.0037  0.3754 -0.3376
20242TIP3   OH282216   2.666   2.499 110.022  0.0177 -0.0588  0.4757
20242TIP3    H182217   2.758   2.476 110.014  0.0759  0.0164  0.8955
20242TIP3    H282218   2.631   2.436 110.085 -0.4915 -0.8334 -0.5341
20243TIP3   OH282219   1.779   2.082  10.719 -0.6187  0.3309  0.3160
20243TIP3    H182220   1.761   1.991  10.745  1.1103 -0.3355 -0.5993
20243TIP3    H282221   1.874   2.089  10.725 -0.6648  1.8373 -0.4539
20244TIP3   OH282222   2.485   2.219 100.097 -0.4586 -0.4683 -0.0196
20244TIP3    H182223   2.560   2.162 100.117 -0.3729 -0.1710  0.5213
20244TIP3    H282224   2.435   2.223 100.179 -0.8546 -0.3482 -0.2635
20245TIP3   OH282225   0.826   0.173   5.320 -0.4027 -0.5197  0.1721
20245TIP3    H182226   0.757   0.139   5.377 -2.1037  0.3388 -1.2800
20245TIP3    H282227   0.842   0.262   5.352 -0.1025 -0.6402  0.3674
20246TIP3   OH282228   1.260   0.473  11.997 -0.0054 -0.1680  0.4821
20246TIP3    H182229   1.227   0.501  11.912  0.7201 -0.3267  0.1407
20246TIP3    H282230   1.196   0.507  12.060 -0.4433  0.1194 -0.1065
20247TIP3   OH282231   0.428   0.562 108.436 -0.2278 -0.1854 -0.1485
20247TIP3    H182232   0.469   0.535 108.518  0.1473 -1.8780 -0.8597
20247TIP3    H282233   0.483   0.635 108.405  1.2403 -1.2516 -0.1835
20248TIP3   OH282234   0.566   0.077  76.026 -0.4106 -0.5960  0.2914
20248TIP3    H182235   0.544   0.170  76.031 -2.0336 -0.9041 -0.4341
20248TIP3    H282236   0.489   0.032  76.060 -0.2253 -1.7078 -0.6906
20249TIP3   OH282237   2.645   2.589  33.653  0.5363  0.1063  0.5364
20249TIP3    H182238   2.566   2.539  33.674  0.1698  0.6894  0.5663
20249TIP3    H282239   2.708   2.565  33.721 -0.3405  1.2940  1.8194
20250TIP3   OH282240   0.969   1.363  27.893 -0.5676  0.3873  0.5941
20250TIP3    H182241   0.903   1.428  27.918 -1.2353  0.0281 -0.2018
20250TIP3    H282242   0.923   1.279  27.896 -0.1914  0.1508 -0.1174
20251TIP3   OH282243   0.456   1.490  78.620  0.1580  0.2923  0.3169
20251TIP3    H182244   0.458   1.402  78.659  2.2154  0.0120 -0.2912
20251TIP3    H282245   0.500   1.546  78.683  1.0499  0.3784 -0.3634
20252TIP3   OH282246   0.079   2.018   2.110 -0.1698 -0.0478  0.2936
20252TIP3    H182247   0.025   1.979   2.179 -0.8178  0.3202  0.0061
20252TIP3    H282248   0.140   1.949   2.085 -0.4696 -0.4562  0.6670
20253TIP3   OH282249   0.066   0.202  37.513  0.0240  0.3742 -0.3655
20253TIP3    H182250   0.041   0.224  37.603 -0.7035 -0.8680 -0.2449
20253TIP3    H282251   0.101   0.284  37.477 -2.9650  1.9067 -0.0904
20254TIP3   OH282252   1.595   2.571  99.741 -0.2924  0.0465  0.0575
20254TIP3    H182253   1.655   2.629  99.695 -0.7578  0.1263 -0.4607
20254TIP3    H282254   1.531   2.630  99.782 -1.1991 -0.1051 -1.0792
20255TIP3   OH282255   1.068   1.673 102.006  0.1853 -0.0238  0.2865
20255TIP3    H182256   0.999   1.739 102.001 -0.3587 -0.5974  0.0597
20255TIP3    H282257   1.074   1.651 102.099  0.3292  0.2965  0.3554
20256TIP3   OH282258   0.914   0.607  66.589 -0.4078  0.4606  0.4139
20256TIP3    H182259   0.838   0.621  66.646 -0.4672  1.0281  0.2014
20256TIP3    H282260   0.880   0.553  66.518 -1.6543  3.6741 -1.6927
20257TIP3   OH282261   1.938   2.370  75.182  0.4432  0.1908  0.1291
20257TIP3    H182262   1.873   2.400  75.119 -0.4246 -0.0470  0.8981
20257TIP3    H282263   2.014   2.426  75.165  0.9021 -1.0432 -2.3228
20258TIP3   OH282264   1.200   0.819  33.851  0.3022  0.9584  0.2788
20258TIP3    H182265   1.158   0.816  33.937  0.2572 -1.7770  0.2699
20258TIP3    H282266   1.293   0.808  33.869  0.6911  3.5148  0.0983
20259TIP3   OH282267   2.593   0.178  19.131  0.0045  0.1514 -0.2543
20259TIP3    H182268   2.593   0.268  19.099 -0.4704  0.1733 -0.2099
20259TIP3    H282269   2.500   0.160  19.149  0.3279  0.5233  2.1960
20260TIP3   OH282270   1.859   1.305   0.640 -0.3229  0.5967  0.0305
20260TIP3    H182271   1.928   1.239   0.651  0.0172  1.0822  0.9109
20260TIP3    H282272   1.785   1.256   0.603 -0.5834 -0.6035  1.9979
20261TIP3   OH282273   0.976   1.382 102.138 -0.3230 -0.1544  0.5784
20261TIP3    H182274   0.938   1.379 102.226  0.3360 -1.4318  0.8418
20261TIP3    H282275   1.068   1.405 102.153 -0.4854  0.8810  0.1095
20262TIP3   OH282276   1.723   1.578  15.163 -0.2548 -0.0631  0.1554
20262TIP3    H182277   1.817   1.592  15.155 -0.3293  0.2198 -0.2683
20262TIP3    H282278   1.686   1.613  15.082 -0.8137  0.7023  0.7118
20263TIP3   OH282279   0.904   2.294  96.803  0.1615 -0.4351  0.2257
20263TIP3    H182280   0.929   2.316  96.713  0.3356 -0.4629  0.2697
20263TIP3    H282281   0.863   2.374  96.836  1.0383 -0.0795  0.4639
20264TIP3   OH282282   0.601   1.419  17.126  0.0091  0.1248  0.1072
20264TIP3    H182283   0.620   1.347  17.186 -1.3466  0.0565  0.4846
20264TIP3    H282284   0.643   1.394  17.044  2.2394  0.3997  1.0900
20265TIP3   OH282285   0.821   0.411  32.293  0.3638 -0.2228 -0.0961
20265TIP3    H182286   0.806   0.500  32.324 -0.4569  0.1711 -1.5396
20265TIP3    H282287   0.866   0.368  32.366 -0.5007  0.9473  1.1976
20266TIP3   OH282288   1.495   0.334  27.230  0.2100 -0.0230 -0.6577
20266TIP3    H182289   1.466   0.382  27.308 -1.0648  2.8315 -2.7176
20266TIP3    H282290   1.576   0.377  27.204  0.0608 -0.2224 -1.4749
20267TIP3   OH282291   1.388   2.581 102.629 -0.0583 -0.1088  0.2635
20267TIP3    H182292   1.417   2.494 102.659  0.6043  0.2928  0.8078
20267TIP3    H282293   1.368   2.568 102.537  0.1339 -0.8277  0.3084
20268TIP3   OH282294   0.274   2.103  26.267  0.5466 -0.3432 -0.1692
20268TIP3    H182295   0.210   2.117  26.197  1.6505 -0.1039 -1.1577
20268TIP3    H282296   0.295   2.192  26.297 -0.3618 -0.4665  0.9058
20269TIP3   OH282297   1.601   1.367 102.469  0.4034  0.2375  0.3920
20269TIP3    H182298   1.521   1.383 102.520  0.2194 -1.1404  0.5483
20269TIP3    H282299   1.654   1.309 102.524  1.3337  0.7813  0.0950
20270TIP3   OH282300   2.195   0.256  14.111 -0.5306 -0.2069  0.1531
20270TIP3    H182301   2.271   0.312  14.126 -0.7382  0.4623 -1.1809
20270TIP3    H282302   2.232   0.172  14.083 -0.2447 -0.4842  1.3255
20271TIP3   OH282303   2.376   0.640  33.709 -0.5594 -0.5540  0.2816
20271TIP3    H182304   2.409   0.729  33.694 -0.4247 -0.5603  0.5399
20271TIP3    H282305   2.382   0.628  33.803  0.4113 -1.2151  0.1468
20272TIP3   OH282306   2.221   0.335  40.791 -0.1704  0.2825  0.2287
20272TIP3    H182307   2.205   0.335  40.885 -0.3344  1.7862  0.2329
20272TIP3    H282308   2.134   0.335  40.752 -0.1210  0.9055  0.1082
20273TIP3   OH282309   0.200   1.640  29.594  0.0307  0.4636  0.3788
20273TIP3    H182310   0.135   1.578  29.627  0.7723 -0.1337  0.7527
20273TIP3    H282311   0.168   1.726  29.622 -0.6557  0.1922  0.4493
20274TIP3   OH282312   1.666   1.286  83.013  0.4349 -0.4867  0.4761
20274TIP3    H182313   1.602   1.355  82.992 -2.2879 -2.7804  0.6003
20274TIP3    H282314   1.660   1.276  83.108 -0.6691 -2.0743  0.2950
20275TIP3   OH282315   0.204   1.804  81.431 -0.0879  0.3239  0.1193
20275TIP3    H182316   0.137   1.786  81.364  2.3472  0.5260 -2.5888
20275TIP3    H282317   0.232   1.894  81.413  0.8710  0.2663  1.2310
20276TIP3   OH282318   1.351   1.386 100.391  0.5057 -0.0234  0.6974
20276TIP3    H182319   1.287   1.318 100.414  0.2799 -0.5915 -1.3676
20276TIP3    H282320   1.410   1.342 100.330  0.8436  1.4196 -0.0442
20277TIP3   OH282321   0.982   0.205  13.261  0.0865 -0.4290  0.1360
20277TIP3    H182322   1.030   0.261  13.322 -0.0149 -0.8680  0.6311
20277TIP3    H282323   0.970   0.259  13.183  0.7592 -0.0652  0.2719
20278TIP3   OH282324   0.314   0.961  34.551  0.2294 -0.2860  0.5735
20278TIP3    H182325   0.273   1.040  34.514  0.2935 -0.7345 -0.4653
20278TIP3    H282326   0.387   0.943  34.493 -0.3279 -1.6436  0.2691
20279TIP3   OH282327   1.676   1.247  87.082 -0.1666 -0.2971  0.4959
20279TIP3    H182328   1.590   1.206  87.087 -1.0191  1.2974 -0.1425
20279TIP3    H282329   1.657   1.341  87.073  1.6600  0.1965  1.2956
20280LIG      O82330   1.411   1.354   0.995 -0.3516 -0.3143 -0.2500
20280LIG     C182331   1.416   1.411   0.864  0.0960 -0.2276 -0.5135
20280LIG     C282332   1.516   1.323   0.781 -0.0594  0.2889  0.3404
20280LIG     C382333   1.272   1.413   0.810 -0.3444  0.5960  0.3002
20280LIG     H182334   1.446   1.518   0.874 -4.3350  1.1467  0.0843
20280LIG     H282335   1.474   1.220   0.782 -0.6603  0.5097 -0.8906
20280LIG     H382336   1.620   1.323   0.821  1.0710 -2.3449 -2.2111
20280LIG     H482337   1.522   1.362   0.678  0.1415  0.1272  0.2895
20280LIG     H582338   1.265   1.452   0.706  0.5495  0.6043  0.2374
20280LIG     H682339   1.212   1.477   0.878  0.7114  2.2990 -0.3304
20280LIG     H782340   1.217   1.316   0.810 -1.6382  1.2923 -0.9865
20280LIG     H882341   1.486   1.382   1.047 -0.4864 -1.4180  0.5678
   2.68564   2.68564 112.22166
